Title
68335
    1GLY      N    1   2.227   4.408   5.692
    1GLY    HT1    2   2.156   4.419   5.768
    1GLY    HT2    3   2.295   4.336   5.724
    1GLY    HT3    4   2.181   4.376   5.605
    1GLY     CA    5   2.299   4.538   5.668
    1GLY    HA1    6   2.349   4.565   5.760
    1GLY    HA2    7   2.224   4.610   5.637
    1GLY      C    8   2.403   4.530   5.560
    1GLY      O    9   2.435   4.420   5.516
    2PRO      N   10   2.455   4.643   5.511
    2PRO     CD   11   2.440   4.774   5.576
    2PRO    HD1   12   2.444   4.767   5.687
    2PRO    HD2   13   2.343   4.818   5.544
    2PRO     CA   14   2.560   4.647   5.409
    2PRO     HA   15   2.522   4.598   5.320
    2PRO     CB   16   2.584   4.797   5.387
    2PRO    HB1   17   2.509   4.835   5.314
    2PRO    HB2   18   2.685   4.821   5.349
    2PRO     CG   19   2.556   4.859   5.524
    2PRO    HG1   20   2.645   4.844   5.589
    2PRO    HG2   21   2.532   4.967   5.519
    2PRO      C   22   2.687   4.574   5.445
    2PRO      O   23   2.720   4.561   5.565
    3GLY      N   24   2.760   4.522   5.346
    3GLY     HN   25   2.728   4.529   5.252
    3GLY     CA   26   2.891   4.460   5.363
    3GLY    HA1   27   2.926   4.431   5.265
    3GLY    HA2   28   2.878   4.376   5.430
    3GLY      C   29   2.998   4.548   5.423
    3GLY      O   30   2.991   4.671   5.424
    4ALA      N   31   3.104   4.484   5.474
    4ALA     HN   32   3.109   4.385   5.471
    4ALA     CA   33   3.224   4.552   5.517
    4ALA     HA   34   3.193   4.624   5.591
    4ALA     CB   35   3.319   4.451   5.585
    4ALA    HB1   36   3.348   4.372   5.513
    4ALA    HB2   37   3.267   4.404   5.671
    4ALA    HB3   38   3.411   4.501   5.622
    4ALA      C   39   3.295   4.625   5.402
    4ALA      O   40   3.287   4.579   5.288
    5PRO      N   41   3.362   4.739   5.422
    5PRO     CD   42   3.365   4.812   5.549
    5PRO    HD1   43   3.430   4.757   5.620
    5PRO    HD2   44   3.263   4.825   5.592
    5PRO     CA   45   3.456   4.795   5.326
    5PRO     HA   46   3.397   4.831   5.243
    5PRO     CB   47   3.527   4.908   5.403
    5PRO    HB1   48   3.552   4.993   5.337
    5PRO    HB2   49   3.619   4.870   5.452
    5PRO     CG   50   3.427   4.946   5.512
    5PRO    HG1   51   3.475   4.996   5.598
    5PRO    HG2   52   3.348   5.013   5.469
    5PRO      C   53   3.556   4.697   5.265
    5PRO      O   54   3.608   4.610   5.336
    6GLY      N   55   3.586   4.710   5.134
    6GLY     HN   56   3.540   4.778   5.079
    6GLY     CA   57   3.696   4.638   5.071
    6GLY    HA1   58   3.701   4.669   4.968
    6GLY    HA2   59   3.677   4.532   5.083
    6GLY      C   60   3.832   4.666   5.131
    6GLY      O   61   3.858   4.772   5.189
    7SER      N   62   3.924   4.570   5.114
    7SER     HN   63   3.900   4.485   5.067
    7SER     CA   64   4.061   4.573   5.162
    7SER     HA   65   4.057   4.578   5.270
    7SER     CB   66   4.139   4.446   5.119
    7SER    HB1   67   4.229   4.431   5.184
    7SER    HB2   68   4.175   4.456   5.014
    7SER     OG   69   4.055   4.330   5.125
    7SER    HG1   70   4.023   4.320   5.214
    7SER      C   71   4.139   4.695   5.113
    7SER      O   72   4.110   4.750   5.007
    8GLY      N   73   4.238   4.742   5.191
    8GLY     HN   74   4.264   4.694   5.275
    8GLY     CA   75   4.321   4.857   5.153
    8GLY    HA1   76   4.395   4.870   5.230
    8GLY    HA2   77   4.254   4.941   5.144
    8GLY      C   78   4.395   4.840   5.022
    8GLY      O   79   4.419   4.726   4.979
    9PRO      N   80   4.434   4.947   4.953
    9PRO     CD   81   4.434   5.083   5.009
    9PRO    HD1   82   4.473   5.083   5.114
    9PRO    HD2   83   4.331   5.125   5.007
    9PRO     CA   84   4.531   4.936   4.844
    9PRO     HA   85   4.493   4.868   4.769
    9PRO     CB   86   4.544   5.080   4.793
    9PRO    HB1   87   4.460   5.102   4.724
    9PRO    HB2   88   4.640   5.099   4.740
    9PRO     CG   89   4.529   5.165   4.920
    9PRO    HG1   90   4.628   5.174   4.970
    9PRO    HG2   91   4.491   5.268   4.899
    9PRO      C   92   4.664   4.879   4.892
    9PRO      O   93   4.706   4.910   5.003
   10GLY      N   94   4.731   4.795   4.811
   10GLY     HN   95   4.691   4.766   4.724
   10GLY     CA   96   4.865   4.747   4.843
   10GLY    HA1   97   4.901   4.692   4.757
   10GLY    HA2   98   4.856   4.684   4.931
   10GLY      C   99   4.968   4.854   4.873
   10GLY      O  100   4.962   4.966   4.823
   11ALA      N  101   5.068   4.819   4.956
   11ALA     HN  102   5.060   4.738   5.013
   11ALA     CA  103   5.186   4.900   4.980
   11ALA     HA  104   5.150   4.991   5.025
   11ALA     CB  105   5.278   4.829   5.082
   11ALA    HB1  106   5.314   4.732   5.042
   11ALA    HB2  107   5.223   4.811   5.176
   11ALA    HB3  108   5.367   4.892   5.106
   11ALA      C  109   5.266   4.934   4.852
   11ALA      O  110   5.261   4.859   4.754
   12PRO      N  111   5.338   5.047   4.846
   12PRO     CD  112   5.338   5.151   4.949
   12PRO    HD1  113   5.396   5.115   5.037
   12PRO    HD2  114   5.235   5.178   4.981
   12PRO     CA  115   5.439   5.074   4.744
   12PRO     HA  116   5.384   5.091   4.653
   12PRO     CB  117   5.511   5.201   4.793
   12PRO    HB1  118   5.542   5.266   4.708
   12PRO    HB2  119   5.601   5.175   4.853
   12PRO     CG  120   5.409   5.269   4.884
   12PRO    HG1  121   5.456   5.336   4.959
   12PRO    HG2  122   5.336   5.327   4.824
   12PRO      C  123   5.535   4.962   4.711
   12PRO      O  124   5.576   4.885   4.799
   13GLY      N  125   5.575   4.953   4.582
   13GLY     HN  126   5.541   5.017   4.514
   13GLY     CA  127   5.687   4.870   4.540
   13GLY    HA1  128   5.696   4.882   4.433
   13GLY    HA2  129   5.667   4.768   4.570
   13GLY      C  130   5.818   4.913   4.600
   13GLY      O  131   5.837   5.028   4.640
   14SER      N  132   5.915   4.820   4.604
   14SER     HN  133   5.898   4.726   4.576
   14SER     CA  134   6.052   4.848   4.645
   14SER     HA  135   6.048   4.886   4.746
   14SER     CB  136   6.140   4.721   4.645
   14SER    HB1  137   6.246   4.747   4.666
   14SER    HB2  138   6.136   4.673   4.545
   14SER     OG  139   6.094   4.629   4.744
   14SER    HG1  140   6.173   4.598   4.789
   14SER      C  141   6.121   4.953   4.561
   14SER      O  142   6.097   4.964   4.440
   15GLY      N  143   6.209   5.034   4.623
   15GLY     HN  144   6.232   5.018   4.719
   15GLY     CA  145   6.285   5.137   4.553
   15GLY    HA1  146   6.349   5.185   4.625
   15GLY    HA2  147   6.212   5.204   4.509
   15GLY      C  148   6.374   5.084   4.443
   15GLY      O  149   6.409   4.965   4.444
   16PRO      N  150   6.417   5.165   4.346
   16PRO     CD  151   6.384   5.308   4.336
   16PRO    HD1  152   6.375   5.357   4.435
   16PRO    HD2  153   6.289   5.318   4.280
   16PRO     CA  154   6.528   5.129   4.258
   16PRO     HA  155   6.500   5.041   4.203
   16PRO     CB  156   6.544   5.253   4.168
   16PRO    HB1  157   6.475   5.244   4.082
   16PRO    HB2  158   6.647   5.265   4.128
   16PRO     CG  159   6.500   5.369   4.256
   16PRO    HG1  160   6.582   5.397   4.325
   16PRO    HG2  161   6.469   5.458   4.198
   16PRO      C  162   6.655   5.094   4.334
   16PRO      O  163   6.680   5.149   4.442
   17GLY      N  164   6.735   4.999   4.281
   17GLY     HN  165   6.709   4.955   4.196
   17GLY     CA  166   6.866   4.967   4.335
   17GLY    HA1  167   6.905   4.886   4.275
   17GLY    HA2  168   6.856   4.942   4.440
   17GLY      C  169   6.967   5.079   4.324
   17GLY      O  170   6.951   5.173   4.246
   18ALA      N  171   7.079   5.068   4.397
   18ALA     HN  172   7.095   4.986   4.451
   18ALA     CA  173   7.189   5.162   4.387
   18ALA     HA  174   7.145   5.258   4.408
   18ALA     CB  175   7.294   5.134   4.496
   18ALA    HB1  176   7.338   5.033   4.484
   18ALA    HB2  177   7.248   5.140   4.597
   18ALA    HB3  178   7.377   5.209   4.492
   18ALA      C  179   7.254   5.165   4.246
   18ALA      O  180   7.255   5.060   4.180
   19PRO      N  181   7.304   5.278   4.196
   19PRO     CD  182   7.284   5.411   4.254
   19PRO    HD1  183   7.365   5.429   4.328
   19PRO    HD2  184   7.184   5.424   4.302
   19PRO     CA  185   7.362   5.286   4.062
   19PRO     HA  186   7.288   5.252   3.991
   19PRO     CB  187   7.394   5.436   4.045
   19PRO    HB1  188   7.385   5.467   3.939
   19PRO    HB2  189   7.497   5.456   4.081
   19PRO     CG  190   7.296   5.508   4.137
   19PRO    HG1  191   7.333   5.608   4.168
   19PRO    HG2  192   7.197   5.519   4.086
   19PRO      C  193   7.486   5.202   4.038
   19PRO    OT1  194   7.558   5.164   4.134
   19PRO    OT2  195   7.514   5.172   3.918
   20LIT    LIT  196   0.654   1.905   6.382
   21LIT    LIT  197   7.151   2.230   5.126
   22LIT    LIT  198   0.141   6.098   2.372
   23LIT    LIT  199   5.694   2.686   3.481
   24LIT    LIT  200   6.537   7.821   7.764
   25LIT    LIT  201   8.653   5.584   6.801
   26LIT    LIT  202   4.997   1.437   1.069
   27LIT    LIT  203   1.360   2.246   2.823
   28LIT    LIT  204   7.995   6.633   4.815
   29LIT    LIT  205   3.073   1.354   3.126
   30LIT    LIT  206   6.790   6.665   6.193
   31LIT    LIT  207   5.517   6.442   3.125
   32LIT    LIT  208   6.702   0.319   4.242
   33LIT    LIT  209   8.942   4.045   2.380
   34LIT    LIT  210   3.108   0.789   2.238
   35LIT    LIT  211   4.834   8.728   6.753
   36LIT    LIT  212   1.549   6.785   2.553
   37LIT    LIT  213   6.002   3.149   0.182
   38LIT    LIT  214   0.682   6.921   1.969
   39LIT    LIT  215   0.242   9.205   6.518
   40LIT    LIT  216   2.099   1.198   4.274
   41LIT    LIT  217   3.361   6.139   1.368
   42LIT    LIT  218   8.605   2.852   3.047
   43LIT    LIT  219   5.662   4.694   4.990
   44LIT    LIT  220   3.033   2.125   5.049
   45LIT    LIT  221   0.755   8.838   3.902
   46LIT    LIT  222   6.139   4.592   6.404
   47LIT    LIT  223   0.142   7.255   4.825
   48LIT    LIT  224   3.731   9.100   6.589
   49LIT    LIT  225   1.068   1.450   6.353
   50LIT    LIT  226   7.846   6.257   3.359
   51LIT    LIT  227   4.857   7.233   2.780
   52LIT    LIT  228   9.016   0.298   5.607
   53LIT    LIT  229   3.925   5.142   6.649
   54LIT    LIT  230   8.598   7.558   4.755
   55LIT    LIT  231   4.678   8.391   2.974
   56LIT    LIT  232   1.988   9.197   4.678
   57LIT    LIT  233   2.910   9.188   3.223
   58LIT    LIT  234   5.784   8.186   6.263
   59LIT    LIT  235   6.760   8.225   1.481
   60LIT    LIT  236   3.539   5.863   0.334
   61LIT    LIT  237   6.533   0.539   2.323
   62LIT    LIT  238   2.441   2.609   2.784
   63LIT    LIT  239   1.470   1.077   6.651
   64LIT    LIT  240   8.530   7.353   6.666
   65LIT    LIT  241   5.399   1.725   5.068
   66LIT    LIT  242   1.194   7.523   7.637
   67LIT    LIT  243   0.038   3.396   3.543
   68LIT    LIT  244   0.006   5.423   5.535
   69LIT    LIT  245   4.020   2.689   5.268
   70LIT    LIT  246   0.796   4.819   0.092
   71LIT    LIT  247   7.810   8.815   0.690
   72LIT    LIT  248   0.580   5.912   1.687
   73LIT    LIT  249   8.616   5.666   5.360
   74LIT    LIT  250   2.972   1.421   1.959
   75LIT    LIT  251   7.857   5.781   1.335
   76LIT    LIT  252   2.922   3.601   1.817
   77LIT    LIT  253   9.317   6.412   1.183
   78LIT    LIT  254   8.886   6.219   7.443
   79LIT    LIT  255   9.101   8.488   1.732
   80LIT    LIT  256   3.129   4.764   1.385
   81LIT    LIT  257   8.193   8.601   6.167
   82LIT    LIT  258   6.376   8.452   4.426
   83LIT    LIT  259   2.403   5.746   0.101
   84LIT    LIT  260   0.691   3.812   7.186
   85CLA    CLA  261   8.222   6.677   4.800
   86CLA    CLA  262   0.364   4.592   6.889
   87CLA    CLA  263   7.215   8.076   4.658
   88CLA    CLA  264   9.287   3.146   6.432
   89CLA    CLA  265   5.141   4.065   7.643
   90CLA    CLA  266   2.751   2.778   7.322
   91CLA    CLA  267   0.770   5.480   1.290
   92CLA    CLA  268   2.189   0.991   4.224
   93CLA    CLA  269   2.998   1.233   2.946
   94CLA    CLA  270   4.986   8.088   0.485
   95CLA    CLA  271   6.046   2.317   7.008
   96CLA    CLA  272   4.532   0.178   1.332
   97CLA    CLA  273   9.305   6.921   0.741
   98CLA    CLA  274   1.236   5.270   2.740
   99CLA    CLA  275   8.464   0.187   2.145
  100CLA    CLA  276   2.824   4.350   1.440
  101CLA    CLA  277   9.407   3.938   3.846
  102CLA    CLA  278   8.434   0.685   1.034
  103CLA    CLA  279   8.910   0.347   7.008
  104CLA    CLA  280   9.044   0.486   5.489
  105CLA    CLA  281   5.316   5.724   2.596
  106CLA    CLA  282   4.991   4.975   5.351
  107CLA    CLA  283   7.895   4.513   5.646
  108CLA    CLA  284   4.780   1.392   0.694
  109CLA    CLA  285   8.657   4.913   6.331
  110CLA    CLA  286   1.880   3.935   0.349
  111CLA    CLA  287   2.253   7.339   6.388
  112CLA    CLA  288   5.747   0.404   5.690
  113CLA    CLA  289   5.935   0.031   0.782
  114CLA    CLA  290   1.075   1.440   6.120
  115CLA    CLA  291   2.842   2.402   1.109
  116CLA    CLA  292   6.241   1.335   4.655
  117CLA    CLA  293   5.722   7.602   6.743
  118CLA    CLA  294   5.309   6.467   2.728
  119CLA    CLA  295   3.358   3.303   4.571
  120CLA    CLA  296   0.610   5.524   7.595
  121CLA    CLA  297   6.566   6.923   1.452
  122CLA    CLA  298   4.554   8.859   3.119
  123CLA    CLA  299   8.096   9.195   2.762
  124CLA    CLA  300   8.011   6.133   0.725
  125CLA    CLA  301   7.304   4.268   1.538
  126CLA    CLA  302   8.975   5.688   5.188
  127CLA    CLA  303   5.616   2.960   0.085
  128CLA    CLA  304   3.113   8.973   2.255
  129CLA    CLA  305   2.856   0.215   4.814
  130CLA    CLA  306   3.811   7.049   6.627
  131CLA    CLA  307   0.626   7.714   4.975
  132CLA    CLA  308   6.633   8.249   1.121
  133CLA    CLA  309   6.553   0.364   6.055
  134CLA    CLA  310   8.182   8.555   5.515
  135CLA    CLA  311   3.279   2.845   5.403
  136CLA    CLA  312   2.812   4.081   1.960
  137CLA    CLA  313   6.443   1.790   2.235
  138CLA    CLA  314   1.083   8.996   4.773
  139CLA    CLA  315   8.277   9.057   3.579
  140CLA    CLA  316   1.249   1.345   6.456
  141CLA    CLA  317   7.607   8.457   1.539
  142CLA    CLA  318   3.932   2.185   0.008
  143CLA    CLA  319   8.898   5.477   3.647
  144CLA    CLA  320   6.267   0.163   2.475
  145CLA    CLA  321   2.938   8.072   6.930
  146CLA    CLA  322   3.554   1.779   3.075
  147CLA    CLA  323   8.072   6.300   3.388
  148CLA    CLA  324   2.692   0.168   6.536
  149CLA    CLA  325   2.033   3.919   4.783
  150TIP3   OH2  326   4.573   0.031   1.600
  150TIP3    H1  327   4.525   0.101   1.643
  150TIP3    H2  328   4.579   0.058   1.509
  151TIP3   OH2  329   4.804   0.038   2.049
  151TIP3    H1  330   4.712   0.024   2.025
  151TIP3    H2  331   4.836   0.100   1.984
  152TIP3   OH2  332   1.712   8.888   1.846
  152TIP3    H1  333   1.632   8.928   1.881
  152TIP3    H2  334   1.693   8.875   1.753
  153TIP3   OH2  335   1.365   8.787   2.172
  153TIP3    H1  336   1.353   8.869   2.220
  153TIP3    H2  337   1.301   8.791   2.101
  154TIP3   OH2  338   5.020   0.341   2.109
  154TIP3    H1  339   5.034   0.246   2.117
  154TIP3    H2  340   4.939   0.358   2.156
  155TIP3   OH2  341   4.121   0.100   2.204
  155TIP3    H1  342   4.095   0.188   2.232
  155TIP3    H2  343   4.048   0.071   2.149
  156TIP3   OH2  344   1.607   8.722   2.299
  156TIP3    H1  345   1.520   8.754   2.274
  156TIP3    H2  346   1.636   8.670   2.224
  157TIP3   OH2  347   0.961   8.686   2.579
  157TIP3    H1  348   1.011   8.620   2.628
  157TIP3    H2  349   1.020   8.715   2.510
  158TIP3   OH2  350   4.693   0.725   2.179
  158TIP3    H1  351   4.696   0.731   2.083
  158TIP3    H2  352   4.783   0.740   2.207
  159TIP3   OH2  353   1.478   8.992   1.944
  159TIP3    H1  354   1.500   9.069   1.891
  159TIP3    H2  355   1.407   9.022   2.001
  160TIP3   OH2  356   1.023   9.123   2.255
  160TIP3    H1  357   1.043   9.106   2.347
  160TIP3    H2  358   0.963   9.198   2.257
  161TIP3   OH2  359   4.380   0.136   2.116
  161TIP3    H1  360   4.286   0.122   2.128
  161TIP3    H2  361   4.412   0.157   2.203
  162TIP3   OH2  362   5.066   0.066   2.102
  162TIP3    H1  363   4.971   0.052   2.111
  162TIP3    H2  364   5.086   0.036   2.014
  163TIP3   OH2  365   4.476   0.390   2.084
  163TIP3    H1  366   4.439   0.302   2.086
  163TIP3    H2  367   4.529   0.391   2.004
  164TIP3   OH2  368   4.532   0.306   1.642
  164TIP3    H1  369   4.468   0.337   1.578
  164TIP3    H2  370   4.614   0.300   1.593
  165TIP3   OH2  371   3.357   0.372   2.539
  165TIP3    H1  372   3.434   0.378   2.596
  165TIP3    H2  373   3.308   0.297   2.573
  166TIP3   OH2  374   3.831   0.317   2.631
  166TIP3    H1  375   3.897   0.370   2.676
  166TIP3    H2  376   3.880   0.244   2.593
  167TIP3   OH2  377   4.434   0.227   2.369
  167TIP3    H1  378   4.446   0.155   2.431
  167TIP3    H2  379   4.502   0.290   2.393
  168TIP3   OH2  380   0.832   9.109   2.528
  168TIP3    H1  381   0.799   9.068   2.448
  168TIP3    H2  382   0.918   9.069   2.541
  169TIP3   OH2  383   1.263   9.094   2.114
  169TIP3    H1  384   1.259   9.158   2.043
  169TIP3    H2  385   1.180   9.104   2.160
  170TIP3   OH2  386   1.093   9.006   2.518
  170TIP3    H1  387   1.121   8.936   2.460
  170TIP3    H2  388   1.121   8.978   2.606
  171TIP3   OH2  389   1.409   8.633   2.541
  171TIP3    H1  390   1.424   8.566   2.608
  171TIP3    H2  391   1.375   8.585   2.466
  172TIP3   OH2  392   1.421   9.019   2.319
  172TIP3    H1  393   1.367   9.066   2.255
  172TIP3    H2  394   1.509   9.020   2.282
  173TIP3   OH2  395   4.781   0.362   1.529
  173TIP3    H1  396   4.760   0.455   1.531
  173TIP3    H2  397   4.790   0.341   1.436
  174TIP3   OH2  398   4.786   0.495   1.960
  174TIP3    H1  399   4.732   0.419   1.939
  174TIP3    H2  400   4.859   0.491   1.898
  175TIP3   OH2  401   4.876   0.149   2.409
  175TIP3    H1  402   4.809   0.157   2.477
  175TIP3    H2  403   4.925   0.231   2.414
  176TIP3   OH2  404   1.575   9.173   1.761
  176TIP3    H1  405   1.600   9.165   1.669
  176TIP3    H2  406   1.600   9.262   1.784
  177TIP3   OH2  407   4.637   0.274   1.890
  177TIP3    H1  408   4.621   0.182   1.910
  177TIP3    H2  409   4.604   0.285   1.801
  178TIP3   OH2  410   1.663   9.035   2.191
  178TIP3    H1  411   1.733   8.974   2.169
  178TIP3    H2  412   1.646   9.084   2.111
  179TIP3   OH2  413   1.876   8.853   2.214
  179TIP3    H1  414   1.830   8.816   2.289
  179TIP3    H2  415   1.950   8.900   2.251
  180TIP3   OH2  416   1.588   8.697   2.000
  180TIP3    H1  417   1.529   8.764   2.034
  180TIP3    H2  418   1.656   8.746   1.954
  181TIP3   OH2  419   4.078   0.374   2.276
  181TIP3    H1  420   4.119   0.363   2.362
  181TIP3    H2  421   4.139   0.429   2.227
  182TIP3   OH2  422   4.274   0.548   2.174
  182TIP3    H1  423   4.340   0.485   2.146
  182TIP3    H2  424   4.319   0.608   2.233
  183TIP3   OH2  425   4.267   0.335   1.834
  183TIP3    H1  426   4.197   0.313   1.895
  183TIP3    H2  427   4.233   0.407   1.782
  184TIP3   OH2  428   4.526   0.538   1.794
  184TIP3    H1  429   4.445   0.570   1.834
  184TIP3    H2  430   4.504   0.451   1.763
  185TIP3   OH2  431   4.744   0.398   2.211
  185TIP3    H1  432   4.653   0.375   2.191
  185TIP3    H2  433   4.768   0.461   2.143
  186TIP3   OH2  434   5.513   0.147   1.627
  186TIP3    H1  435   5.510   0.243   1.618
  186TIP3    H2  436   5.452   0.128   1.698
  187TIP3   OH2  437   5.727   0.225   1.804
  187TIP3    H1  438   5.662   0.279   1.848
  187TIP3    H2  439   5.677   0.174   1.740
  188TIP3   OH2  440   2.210   9.037   1.987
  188TIP3    H1  441   2.204   9.133   1.989
  188TIP3    H2  442   2.124   9.008   1.959
  189TIP3   OH2  443   5.517   0.381   1.894
  189TIP3    H1  444   5.496   0.406   1.804
  189TIP3    H2  445   5.431   0.369   1.936
  190TIP3   OH2  446   1.851   9.176   1.861
  190TIP3    H1  447   1.776   9.143   1.811
  190TIP3    H2  448   1.894   9.097   1.893
  191TIP3   OH2  449   4.972   0.179   1.584
  191TIP3    H1  450   5.063   0.206   1.568
  191TIP3    H2  451   4.920   0.256   1.561
  192TIP3   OH2  452   5.898   0.398   1.669
  192TIP3    H1  453   5.892   0.479   1.720
  192TIP3    H2  454   5.854   0.333   1.723
  193TIP3   OH2  455   5.311   0.120   1.812
  193TIP3    H1  456   5.361   0.120   1.894
  193TIP3    H2  457   5.238   0.060   1.828
  194TIP3   OH2  458   6.507   0.960   1.659
  194TIP3    H1  459   6.493   0.965   1.564
  194TIP3    H2  460   6.590   1.007   1.673
  195TIP3   OH2  461   5.440   0.069   2.050
  195TIP3    H1  462   5.528   0.085   2.086
  195TIP3    H2  463   5.382   0.075   2.125
  196TIP3   OH2  464   1.951   8.947   1.966
  196TIP3    H1  465   1.943   8.909   2.053
  196TIP3    H2  466   1.885   8.901   1.914
  197TIP3   OH2  467   6.143   0.487   1.571
  197TIP3    H1  468   6.062   0.436   1.582
  197TIP3    H2  469   6.177   0.499   1.659
  198TIP3   OH2  470   5.734   0.487   1.471
  198TIP3    H1  471   5.780   0.558   1.427
  198TIP3    H2  472   5.799   0.449   1.530
  199TIP3   OH2  473   6.326   0.681   1.511
  199TIP3    H1  474   6.272   0.602   1.509
  199TIP3    H2  475   6.316   0.718   1.423
  200TIP3   OH2  476   5.208   0.337   1.676
  200TIP3    H1  477   5.249   0.275   1.736
  200TIP3    H2  478   5.181   0.410   1.732
  201TIP3   OH2  479   5.135   0.634   2.064
  201TIP3    H1  480   5.216   0.627   2.113
  201TIP3    H2  481   5.104   0.544   2.054
  202TIP3   OH2  482   5.601   0.560   2.088
  202TIP3    H1  483   5.693   0.539   2.103
  202TIP3    H2  484   5.574   0.503   2.016
  203TIP3   OH2  485   6.212   0.522   1.838
  203TIP3    H1  486   6.211   0.437   1.882
  203TIP3    H2  487   6.293   0.564   1.867
  204TIP3   OH2  488   5.272   0.045   2.273
  204TIP3    H1  489   5.291  -0.049   2.278
  204TIP3    H2  490   5.192   0.050   2.220
  205TIP3   OH2  491   5.882   0.154   2.018
  205TIP3    H1  492   5.842   0.165   1.932
  205TIP3    H2  493   5.964   0.108   2.001
  206TIP3   OH2  494   2.090   9.019   2.281
  206TIP3    H1  495   2.168   8.997   2.230
  206TIP3    H2  496   2.123   9.038   2.368
  207TIP3   OH2  497   2.862   9.268   1.989
  207TIP3    H1  498   2.889   9.187   1.947
  207TIP3    H2  499   2.880   9.255   2.082
  208TIP3   OH2  500   2.330   8.885   2.174
  208TIP3    H1  501   2.271   8.811   2.186
  208TIP3    H2  502   2.297   8.931   2.097
  209TIP3   OH2  503   4.888   0.326   1.278
  209TIP3    H1  504   4.906   0.281   1.195
  209TIP3    H2  505   4.974   0.352   1.311
  210TIP3   OH2  506   6.676   0.377   1.943
  210TIP3    H1  507   6.601   0.373   2.003
  210TIP3    H2  508   6.723   0.456   1.969
  211TIP3   OH2  509   5.289   0.364   2.049
  211TIP3    H1  510   5.196   0.349   2.065
  211TIP3    H2  511   5.324   0.390   2.134
  212TIP3   OH2  512   5.510   0.420   1.618
  212TIP3    H1  513   5.450   0.490   1.591
  212TIP3    H2  514   5.592   0.440   1.573
  213TIP3   OH2  515   5.893   0.659   1.771
  213TIP3    H1  516   5.931   0.652   1.859
  213TIP3    H2  517   5.961   0.704   1.720
  214TIP3   OH2  518   6.092   0.804   1.642
  214TIP3    H1  519   6.160   0.753   1.598
  214TIP3    H2  520   6.140   0.867   1.696
  215TIP3   OH2  521   5.175   0.696   1.706
  215TIP3    H1  522   5.083   0.719   1.694
  215TIP3    H2  523   5.205   0.752   1.777
  216TIP3   OH2  524   5.377   0.640   1.532
  216TIP3    H1  525   5.303   0.658   1.591
  216TIP3    H2  526   5.360   0.694   1.455
  217TIP3   OH2  527   5.824   0.697   1.313
  217TIP3    H1  528   5.751   0.729   1.259
  217TIP3    H2  529   5.846   0.772   1.369
  218TIP3   OH2  530   6.085   0.633   1.254
  218TIP3    H1  531   5.991   0.652   1.251
  218TIP3    H2  532   6.093   0.564   1.321
  219TIP3   OH2  533   6.284   0.819   1.270
  219TIP3    H1  534   6.261   0.898   1.220
  219TIP3    H2  535   6.216   0.755   1.247
  220TIP3   OH2  536   5.119   0.381   1.425
  220TIP3    H1  537   5.169   0.374   1.506
  220TIP3    H2  538   5.162   0.320   1.365
  221TIP3   OH2  539   5.217   0.218   1.240
  221TIP3    H1  540   5.199   0.124   1.232
  221TIP3    H2  541   5.304   0.228   1.203
  222TIP3   OH2  542   5.563   0.522   1.259
  222TIP3    H1  543   5.546   0.432   1.230
  222TIP3    H2  544   5.619   0.513   1.336
  223TIP3   OH2  545   6.541   0.689   1.689
  223TIP3    H1  546   6.476   0.663   1.624
  223TIP3    H2  547   6.540   0.784   1.687
  224TIP3   OH2  548   6.969   0.913   1.563
  224TIP3    H1  549   7.045   0.924   1.620
  224TIP3    H2  550   6.955   0.818   1.559
  225TIP3   OH2  551   2.653   1.548   2.111
  225TIP3    H1  552   2.565   1.514   2.092
  225TIP3    H2  553   2.663   1.623   2.054
  226TIP3   OH2  554   2.838   1.863   2.243
  226TIP3    H1  555   2.843   1.771   2.268
  226TIP3    H2  556   2.770   1.899   2.300
  227TIP3   OH2  557   2.565   2.244   2.348
  227TIP3    H1  558   2.552   2.268   2.256
  227TIP3    H2  559   2.651   2.279   2.370
  228TIP3   OH2  560   2.877   1.580   2.260
  228TIP3    H1  561   2.791   1.571   2.219
  228TIP3    H2  562   2.940   1.573   2.188
  229TIP3   OH2  563   2.384   1.908   2.194
  229TIP3    H1  564   2.340   1.868   2.270
  229TIP3    H2  565   2.320   1.970   2.159
  230TIP3   OH2  566   1.617   1.958   2.783
  230TIP3    H1  567   1.702   1.983   2.819
  230TIP3    H2  568   1.633   1.876   2.737
  231TIP3   OH2  569   2.297   1.833   2.456
  231TIP3    H1  570   2.269   1.757   2.507
  231TIP3    H2  571   2.368   1.871   2.507
  232TIP3   OH2  572   2.305   1.404   2.722
  232TIP3    H1  573   2.387   1.375   2.682
  232TIP3    H2  574   2.284   1.336   2.785
  233TIP3   OH2  575   2.550   1.067   2.795
  233TIP3    H1  576   2.617   1.007   2.760
  233TIP3    H2  577   2.583   1.154   2.773
  234TIP3   OH2  578   2.528   1.351   2.489
  234TIP3    H1  579   2.463   1.365   2.420
  234TIP3    H2  580   2.611   1.346   2.442
  235TIP3   OH2  581   2.592   1.914   1.672
  235TIP3    H1  582   2.635   1.950   1.749
  235TIP3    H2  583   2.645   1.944   1.598
  236TIP3   OH2  584   2.655   2.053   2.077
  236TIP3    H1  585   2.576   2.021   2.034
  236TIP3    H2  586   2.691   1.976   2.121
  237TIP3   OH2  587   2.736   1.684   2.567
  237TIP3    H1  588   2.664   1.688   2.630
  237TIP3    H2  589   2.780   1.769   2.575
  238TIP3   OH2  590   2.418   1.754   1.964
  238TIP3    H1  591   2.420   1.809   2.043
  238TIP3    H2  592   2.325   1.747   1.942
  239TIP3   OH2  593   2.775   1.336   2.373
  239TIP3    H1  594   2.833   1.260   2.368
  239TIP3    H2  595   2.817   1.402   2.318
  240TIP3   OH2  596   2.958   1.132   2.399
  240TIP3    H1  597   2.946   1.128   2.494
  240TIP3    H2  598   3.030   1.072   2.381
  241TIP3   OH2  599   3.211   0.626   2.649
  241TIP3    H1  600   3.218   0.541   2.693
  241TIP3    H2  601   3.273   0.620   2.576
  242TIP3   OH2  602   1.902   2.001   2.435
  242TIP3    H1  603   1.936   1.952   2.510
  242TIP3    H2  604   1.981   2.028   2.387
  243TIP3   OH2  605   2.157   2.050   2.353
  243TIP3    H1  606   2.198   1.974   2.393
  243TIP3    H2  607   2.208   2.125   2.387
  244TIP3   OH2  608   2.434   2.074   1.912
  244TIP3    H1  609   2.351   2.079   1.957
  244TIP3    H2  610   2.411   2.057   1.820
  245TIP3   OH2  611   2.606   1.966   2.354
  245TIP3    H1  612   2.535   1.937   2.297
  245TIP3    H2  613   2.600   2.061   2.353
  246TIP3   OH2  614   4.004   1.522   1.411
  246TIP3    H1  615   4.000   1.574   1.491
  246TIP3    H2  616   3.994   1.431   1.441
  247TIP3   OH2  617   3.105   1.298   1.892
  247TIP3    H1  618   3.146   1.232   1.947
  247TIP3    H2  619   3.177   1.344   1.850
  248TIP3   OH2  620   4.060   1.585   1.154
  248TIP3    H1  621   4.030   1.576   1.244
  248TIP3    H2  622   4.155   1.598   1.162
  249TIP3   OH2  623   3.166   1.571   1.595
  249TIP3    H1  624   3.103   1.524   1.540
  249TIP3    H2  625   3.198   1.504   1.657
  250TIP3   OH2  626   3.680   2.142   1.266
  250TIP3    H1  627   3.651   2.071   1.210
  250TIP3    H2  628   3.772   2.156   1.243
  251TIP3   OH2  629   3.743   1.443   1.589
  251TIP3    H1  630   3.758   1.417   1.498
  251TIP3    H2  631   3.811   1.508   1.607
  252TIP3   OH2  632   4.710   0.914   1.567
  252TIP3    H1  633   4.727   0.996   1.612
  252TIP3    H2  634   4.676   0.939   1.481
  253TIP3   OH2  635   3.981   0.983   1.638
  253TIP3    H1  636   4.038   0.966   1.713
  253TIP3    H2  637   4.041   0.997   1.565
  254TIP3   OH2  638   4.780   1.143   1.711
  254TIP3    H1  639   4.696   1.189   1.714
  254TIP3    H2  640   4.826   1.172   1.790
  255TIP3   OH2  641   3.762   1.575   0.996
  255TIP3    H1  642   3.768   1.598   0.904
  255TIP3    H2  643   3.806   1.647   1.042
  256TIP3   OH2  644   3.559   1.532   1.771
  256TIP3    H1  645   3.505   1.598   1.727
  256TIP3    H2  646   3.628   1.512   1.707
  257TIP3   OH2  647   4.291   0.904   1.246
  257TIP3    H1  648   4.323   0.814   1.247
  257TIP3    H2  649   4.218   0.902   1.183
  258TIP3   OH2  650   3.278   1.711   1.898
  258TIP3    H1  651   3.292   1.777   1.831
  258TIP3    H2  652   3.257   1.761   1.977
  259TIP3   OH2  653   4.228   1.935   1.364
  259TIP3    H1  654   4.153   1.907   1.416
  259TIP3    H2  655   4.203   2.021   1.330
  260TIP3   OH2  656   4.496   0.840   1.729
  260TIP3    H1  657   4.420   0.800   1.688
  260TIP3    H2  658   4.559   0.850   1.657
  261TIP3   OH2  659   3.889   1.824   1.019
  261TIP3    H1  660   3.971   1.840   1.066
  261TIP3    H2  661   3.889   1.890   0.949
  262TIP3   OH2  662   4.067   1.645   0.881
  262TIP3    H1  663   3.980   1.676   0.858
  262TIP3    H2  664   4.066   1.641   0.977
  263TIP3   OH2  665   4.431   1.783   1.663
  263TIP3    H1  666   4.409   1.728   1.588
  263TIP3    H2  667   4.426   1.873   1.630
  264TIP3   OH2  668   4.593   1.476   1.531
  264TIP3    H1  669   4.519   1.533   1.511
  264TIP3    H2  670   4.635   1.461   1.447
  265TIP3   OH2  671   4.239   1.323   1.908
  265TIP3    H1  672   4.270   1.409   1.937
  265TIP3    H2  673   4.158   1.342   1.860
  266TIP3   OH2  674   3.497   1.760   1.308
  266TIP3    H1  675   3.477   1.706   1.231
  266TIP3    H2  676   3.541   1.700   1.368
  267TIP3   OH2  677   3.279   1.139   1.622
  267TIP3    H1  678   3.313   1.067   1.569
  267TIP3    H2  679   3.343   1.209   1.611
  268TIP3   OH2  680   4.031   1.864   1.534
  268TIP3    H1  681   3.988   1.945   1.561
  268TIP3    H2  682   3.993   1.796   1.590
  269TIP3   OH2  683   3.535   1.796   1.986
  269TIP3    H1  684   3.474   1.860   2.022
  269TIP3    H2  685   3.480   1.732   1.941
  270TIP3   OH2  686   3.351   1.361   2.102
  270TIP3    H1  687   3.358   1.451   2.135
  270TIP3    H2  688   3.268   1.329   2.138
  271TIP3   OH2  689   3.586   1.764   0.846
  271TIP3    H1  690   3.639   1.843   0.848
  271TIP3    H2  691   3.499   1.792   0.875
  272TIP3   OH2  692   3.317   1.955   2.066
  272TIP3    H1  693   3.269   2.004   1.999
  272TIP3    H2  694   3.251   1.937   2.134
  273TIP3   OH2  695   4.195   1.749   0.305
  273TIP3    H1  696   4.196   1.836   0.264
  273TIP3    H2  697   4.266   1.701   0.262
  274TIP3   OH2  698   4.653   2.191   1.716
  274TIP3    H1  699   4.659   2.096   1.720
  274TIP3    H2  700   4.569   2.212   1.758
  275TIP3   OH2  701   3.769   1.909   1.900
  275TIP3    H1  702   3.751   2.003   1.901
  275TIP3    H2  703   3.686   1.868   1.922
  276TIP3   OH2  704   3.450   2.089   0.826
  276TIP3    H1  705   3.511   2.035   0.776
  276TIP3    H2  706   3.432   2.164   0.769
  277TIP3   OH2  707   3.768   1.878   0.541
  277TIP3    H1  708   3.786   1.889   0.634
  277TIP3    H2  709   3.853   1.858   0.502
  278TIP3   OH2  710   4.537   1.290   2.004
  278TIP3    H1  711   4.503   1.301   1.915
  278TIP3    H2  712   4.559   1.197   2.010
  279TIP3   OH2  713   3.069   1.562   2.060
  279TIP3    H1  714   3.152   1.569   2.107
  279TIP3    H2  715   3.056   1.649   2.022
  280TIP3   OH2  716   4.039   0.669   2.052
  280TIP3    H1  717   4.107   0.630   2.107
  280TIP3    H2  718   3.958   0.625   2.079
  281TIP3   OH2  719   4.283   1.064   1.962
  281TIP3    H1  720   4.241   1.042   2.045
  281TIP3    H2  721   4.270   1.159   1.953
  282TIP3   OH2  722   3.483   1.019   1.816
  282TIP3    H1  723   3.433   1.060   1.887
  282TIP3    H2  724   3.486   1.086   1.748
  283TIP3   OH2  725   4.014   1.256   2.137
  283TIP3    H1  726   3.980   1.192   2.200
  283TIP3    H2  727   4.107   1.264   2.158
  284TIP3   OH2  728   3.300   1.108   1.997
  284TIP3    H1  729   3.334   1.189   2.035
  284TIP3    H2  730   3.241   1.073   2.063
  285TIP3   OH2  731   3.993   1.344   1.788
  285TIP3    H1  732   3.998   1.336   1.693
  285TIP3    H2  733   3.985   1.254   1.820
  286TIP3   OH2  734   4.245   0.777   1.641
  286TIP3    H1  735   4.179   0.799   1.706
  286TIP3    H2  736   4.196   0.739   1.568
  287TIP3   OH2  737   4.347   2.511   1.790
  287TIP3    H1  738   4.339   2.526   1.696
  287TIP3    H2  739   4.427   2.556   1.815
  288TIP3   OH2  740   3.292   1.602   2.228
  288TIP3    H1  741   3.375   1.625   2.268
  288TIP3    H2  742   3.229   1.605   2.300
  289TIP3   OH2  743   3.820   1.109   1.398
  289TIP3    H1  744   3.787   1.025   1.365
  289TIP3    H2  745   3.802   1.108   1.492
  290TIP3   OH2  746   3.749   0.946   1.901
  290TIP3    H1  747   3.680   0.995   1.855
  290TIP3    H2  748   3.822   1.008   1.907
  291TIP3   OH2  749   4.382   1.628   1.446
  291TIP3    H1  750   4.424   1.688   1.383
  291TIP3    H2  751   4.331   1.569   1.392
  292TIP3   OH2  752   3.865   1.642   1.917
  292TIP3    H1  753   3.924   1.630   1.992
  292TIP3    H2  754   3.839   1.734   1.923
  293TIP3   OH2  755   3.118   1.235   2.184
  293TIP3    H1  756   3.162   1.253   2.267
  293TIP3    H2  757   3.026   1.220   2.208
  294TIP3   OH2  758   3.784   1.415   2.168
  294TIP3    H1  759   3.720   1.351   2.136
  294TIP3    H2  760   3.869   1.380   2.139
  295TIP3   OH2  761   4.024   1.956   1.808
  295TIP3    H1  762   3.934   1.928   1.827
  295TIP3    H2  763   4.051   2.005   1.886
  296TIP3   OH2  764   4.673   1.917   1.735
  296TIP3    H1  765   4.587   1.882   1.759
  296TIP3    H2  766   4.694   1.872   1.653
  297TIP3   OH2  767   4.048   1.873   0.512
  297TIP3    H1  768   4.079   1.789   0.546
  297TIP3    H2  769   4.073   1.873   0.420
  298TIP3   OH2  770   4.253   1.427   1.317
  298TIP3    H1  771   4.170   1.459   1.353
  298TIP3    H2  772   4.229   1.347   1.270
  299TIP3   OH2  773   3.561   2.072   1.721
  299TIP3    H1  774   3.618   2.051   1.647
  299TIP3    H2  775   3.615   2.125   1.779
  300TIP3   OH2  776   3.964   1.619   1.664
  300TIP3    H1  777   3.912   1.620   1.744
  300TIP3    H2  778   4.054   1.628   1.694
  301TIP3   OH2  779   4.174   2.178   1.658
  301TIP3    H1  780   4.102   2.115   1.665
  301TIP3    H2  781   4.150   2.234   1.584
  302TIP3   OH2  782   4.171   2.008   0.242
  302TIP3    H1  783   4.211   2.095   0.243
  302TIP3    H2  784   4.076   2.025   0.241
  303TIP3   OH2  785   4.042   1.401   0.706
  303TIP3    H1  786   4.034   1.453   0.786
  303TIP3    H2  787   4.076   1.461   0.640
  304TIP3   OH2  788   2.994   1.813   1.966
  304TIP3    H1  789   2.975   1.802   1.872
  304TIP3    H2  790   2.912   1.846   2.003
  305TIP3   OH2  791   4.106   0.868   1.872
  305TIP3    H1  792   4.182   0.914   1.905
  305TIP3    H2  793   4.087   0.802   1.939
  306TIP3   OH2  794   3.967   1.106   1.914
  306TIP3    H1  795   3.984   1.158   1.993
  306TIP3    H2  796   4.023   1.029   1.923
  307TIP3   OH2  797   4.548   1.021   1.928
  307TIP3    H1  798   4.456   1.030   1.951
  307TIP3    H2  799   4.549   0.957   1.857
  308TIP3   OH2  800   4.135   1.198   1.225
  308TIP3    H1  801   4.056   1.168   1.180
  308TIP3    H2  802   4.145   1.138   1.299
  309TIP3   OH2  803   4.223   2.182   1.241
  309TIP3    H1  804   4.182   2.223   1.166
  309TIP3    H2  805   4.317   2.184   1.222
  310TIP3   OH2  806   2.976   2.176   2.237
  310TIP3    H1  807   3.059   2.174   2.284
  310TIP3    H2  808   2.961   2.085   2.211
  311TIP3   OH2  809   3.445   2.121   2.251
  311TIP3    H1  810   3.536   2.092   2.262
  311TIP3    H2  811   3.411   2.067   2.179
  312TIP3   OH2  812   4.075   2.079   2.045
  312TIP3    H1  813   4.091   2.004   2.103
  312TIP3    H2  814   4.154   2.133   2.054
  313TIP3   OH2  815   3.099   1.601   2.428
  313TIP3    H1  816   3.106   1.532   2.494
  313TIP3    H2  817   3.011   1.589   2.391
  314TIP3   OH2  818   3.711   1.692   2.176
  314TIP3    H1  819   3.663   1.711   2.095
  314TIP3    H2  820   3.750   1.605   2.161
  315TIP3   OH2  821   4.186   1.731   1.783
  315TIP3    H1  822   4.268   1.756   1.741
  315TIP3    H2  823   4.135   1.812   1.788
  316TIP3   OH2  824   3.271   1.292   2.397
  316TIP3    H1  825   3.355   1.248   2.414
  316TIP3    H2  826   3.253   1.340   2.477
  317TIP3   OH2  827   3.585   1.223   2.062
  317TIP3    H1  828   3.510   1.281   2.074
  317TIP3    H2  829   3.631   1.259   1.986
  318TIP3   OH2  830   4.056   1.604   2.128
  318TIP3    H1  831   4.136   1.585   2.081
  318TIP3    H2  832   4.059   1.547   2.205
  319TIP3   OH2  833   3.635   0.995   2.202
  319TIP3    H1  834   3.621   0.914   2.152
  319TIP3    H2  835   3.619   1.065   2.139
  320TIP3   OH2  836   3.619   0.749   2.028
  320TIP3    H1  837   3.676   0.817   1.988
  320TIP3    H2  838   3.566   0.718   1.955
  321TIP3   OH2  839   3.732   1.346   1.874
  321TIP3    H1  840   3.823   1.373   1.862
  321TIP3    H2  841   3.681   1.425   1.858
  322TIP3   OH2  842   4.288   1.265   2.220
  322TIP3    H1  843   4.330   1.183   2.247
  322TIP3    H2  844   4.353   1.310   2.167
  323TIP3   OH2  845   4.301   1.581   1.976
  323TIP3    H1  846   4.249   1.633   1.915
  323TIP3    H2  847   4.390   1.585   1.942
  324TIP3   OH2  848   3.509   1.118   2.417
  324TIP3    H1  849   3.454   1.046   2.448
  324TIP3    H2  850   3.547   1.086   2.335
  325TIP3   OH2  851   3.793   0.547   2.094
  325TIP3    H1  852   3.728   0.616   2.078
  325TIP3    H2  853   3.753   0.468   2.060
  326TIP3   OH2  854   3.898   1.052   2.283
  326TIP3    H1  855   3.892   1.039   2.377
  326TIP3    H2  856   3.812   1.028   2.249
  327TIP3   OH2  857   4.143   0.976   2.173
  327TIP3    H1  858   4.061   0.987   2.221
  327TIP3    H2  859   4.209   0.964   2.241
  328TIP3   OH2  860   4.399   0.975   2.298
  328TIP3    H1  861   4.413   0.881   2.303
  328TIP3    H2  862   4.397   1.004   2.390
  329TIP3   OH2  863   3.386   0.880   2.492
  329TIP3    H1  864   3.394   0.793   2.454
  329TIP3    H2  865   3.422   0.872   2.580
  330TIP3   OH2  866   3.861   0.536   2.358
  330TIP3    H1  867   3.928   0.468   2.353
  330TIP3    H2  868   3.828   0.543   2.268
  331TIP3   OH2  869   3.944   0.772   2.473
  331TIP3    H1  870   3.916   0.693   2.426
  331TIP3    H2  871   3.866   0.827   2.475
  332TIP3   OH2  872   4.494   2.225   1.213
  332TIP3    H1  873   4.503   2.248   1.305
  332TIP3    H2  874   4.537   2.297   1.166
  333TIP3   OH2  875   4.501   2.274   1.486
  333TIP3    H1  876   4.463   2.188   1.506
  333TIP3    H2  877   4.579   2.279   1.540
  334TIP3   OH2  878   4.533   1.948   2.029
  334TIP3    H1  879   4.462   1.954   2.093
  334TIP3    H2  880   4.581   2.030   2.038
  335TIP3   OH2  881   4.383   1.522   0.709
  335TIP3    H1  882   4.413   1.474   0.632
  335TIP3    H2  883   4.396   1.462   0.782
  336TIP3   OH2  884   4.521   1.323   0.846
  336TIP3    H1  885   4.534   1.346   0.938
  336TIP3    H2  886   4.603   1.347   0.803
  337TIP3   OH2  887   4.566   1.763   1.302
  337TIP3    H1  888   4.617   1.692   1.265
  337TIP3    H2  889   4.575   1.834   1.238
  338TIP3   OH2  890   4.389   2.033   1.556
  338TIP3    H1  891   4.316   2.076   1.601
  338TIP3    H2  892   4.349   1.992   1.479
  339TIP3   OH2  893   4.338   1.151   1.005
  339TIP3    H1  894   4.242   1.154   1.004
  339TIP3    H2  895   4.360   1.149   1.098
  340TIP3   OH2  896   4.546   1.605   1.854
  340TIP3    H1  897   4.619   1.549   1.829
  340TIP3    H2  898   4.525   1.654   1.775
  341TIP3   OH2  899   4.752   1.417   1.872
  341TIP3    H1  900   4.683   1.379   1.926
  341TIP3    H2  901   4.831   1.368   1.896
  342TIP3   OH2  902   4.449   1.125   1.251
  342TIP3    H1  903   4.530   1.073   1.256
  342TIP3    H2  904   4.379   1.060   1.257
  343TIP3   OH2  905   4.516   1.295   1.728
  343TIP3    H1  906   4.504   1.222   1.667
  343TIP3    H2  907   4.551   1.366   1.674
  344TIP3   OH2  908   3.126   0.883   2.406
  344TIP3    H1  909   3.215   0.901   2.438
  344TIP3    H2  910   3.073   0.878   2.485
  345TIP3   OH2  911   4.965   0.812   2.177
  345TIP3    H1  912   5.026   0.755   2.131
  345TIP3    H2  913   4.933   0.873   2.110
  346TIP3   OH2  914   4.824   0.979   2.011
  346TIP3    H1  915   4.750   1.014   2.061
  346TIP3    H2  916   4.784   0.914   1.953
  347TIP3   OH2  917   4.012   2.077   0.917
  347TIP3    H1  918   4.002   2.093   0.823
  347TIP3    H2  919   4.107   2.082   0.932
  348TIP3   OH2  920   3.114   1.912   2.245
  348TIP3    H1  921   3.023   1.883   2.232
  348TIP3    H2  922   3.127   1.910   2.340
  349TIP3   OH2  923   3.336   1.921   1.735
  349TIP3    H1  924   3.266   1.979   1.765
  349TIP3    H2  925   3.414   1.976   1.736
  350TIP3   OH2  926   3.731   2.194   1.900
  350TIP3    H1  927   3.762   2.192   1.990
  350TIP3    H2  928   3.795   2.248   1.853
  351TIP3   OH2  929   3.931   2.351   1.793
  351TIP3    H1  930   3.995   2.303   1.740
  351TIP3    H2  931   3.984   2.410   1.847
  352TIP3   OH2  932   4.715   0.748   1.894
  352TIP3    H1  933   4.636   0.750   1.841
  352TIP3    H2  934   4.731   0.654   1.910
  353TIP3   OH2  935   3.029   2.404   1.848
  353TIP3    H1  936   2.942   2.387   1.813
  353TIP3    H2  937   3.019   2.395   1.943
  354TIP3   OH2  938   3.231   2.294   1.695
  354TIP3    H1  939   3.170   2.324   1.762
  354TIP3    H2  940   3.186   2.312   1.612
  355TIP3   OH2  941   3.696   2.266   1.519
  355TIP3    H1  942   3.647   2.276   1.438
  355TIP3    H2  943   3.697   2.354   1.557
  356TIP3   OH2  944   3.927   2.124   1.516
  356TIP3    H1  945   3.840   2.163   1.525
  356TIP3    H2  946   3.977   2.188   1.466
  357TIP3   OH2  947   4.107   2.328   1.436
  357TIP3    H1  948   4.089   2.415   1.399
  357TIP3    H2  949   4.146   2.280   1.363
  358TIP3   OH2  950   2.822   1.949   1.529
  358TIP3    H1  951   2.857   1.907   1.608
  358TIP3    H2  952   2.869   1.908   1.457
  359TIP3   OH2  953   2.979   1.750   1.424
  359TIP3    H1  954   3.073   1.767   1.427
  359TIP3    H2  955   2.964   1.715   1.336
  360TIP3   OH2  956   3.390   2.023   1.268
  360TIP3    H1  957   3.420   1.933   1.275
  360TIP3    H2  958   3.384   2.054   1.359
  361TIP3   OH2  959   4.427   0.464   1.436
  361TIP3    H1  960   4.486   0.419   1.376
  361TIP3    H2  961   4.340   0.429   1.416
  362TIP3   OH2  962   4.562   0.682   1.130
  362TIP3    H1  963   4.559   0.609   1.192
  362TIP3    H2  964   4.654   0.687   1.103
  363TIP3   OH2  965   4.250   2.138   0.540
  363TIP3    H1  966   4.220   2.083   0.612
  363TIP3    H2  967   4.172   2.156   0.489
  364TIP3   OH2  968   3.390   0.615   2.417
  364TIP3    H1  969   3.365   0.524   2.432
  364TIP3    H2  970   3.484   0.617   2.435
  365TIP3   OH2  971   3.644   0.600   2.525
  365TIP3    H1  972   3.722   0.576   2.474
  365TIP3    H2  973   3.631   0.527   2.585
  366TIP3   OH2  974   4.455   0.706   2.310
  366TIP3    H1  975   4.476   0.677   2.399
  366TIP3    H2  976   4.538   0.704   2.264
  367TIP3   OH2  977   4.398   2.243   1.811
  367TIP3    H1  978   4.320   2.208   1.767
  367TIP3    H2  979   4.382   2.337   1.815
  368TIP3   OH2  980   5.651   1.658   0.583
  368TIP3    H1  981   5.621   1.736   0.535
  368TIP3    H2  982   5.620   1.671   0.672
  369TIP3   OH2  983   5.661   1.593   0.948
  369TIP3    H1  984   5.710   1.589   1.030
  369TIP3    H2  985   5.629   1.503   0.936
  370TIP3   OH2  986   4.989   1.429   1.270
  370TIP3    H1  987   5.007   1.362   1.336
  370TIP3    H2  988   5.036   1.506   1.302
  371TIP3   OH2  989   5.916   1.914   0.624
  371TIP3    H1  990   5.910   1.847   0.692
  371TIP3    H2  991   5.940   1.994   0.671
  372TIP3   OH2  992   4.962   1.943   1.014
  372TIP3    H1  993   4.947   1.868   1.073
  372TIP3    H2  994   5.054   1.936   0.990
  373TIP3   OH2  995   4.639   1.074   0.886
  373TIP3    H1  996   4.562   1.131   0.884
  373TIP3    H2  997   4.603   0.986   0.899
  374TIP3   OH2  998   4.808   1.426   1.012
  374TIP3    H1  999   4.741   1.364   1.043
  374TIP3    H2 1000   4.796   1.427   0.916
  375TIP3   OH2 1001   5.595   2.341   0.643
  375TIP3    H1 1002   5.624   2.274   0.580
  375TIP3    H2 1003   5.588   2.294   0.726
  376TIP3   OH2 1004   5.478   1.814   0.961
  376TIP3    H1 1005   5.523   1.732   0.942
  376TIP3    H2 1006   5.547   1.874   0.991
  377TIP3   OH2 1007   6.425   1.191   0.993
  377TIP3    H1 1008   6.479   1.240   1.055
  377TIP3    H2 1009   6.438   1.235   0.909
  378TIP3   OH2 1010   5.889   1.335   1.018
  378TIP3    H1 1011   5.929   1.252   1.044
  378TIP3    H2 1012   5.862   1.321   0.927
  379TIP3   OH2 1013   5.217   0.972   0.907
  379TIP3    H1 1014   5.254   1.042   0.853
  379TIP3    H2 1015   5.187   0.906   0.844
  380TIP3   OH2 1016   4.778   1.152   1.106
  380TIP3    H1 1017   4.818   1.072   1.140
  380TIP3    H2 1018   4.725   1.124   1.033
  381TIP3   OH2 1019   5.307   1.419   0.880
  381TIP3    H1 1020   5.397   1.395   0.899
  381TIP3    H2 1021   5.277   1.352   0.818
  382TIP3   OH2 1022   6.552   1.370   1.164
  382TIP3    H1 1023   6.464   1.408   1.162
  382TIP3    H2 1024   6.592   1.405   1.243
  383TIP3   OH2 1025   5.266   1.041   1.479
  383TIP3    H1 1026   5.216   1.078   1.406
  383TIP3    H2 1027   5.202   1.036   1.550
  384TIP3   OH2 1028   5.563   1.850   0.408
  384TIP3    H1 1029   5.532   1.819   0.323
  384TIP3    H2 1030   5.502   1.921   0.431
  385TIP3   OH2 1031   5.323   1.758   1.184
  385TIP3    H1 1032   5.267   1.829   1.214
  385TIP3    H2 1033   5.370   1.793   1.109
  386TIP3   OH2 1034   5.150   1.054   1.226
  386TIP3    H1 1035   5.179   1.145   1.229
  386TIP3    H2 1036   5.185   1.020   1.144
  387TIP3   OH2 1037   5.148   1.950   1.273
  387TIP3    H1 1038   5.135   2.039   1.243
  387TIP3    H2 1039   5.073   1.933   1.331
  388TIP3   OH2 1040   4.643   1.631   0.472
  388TIP3    H1 1041   4.587   1.553   0.467
  388TIP3    H2 1042   4.622   1.669   0.557
  389TIP3   OH2 1043   5.956   2.157   0.764
  389TIP3    H1 1044   5.870   2.149   0.805
  389TIP3    H2 1045   5.955   2.243   0.722
  390TIP3   OH2 1046   6.232   1.057   1.142
  390TIP3    H1 1047   6.145   1.070   1.105
  390TIP3    H2 1048   6.291   1.098   1.079
  391TIP3   OH2 1049   5.596   0.775   1.168
  391TIP3    H1 1050   5.584   0.681   1.183
  391TIP3    H2 1051   5.530   0.816   1.223
  392TIP3   OH2 1052   5.685   2.172   0.438
  392TIP3    H1 1053   5.737   2.093   0.424
  392TIP3    H2 1054   5.743   2.244   0.412
  393TIP3   OH2 1055   5.823   1.934   0.369
  393TIP3    H1 1056   5.736   1.897   0.384
  393TIP3    H2 1057   5.868   1.924   0.453
  394TIP3   OH2 1058   6.198   2.041   1.111
  394TIP3    H1 1059   6.179   1.967   1.053
  394TIP3    H2 1060   6.184   2.118   1.056
  395TIP3   OH2 1061   5.534   1.475   0.412
  395TIP3    H1 1062   5.453   1.523   0.396
  395TIP3    H2 1063   5.590   1.537   0.457
  396TIP3   OH2 1064   6.376   1.710   0.974
  396TIP3    H1 1065   6.291   1.753   0.967
  396TIP3    H2 1066   6.412   1.712   0.885
  397TIP3   OH2 1067   5.851   1.549   0.428
  397TIP3    H1 1068   5.789   1.591   0.487
  397TIP3    H2 1069   5.927   1.529   0.483
  398TIP3   OH2 1070   6.071   1.574   1.300
  398TIP3    H1 1071   6.067   1.657   1.347
  398TIP3    H2 1072   5.990   1.572   1.249
  399TIP3   OH2 1073   5.048   1.539   0.898
  399TIP3    H1 1074   5.006   1.584   0.825
  399TIP3    H2 1075   5.134   1.514   0.864
  400TIP3   OH2 1076   5.218   1.934   0.901
  400TIP3    H1 1077   5.185   1.919   0.812
  400TIP3    H2 1078   5.305   1.894   0.901
  401TIP3   OH2 1079   5.222   1.514   1.124
  401TIP3    H1 1080   5.259   1.489   1.040
  401TIP3    H2 1081   5.268   1.593   1.149
  402TIP3   OH2 1082   5.721   2.147   0.900
  402TIP3    H1 1083   5.710   2.229   0.947
  402TIP3    H2 1084   5.706   2.079   0.966
  403TIP3   OH2 1085   5.349   2.044   1.443
  403TIP3    H1 1086   5.290   2.102   1.490
  403TIP3    H2 1087   5.292   1.993   1.385
  404TIP3   OH2 1088   5.100   1.620   1.548
  404TIP3    H1 1089   5.104   1.709   1.583
  404TIP3    H2 1090   5.012   1.590   1.570
  405TIP3   OH2 1091   5.424   2.084   0.466
  405TIP3    H1 1092   5.511   2.124   0.463
  405TIP3    H2 1093   5.368   2.144   0.418
  406TIP3   OH2 1094   5.144   2.204   1.528
  406TIP3    H1 1095   5.115   2.216   1.437
  406TIP3    H2 1096   5.063   2.188   1.576
  407TIP3   OH2 1097   5.082   1.447   0.622
  407TIP3    H1 1098   4.989   1.448   0.646
  407TIP3    H2 1099   5.115   1.367   0.664
  408TIP3   OH2 1100   4.743   1.775   1.513
  408TIP3    H1 1101   4.678   1.760   1.445
  408TIP3    H2 1102   4.773   1.687   1.537
  409TIP3   OH2 1103   4.616   1.984   1.146
  409TIP3    H1 1104   4.704   2.013   1.171
  409TIP3    H2 1105   4.559   2.055   1.175
  410TIP3   OH2 1106   6.423   2.407   1.187
  410TIP3    H1 1107   6.429   2.312   1.201
  410TIP3    H2 1108   6.344   2.433   1.234
  411TIP3   OH2 1109   5.536   2.195   1.310
  411TIP3    H1 1110   5.525   2.285   1.342
  411TIP3    H2 1111   5.470   2.145   1.358
  412TIP3   OH2 1112   5.322   2.305   0.283
  412TIP3    H1 1113   5.280   2.289   0.198
  412TIP3    H2 1114   5.293   2.393   0.308
  413TIP3   OH2 1115   4.778   2.182   0.640
  413TIP3    H1 1116   4.818   2.184   0.727
  413TIP3    H2 1117   4.749   2.091   0.629
  414TIP3   OH2 1118   8.792   6.862   7.914
  414TIP3    H1 1119   8.854   6.807   7.867
  414TIP3    H2 1120   8.825   6.865   8.003
  415TIP3   OH2 1121   5.575   2.274   0.184
  415TIP3    H1 1122   5.488   2.272   0.223
  415TIP3    H2 1123   5.631   2.232   0.249
  416TIP3   OH2 1124   6.315   1.520   1.450
  416TIP3    H1 1125   6.231   1.536   1.408
  416TIP3    H2 1126   6.333   1.427   1.435
  417TIP3   OH2 1127   4.938   1.958   1.452
  417TIP3    H1 1128   4.991   1.953   1.532
  417TIP3    H2 1129   4.866   1.897   1.467
  418TIP3   OH2 1130   5.381   0.833   1.333
  418TIP3    H1 1131   5.322   0.821   1.258
  418TIP3    H2 1132   5.337   0.897   1.388
  419TIP3   OH2 1133   5.874   0.896   1.494
  419TIP3    H1 1134   5.948   0.869   1.549
  419TIP3    H2 1135   5.796   0.870   1.543
  420TIP3   OH2 1136   6.058   1.304   1.375
  420TIP3    H1 1137   6.030   1.300   1.466
  420TIP3    H2 1138   6.054   1.397   1.353
  421TIP3   OH2 1139   5.276   1.293   1.278
  421TIP3    H1 1140   5.270   1.330   1.366
  421TIP3    H2 1141   5.250   1.365   1.220
  422TIP3   OH2 1142   5.160   1.219   0.751
  422TIP3    H1 1143   5.077   1.173   0.762
  422TIP3    H2 1144   5.211   1.162   0.693
  423TIP3   OH2 1145   5.632   1.272   0.564
  423TIP3    H1 1146   5.570   1.338   0.534
  423TIP3    H2 1147   5.705   1.277   0.503
  424TIP3   OH2 1148   5.806   1.516   1.599
  424TIP3    H1 1149   5.778   1.448   1.661
  424TIP3    H2 1150   5.899   1.529   1.617
  425TIP3   OH2 1151   5.818   1.260   0.763
  425TIP3    H1 1152   5.739   1.271   0.710
  425TIP3    H2 1153   5.819   1.167   0.785
  426TIP3   OH2 1154   5.063   1.288   1.489
  426TIP3    H1 1155   5.121   1.338   1.547
  426TIP3    H2 1156   5.046   1.207   1.537
  427TIP3   OH2 1157   4.823   0.723   1.043
  427TIP3    H1 1158   4.850   0.791   1.103
  427TIP3    H2 1159   4.818   0.766   0.957
  428TIP3   OH2 1160   5.811   1.531   1.182
  428TIP3    H1 1161   5.846   1.466   1.120
  428TIP3    H2 1162   5.776   1.479   1.254
  429TIP3   OH2 1163   5.592   1.066   0.856
  429TIP3    H1 1164   5.529   1.000   0.827
  429TIP3    H2 1165   5.655   1.018   0.909
  430TIP3   OH2 1166   4.924   1.094   0.832
  430TIP3    H1 1167   4.837   1.131   0.847
  430TIP3    H2 1168   4.908   1.000   0.819
  431TIP3   OH2 1169   5.063   0.938   0.588
  431TIP3    H1 1170   5.150   0.973   0.570
  431TIP3    H2 1171   5.003   1.010   0.565
  432TIP3   OH2 1172   5.950   1.069   1.072
  432TIP3    H1 1173   5.915   1.079   1.161
  432TIP3    H2 1174   5.898   0.999   1.033
  433TIP3   OH2 1175   6.141   2.751   1.273
  433TIP3    H1 1176   6.139   2.764   1.179
  433TIP3    H2 1177   6.221   2.795   1.302
  434TIP3   OH2 1178   5.090   1.869   1.679
  434TIP3    H1 1179   5.172   1.884   1.726
  434TIP3    H2 1180   5.022   1.875   1.746
  435TIP3   OH2 1181   5.554   1.325   0.955
  435TIP3    H1 1182   5.574   1.244   0.906
  435TIP3    H2 1183   5.557   1.299   1.047
  436TIP3   OH2 1184   5.131   0.735   0.756
  436TIP3    H1 1185   5.080   0.655   0.745
  436TIP3    H2 1186   5.111   0.787   0.678
  437TIP3   OH2 1187   5.537   1.239   1.216
  437TIP3    H1 1188   5.448   1.260   1.245
  437TIP3    H2 1189   5.593   1.289   1.275
  438TIP3   OH2 1190   5.301   1.604   0.344
  438TIP3    H1 1191   5.220   1.556   0.328
  438TIP3    H2 1192   5.285   1.654   0.424
  439TIP3   OH2 1193   6.139   1.844   0.927
  439TIP3    H1 1194   6.178   1.891   0.854
  439TIP3    H2 1195   6.060   1.804   0.891
  440TIP3   OH2 1196   5.661   1.922   1.355
  440TIP3    H1 1197   5.717   1.905   1.430
  440TIP3    H2 1198   5.627   2.010   1.369
  441TIP3   OH2 1199   4.974   1.680   1.120
  441TIP3    H1 1200   4.967   1.667   1.026
  441TIP3    H2 1201   5.068   1.688   1.136
  442TIP3   OH2 1202   5.450   1.752   0.163
  442TIP3    H1 1203   5.411   1.840   0.170
  442TIP3    H2 1204   5.392   1.696   0.215
  443TIP3   OH2 1205   4.849   1.543   1.629
  443TIP3    H1 1206   4.868   1.535   1.722
  443TIP3    H2 1207   4.772   1.488   1.615
  444TIP3   OH2 1208   5.582   1.680   1.616
  444TIP3    H1 1209   5.535   1.657   1.536
  444TIP3    H2 1210   5.666   1.633   1.608
  445TIP3   OH2 1211   5.803   2.218   1.231
  445TIP3    H1 1212   5.709   2.203   1.237
  445TIP3    H2 1213   5.827   2.253   1.317
  446TIP3   OH2 1214   6.440   2.131   1.206
  446TIP3    H1 1215   6.346   2.112   1.204
  446TIP3    H2 1216   6.473   2.101   1.121
  447TIP3   OH2 1217   5.876   2.067   0.124
  447TIP3    H1 1218   5.874   2.029   0.212
  447TIP3    H2 1219   5.828   2.005   0.070
  448TIP3   OH2 1220   5.909   1.712   0.821
  448TIP3    H1 1221   5.826   1.685   0.861
  448TIP3    H2 1222   5.945   1.630   0.786
  449TIP3   OH2 1223   5.077   1.927   0.662
  449TIP3    H1 1224   5.076   2.008   0.611
  449TIP3    H2 1225   4.985   1.902   0.668
  450TIP3   OH2 1226   4.648   1.189   0.365
  450TIP3    H1 1227   4.737   1.205   0.331
  450TIP3    H2 1228   4.662   1.138   0.445
  451TIP3   OH2 1229   5.214   1.699   0.581
  451TIP3    H1 1230   5.169   1.779   0.607
  451TIP3    H2 1231   5.155   1.629   0.607
  452TIP3   OH2 1232   5.359   2.265   1.102
  452TIP3    H1 1233   5.394   2.340   1.054
  452TIP3    H2 1234   5.432   2.235   1.156
  453TIP3   OH2 1235   5.033   2.168   0.528
  453TIP3    H1 1236   4.946   2.180   0.566
  453TIP3    H2 1237   5.068   2.256   0.518
  454TIP3   OH2 1238   5.704   1.928   1.081
  454TIP3    H1 1239   5.683   1.924   1.174
  454TIP3    H2 1240   5.794   1.896   1.075
  455TIP3   OH2 1241   5.721   1.861   0.004
  455TIP3    H1 1242   5.776   1.798   0.051
  455TIP3    H2 1243   5.632   1.838   0.031
  456TIP3   OH2 1244   5.958   2.421   1.110
  456TIP3    H1 1245   5.888   2.360   1.132
  456TIP3    H2 1246   5.922   2.476   1.041
  457TIP3   OH2 1247   9.272   6.903   7.761
  457TIP3    H1 1248   9.326   6.982   7.753
  457TIP3    H2 1249   9.190   6.935   7.799
  458TIP3   OH2 1250   5.030   1.054   1.632
  458TIP3    H1 1251   4.943   1.089   1.652
  458TIP3    H2 1252   5.026   0.963   1.662
  459TIP3   OH2 1253   5.850   1.712   0.195
  459TIP3    H1 1254   5.851   1.636   0.255
  459TIP3    H2 1255   5.865   1.787   0.252
  460TIP3   OH2 1256   4.807   2.153   1.286
  460TIP3    H1 1257   4.856   2.092   1.341
  460TIP3    H2 1258   4.817   2.238   1.329
  461TIP3   OH2 1259   8.382   6.419   7.903
  461TIP3    H1 1260   8.453   6.357   7.884
  461TIP3    H2 1261   8.375   6.419   7.998
  462TIP3   OH2 1262   5.092   1.800   0.178
  462TIP3    H1 1263   5.062   1.751   0.255
  462TIP3    H2 1264   5.098   1.890   0.209
  463TIP3   OH2 1265   4.817   1.432   0.383
  463TIP3    H1 1266   4.791   1.435   0.475
  463TIP3    H2 1267   4.769   1.505   0.343
  464TIP3   OH2 1268   5.862   1.117   1.330
  464TIP3    H1 1269   5.943   1.165   1.347
  464TIP3    H2 1270   5.865   1.042   1.391
  465TIP3   OH2 1271   5.350   1.999   0.183
  465TIP3    H1 1272   5.273   2.031   0.231
  465TIP3    H2 1273   5.332   2.020   0.091
  466TIP3   OH2 1274   5.599   1.000   0.546
  466TIP3    H1 1275   5.608   1.090   0.576
  466TIP3    H2 1276   5.607   0.947   0.625
  467TIP3   OH2 1277   5.723   1.360   1.379
  467TIP3    H1 1278   5.752   1.401   1.460
  467TIP3    H2 1279   5.770   1.277   1.376
  468TIP3   OH2 1280   5.105   2.076   0.277
  468TIP3    H1 1281   5.066   2.148   0.227
  468TIP3    H2 1282   5.085   2.097   0.368
  469TIP3   OH2 1283   6.326   1.253   1.360
  469TIP3    H1 1284   6.230   1.256   1.364
  469TIP3    H2 1285   6.345   1.187   1.293
  470TIP3   OH2 1286   6.003   1.464   0.726
  470TIP3    H1 1287   5.935   1.396   0.728
  470TIP3    H2 1288   6.064   1.439   0.796
  471TIP3   OH2 1289   4.721   1.596   0.168
  471TIP3    H1 1290   4.729   1.682   0.128
  471TIP3    H2 1291   4.800   1.549   0.142
  472TIP3   OH2 1292   5.980   2.424   0.686
  472TIP3    H1 1293   5.945   2.474   0.612
  472TIP3    H2 1294   6.075   2.433   0.677
  473TIP3   OH2 1295   5.024   0.607   1.224
  473TIP3    H1 1296   4.990   0.617   1.135
  473TIP3    H2 1297   5.111   0.569   1.213
  474TIP3   OH2 1298   4.737   1.915   0.581
  474TIP3    H1 1299   4.682   1.872   0.646
  474TIP3    H2 1300   4.683   1.918   0.502
  475TIP3   OH2 1301   4.772   2.450   1.688
  475TIP3    H1 1302   4.857   2.451   1.732
  475TIP3    H2 1303   4.741   2.360   1.698
  476TIP3   OH2 1304   5.244   2.365   1.726
  476TIP3    H1 1305   5.335   2.337   1.738
  476TIP3    H2 1306   5.212   2.313   1.653
  477TIP3   OH2 1307   8.555   6.630   7.918
  477TIP3    H1 1308   8.470   6.585   7.912
  477TIP3    H2 1309   8.619   6.562   7.896
  478TIP3   OH2 1310   5.859   2.310   1.482
  478TIP3    H1 1311   5.873   2.239   1.544
  478TIP3    H2 1312   5.933   2.370   1.497
  479TIP3   OH2 1313   8.971   6.676   7.807
  479TIP3    H1 1314   8.980   6.604   7.869
  479TIP3    H2 1315   9.061   6.707   7.793
  480TIP3   OH2 1316   4.898   1.864   1.881
  480TIP3    H1 1317   4.909   1.769   1.885
  480TIP3    H2 1318   4.813   1.876   1.839
  481TIP3   OH2 1319   4.949   1.485   0.072
  481TIP3    H1 1320   4.977   1.407   0.119
  481TIP3    H2 1321   5.030   1.522   0.036
  482TIP3   OH2 1322   5.504   1.948   1.650
  482TIP3    H1 1323   5.459   1.966   1.568
  482TIP3    H2 1324   5.545   1.862   1.637
  483TIP3   OH2 1325   8.674   6.382   7.892
  483TIP3    H1 1326   8.689   6.359   7.984
  483TIP3    H2 1327   8.739   6.332   7.844
  484TIP3   OH2 1328   5.966   1.989   1.254
  484TIP3    H1 1329   6.047   2.016   1.210
  484TIP3    H2 1330   5.908   2.064   1.244
  485TIP3   OH2 1331   5.012   1.602   1.869
  485TIP3    H1 1332   5.097   1.584   1.829
  485TIP3    H2 1333   5.031   1.621   1.960
  486TIP3   OH2 1334   5.086   1.440   0.352
  486TIP3    H1 1335   5.098   1.446   0.447
  486TIP3    H2 1336   4.991   1.440   0.340
  487TIP3   OH2 1337   5.311   1.453   1.502
  487TIP3    H1 1338   5.243   1.516   1.525
  487TIP3    H2 1339   5.377   1.505   1.457
  488TIP3   OH2 1340   5.852   1.859   1.605
  488TIP3    H1 1341   5.928   1.828   1.555
  488TIP3    H2 1342   5.851   1.805   1.683
  489TIP3   OH2 1343   5.467   1.274   1.651
  489TIP3    H1 1344   5.494   1.201   1.594
  489TIP3    H2 1345   5.417   1.332   1.593
  490TIP3   OH2 1346   5.534   1.076   1.461
  490TIP3    H1 1347   5.557   1.099   1.371
  490TIP3    H2 1348   5.439   1.063   1.459
  491TIP3   OH2 1349   5.484   1.614   1.362
  491TIP3    H1 1350   5.571   1.613   1.321
  491TIP3    H2 1351   5.432   1.672   1.306
  492TIP3   OH2 1352   6.070   1.548   1.695
  492TIP3    H1 1353   6.111   1.462   1.701
  492TIP3    H2 1354   6.143   1.609   1.694
  493TIP3   OH2 1355   6.086   1.820   1.432
  493TIP3    H1 1356   6.034   1.879   1.378
  493TIP3    H2 1357   6.176   1.832   1.400
  494TIP3   OH2 1358   5.347   1.352   1.889
  494TIP3    H1 1359   5.283   1.283   1.910
  494TIP3    H2 1360   5.380   1.328   1.803
  495TIP3   OH2 1361   5.609   0.822   1.557
  495TIP3    H1 1362   5.580   0.905   1.519
  495TIP3    H2 1363   5.540   0.760   1.534
  496TIP3   OH2 1364   5.723   1.308   1.757
  496TIP3    H1 1365   5.720   1.292   1.851
  496TIP3    H2 1366   5.634   1.291   1.726
  497TIP3   OH2 1367   5.969   1.264   1.626
  497TIP3    H1 1368   5.891   1.261   1.681
  497TIP3    H2 1369   6.040   1.239   1.685
  498TIP3   OH2 1370   6.196   1.231   1.782
  498TIP3    H1 1371   6.212   1.137   1.788
  498TIP3    H2 1372   6.193   1.261   1.873
  499TIP3   OH2 1373   5.195   1.130   1.960
  499TIP3    H1 1374   5.194   1.041   1.925
  499TIP3    H2 1375   5.233   1.121   2.048
  500TIP3   OH2 1376   5.662   0.804   1.823
  500TIP3    H1 1377   5.735   0.743   1.818
  500TIP3    H2 1378   5.633   0.813   1.732
  501TIP3   OH2 1379   5.757   1.024   1.959
  501TIP3    H1 1380   5.727   0.951   1.905
  501TIP3    H2 1381   5.682   1.084   1.961
  502TIP3   OH2 1382   5.008   2.276   0.106
  502TIP3    H1 1383   5.086   2.312   0.064
  502TIP3    H2 1384   4.936   2.327   0.070
  503TIP3   OH2 1385   4.416   1.636   0.201
  503TIP3    H1 1386   4.488   1.682   0.157
  503TIP3    H2 1387   4.445   1.545   0.207
  504TIP3   OH2 1388   4.397   2.342   0.782
  504TIP3    H1 1389   4.307   2.312   0.767
  504TIP3    H2 1390   4.437   2.272   0.834
  505TIP3   OH2 1391   4.530   2.148   0.913
  505TIP3    H1 1392   4.456   2.115   0.964
  505TIP3    H2 1393   4.594   2.174   0.978
  506TIP3   OH2 1394   6.251   2.466   0.687
  506TIP3    H1 1395   6.273   2.492   0.776
  506TIP3    H2 1396   6.308   2.520   0.632
  507TIP3   OH2 1397   6.274   2.496   0.964
  507TIP3    H1 1398   6.228   2.413   0.958
  507TIP3    H2 1399   6.342   2.481   1.029
  508TIP3   OH2 1400   6.315   2.208   1.523
  508TIP3    H1 1401   6.250   2.216   1.593
  508TIP3    H2 1402   6.365   2.290   1.528
  509TIP3   OH2 1403   6.325   1.973   0.766
  509TIP3    H1 1404   6.381   1.907   0.724
  509TIP3    H2 1405   6.330   2.049   0.709
  510TIP3   OH2 1406   6.128   2.260   0.960
  510TIP3    H1 1407   6.062   2.307   1.011
  510TIP3    H2 1408   6.079   2.221   0.888
  511TIP3   OH2 1409   6.256   1.464   0.595
  511TIP3    H1 1410   6.236   1.412   0.517
  511TIP3    H2 1411   6.172   1.478   0.638
  512TIP3   OH2 1412   4.723   1.542   1.273
  512TIP3    H1 1413   4.694   1.490   1.199
  512TIP3    H2 1414   4.816   1.556   1.258
  513TIP3   OH2 1415   6.341   1.854   1.331
  513TIP3    H1 1416   6.411   1.789   1.323
  513TIP3    H2 1417   6.353   1.910   1.254
  514TIP3   OH2 1418   6.527   1.653   1.336
  514TIP3    H1 1419   6.452   1.607   1.374
  514TIP3    H2 1420   6.603   1.599   1.359
  515TIP3   OH2 1421   6.189   1.380   0.904
  515TIP3    H1 1422   6.274   1.363   0.864
  515TIP3    H2 1423   6.208   1.393   0.997
  516TIP3   OH2 1424   6.301   1.496   1.136
  516TIP3    H1 1425   6.225   1.527   1.185
  516TIP3    H2 1426   6.328   1.571   1.083
  517TIP3   OH2 1427   4.937   1.217   1.934
  517TIP3    H1 1428   5.031   1.199   1.931
  517TIP3    H2 1429   4.898   1.139   1.972
  518TIP3   OH2 1430   6.768   1.077   1.653
  518TIP3    H1 1431   6.839   1.029   1.611
  518TIP3    H2 1432   6.728   1.128   1.582
  519TIP3   OH2 1433   4.907   0.934   1.199
  519TIP3    H1 1434   4.892   0.885   1.280
  519TIP3    H2 1435   4.990   0.979   1.212
  520TIP3   OH2 1436   4.750   1.257   1.358
  520TIP3    H1 1437   4.760   1.216   1.272
  520TIP3    H2 1438   4.804   1.336   1.352
  521TIP3   OH2 1439   6.599   1.208   1.481
  521TIP3    H1 1440   6.534   1.246   1.540
  521TIP3    H2 1441   6.550   1.146   1.428
  522TIP3   OH2 1442   5.834   2.369   0.342
  522TIP3    H1 1443   5.882   2.367   0.259
  522TIP3    H2 1444   5.867   2.448   0.386
  523TIP3   OH2 1445   4.921   0.810   1.714
  523TIP3    H1 1446   4.869   0.785   1.790
  523TIP3    H2 1447   4.857   0.830   1.646
  524TIP3   OH2 1448   4.931   2.167   1.700
  524TIP3    H1 1449   4.835   2.167   1.698
  524TIP3    H2 1450   4.953   2.160   1.793
  525TIP3   OH2 1451   5.128   2.226   1.246
  525TIP3    H1 1452   5.076   2.300   1.216
  525TIP3    H2 1453   5.213   2.237   1.203
  526TIP3   OH2 1454   5.516   2.460   1.388
  526TIP3    H1 1455   5.553   2.452   1.476
  526TIP3    H2 1456   5.579   2.514   1.341
  527TIP3   OH2 1457   5.709   2.613   1.263
  527TIP3    H1 1458   5.772   2.560   1.215
  527TIP3    H2 1459   5.763   2.672   1.317
  528TIP3   OH2 1460   6.491   0.967   1.379
  528TIP3    H1 1461   6.407   0.927   1.357
  528TIP3    H2 1462   6.554   0.928   1.319
  529TIP3   OH2 1463   4.786   2.461   1.307
  529TIP3    H1 1464   4.696   2.480   1.280
  529TIP3    H2 1465   4.807   2.529   1.371
  530TIP3   OH2 1466   5.013   2.457   1.150
  530TIP3    H1 1467   4.930   2.460   1.198
  530TIP3    H2 1468   4.991   2.484   1.061
  531TIP3   OH2 1469   5.431   2.478   0.940
  531TIP3    H1 1470   5.356   2.488   0.881
  531TIP3    H2 1471   5.439   2.564   0.982
  532TIP3   OH2 1472   5.693   2.411   0.981
  532TIP3    H1 1473   5.602   2.432   0.964
  532TIP3    H2 1474   5.742   2.481   0.937
  533TIP3   OH2 1475   5.893   2.590   0.889
  533TIP3    H1 1476   5.885   2.676   0.848
  533TIP3    H2 1477   5.922   2.532   0.819
  534TIP3   OH2 1478   4.732   2.276   1.047
  534TIP3    H1 1479   4.759   2.244   1.133
  534TIP3    H2 1480   4.800   2.244   0.987
  535TIP3   OH2 1481   4.913   2.169   0.876
  535TIP3    H1 1482   4.918   2.084   0.921
  535TIP3    H2 1483   5.004   2.200   0.875
  536TIP3   OH2 1484   5.184   2.217   0.893
  536TIP3    H1 1485   5.200   2.124   0.877
  536TIP3    H2 1486   5.238   2.238   0.969
  537TIP3   OH2 1487   5.759   0.884   0.978
  537TIP3    H1 1488   5.706   0.857   1.053
  537TIP3    H2 1489   5.769   0.804   0.925
  538TIP3   OH2 1490   4.946   0.548   0.859
  538TIP3    H1 1491   4.886   0.577   0.927
  538TIP3    H2 1492   5.016   0.504   0.906
  539TIP3   OH2 1493   4.494   2.110   0.403
  539TIP3    H1 1494   4.401   2.129   0.393
  539TIP3    H2 1495   4.504   2.083   0.494
  540TIP3   OH2 1496   8.531   6.891   7.998
  540TIP3    H1 1497   8.616   6.924   7.968
  540TIP3    H2 1498   8.534   6.798   7.978
  541TIP3   OH2 1499   5.957   2.331   0.097
  541TIP3    H1 1500   5.941   2.236   0.101
  541TIP3    H2 1501   5.909   2.360   0.020
  542TIP3   OH2 1502   5.218   0.857   1.922
  542TIP3    H1 1503   5.180   0.784   1.971
  542TIP3    H2 1504   5.309   0.860   1.952
  543TIP3   OH2 1505   5.472   0.846   2.021
  543TIP3    H1 1506   5.538   0.837   1.952
  543TIP3    H2 1507   5.483   0.767   2.075
  544TIP3   OH2 1508   7.936   6.691   7.967
  544TIP3    H1 1509   7.882   6.748   8.022
  544TIP3    H2 1510   7.917   6.603   7.998
  545TIP3   OH2 1511   6.264   0.965   1.791
  545TIP3    H1 1512   6.281   0.930   1.879
  545TIP3    H2 1513   6.348   0.959   1.747
  546TIP3   OH2 1514   6.174   2.476   1.281
  546TIP3    H1 1515   6.101   2.447   1.226
  546TIP3    H2 1516   6.162   2.571   1.289
  547TIP3   OH2 1517   6.760   1.770   0.803
  547TIP3    H1 1518   6.784   1.683   0.834
  547TIP3    H2 1519   6.796   1.830   0.870
  548TIP3   OH2 1520   6.732   2.175   0.500
  548TIP3    H1 1521   6.719   2.085   0.528
  548TIP3    H2 1522   6.823   2.178   0.470
  549TIP3   OH2 1523   7.344   2.539   0.040
  549TIP3    H1 1524   7.302   2.456   0.061
  549TIP3    H2 1525   7.352   2.584   0.125
  550TIP3   OH2 1526   7.103   2.029   0.674
  550TIP3    H1 1527   7.032   2.079   0.715
  550TIP3    H2 1528   7.128   2.081   0.598
  551TIP3   OH2 1529   6.924   2.209   0.776
  551TIP3    H1 1530   6.913   2.296   0.739
  551TIP3    H2 1531   6.844   2.193   0.826
  552TIP3   OH2 1532   7.980   2.272   0.558
  552TIP3    H1 1533   7.925   2.286   0.635
  552TIP3    H2 1534   7.945   2.333   0.492
  553TIP3   OH2 1535   6.969   2.203   0.348
  553TIP3    H1 1536   6.911   2.196   0.273
  553TIP3    H2 1537   7.052   2.166   0.318
  554TIP3   OH2 1538   7.377   2.388   0.352
  554TIP3    H1 1539   7.438   2.460   0.338
  554TIP3    H2 1540   7.385   2.369   0.446
  555TIP3   OH2 1541   7.119   2.306   0.951
  555TIP3    H1 1542   7.056   2.366   0.991
  555TIP3    H2 1543   7.067   2.252   0.892
  556TIP3   OH2 1544   6.859   1.894   1.034
  556TIP3    H1 1545   6.870   1.979   1.075
  556TIP3    H2 1546   6.778   1.859   1.072
  557TIP3   OH2 1547   6.909   2.473   1.007
  557TIP3    H1 1548   6.884   2.476   0.915
  557TIP3    H2 1549   6.828   2.455   1.054
  558TIP3   OH2 1550   6.518   2.022   0.969
  558TIP3    H1 1551   6.449   2.000   0.905
  558TIP3    H2 1552   6.548   1.938   1.002
  559TIP3   OH2 1553   6.367   2.214   0.626
  559TIP3    H1 1554   6.459   2.238   0.637
  559TIP3    H2 1555   6.319   2.290   0.660
  560TIP3   OH2 1556   8.316   2.753   0.575
  560TIP3    H1 1557   8.358   2.674   0.543
  560TIP3    H2 1558   8.277   2.727   0.659
  561TIP3   OH2 1559   7.259   2.477   0.783
  561TIP3    H1 1560   7.262   2.564   0.823
  561TIP3    H2 1561   7.209   2.424   0.845
  562TIP3   OH2 1562   6.543   2.438   0.136
  562TIP3    H1 1563   6.589   2.428   0.219
  562TIP3    H2 1564   6.501   2.353   0.122
  563TIP3   OH2 1565   6.703   2.223   0.940
  563TIP3    H1 1566   6.755   2.213   1.020
  563TIP3    H2 1567   6.636   2.155   0.946
  564TIP3   OH2 1568   7.570   1.833   1.114
  564TIP3    H1 1569   7.540   1.758   1.165
  564TIP3    H2 1570   7.619   1.795   1.041
  565TIP3   OH2 1571   6.849   1.547   0.933
  565TIP3    H1 1572   6.934   1.584   0.958
  565TIP3    H2 1573   6.840   1.469   0.988
  566TIP3   OH2 1574   7.881   3.116   0.796
  566TIP3    H1 1575   7.859   3.092   0.706
  566TIP3    H2 1576   7.970   3.149   0.791
  567TIP3   OH2 1577   6.866   2.140   1.167
  567TIP3    H1 1578   6.948   2.153   1.214
  567TIP3    H2 1579   6.799   2.138   1.235
  568TIP3   OH2 1580   7.459   2.074   0.858
  568TIP3    H1 1581   7.470   2.048   0.950
  568TIP3    H2 1582   7.458   2.169   0.861
  569TIP3   OH2 1583   6.742   1.904   0.562
  569TIP3    H1 1584   6.798   1.851   0.505
  569TIP3    H2 1585   6.754   1.865   0.649
  570TIP3   OH2 1586   6.605   1.798   1.109
  570TIP3    H1 1587   6.611   1.764   1.198
  570TIP3    H2 1588   6.538   1.744   1.067
  571TIP3   OH2 1589   7.316   1.945   1.111
  571TIP3    H1 1590   7.271   1.912   1.033
  571TIP3    H2 1591   7.395   1.892   1.118
  572TIP3   OH2 1592   7.568   2.467   0.650
  572TIP3    H1 1593   7.526   2.382   0.641
  572TIP3    H2 1594   7.647   2.449   0.702
  573TIP3   OH2 1595   8.400   2.298   0.595
  573TIP3    H1 1596   8.313   2.337   0.590
  573TIP3    H2 1597   8.385   2.204   0.583
  574TIP3   OH2 1598   6.808   2.208   0.130
  574TIP3    H1 1599   6.812   2.285   0.073
  574TIP3    H2 1600   6.722   2.170   0.116
  575TIP3   OH2 1601   7.120   2.531   0.557
  575TIP3    H1 1602   7.155   2.613   0.520
  575TIP3    H2 1603   7.182   2.508   0.625
  576TIP3   OH2 1604   0.241   7.063   7.989
  576TIP3    H1 1605   0.154   7.068   8.028
  576TIP3    H2 1606   0.268   7.154   7.978
  577TIP3   OH2 1607   7.511   2.196   0.587
  577TIP3    H1 1608   7.491   2.144   0.665
  577TIP3    H2 1609   7.529   2.131   0.519
  578TIP3   OH2 1610   7.736   2.643   0.528
  578TIP3    H1 1611   7.675   2.579   0.565
  578TIP3    H2 1612   7.688   2.684   0.456
  579TIP3   OH2 1613   6.825   1.331   1.104
  579TIP3    H1 1614   6.731   1.333   1.119
  579TIP3    H2 1615   6.858   1.266   1.167
  580TIP3   OH2 1616   6.565   2.420   0.762
  580TIP3    H1 1617   6.614   2.358   0.815
  580TIP3    H2 1618   6.581   2.505   0.802
  581TIP3   OH2 1619   7.834   2.634   0.179
  581TIP3    H1 1620   7.788   2.708   0.140
  581TIP3    H2 1621   7.927   2.656   0.169
  582TIP3   OH2 1622   6.424   2.197   0.104
  582TIP3    H1 1623   6.363   2.171   0.173
  582TIP3    H2 1624   6.367   2.211   0.027
  583TIP3   OH2 1625   6.569   2.716   1.166
  583TIP3    H1 1626   6.646   2.727   1.223
  583TIP3    H2 1627   6.563   2.622   1.152
  584TIP3   OH2 1628   7.002   2.642   1.203
  584TIP3    H1 1629   7.082   2.597   1.227
  584TIP3    H2 1630   6.969   2.594   1.127
  585TIP3   OH2 1631   7.669   2.500   0.995
  585TIP3    H1 1632   7.653   2.456   1.079
  585TIP3    H2 1633   7.756   2.539   1.005
  586TIP3   OH2 1634   6.670   2.118   1.361
  586TIP3    H1 1635   6.695   2.025   1.368
  586TIP3    H2 1636   6.583   2.116   1.322
  587TIP3   OH2 1637   7.290   2.220   1.147
  587TIP3    H1 1638   7.243   2.246   1.068
  587TIP3    H2 1639   7.310   2.128   1.134
  588TIP3   OH2 1640   6.797   1.868   1.366
  588TIP3    H1 1641   6.860   1.803   1.334
  588TIP3    H2 1642   6.825   1.888   1.455
  589TIP3   OH2 1643   7.070   1.718   0.985
  589TIP3    H1 1644   7.002   1.782   1.005
  589TIP3    H2 1645   7.131   1.764   0.927
  590TIP3   OH2 1646   7.598   2.100   1.124
  590TIP3    H1 1647   7.660   2.107   1.052
  590TIP3    H2 1648   7.582   2.006   1.133
  591TIP3   OH2 1649   7.211   1.539   1.137
  591TIP3    H1 1650   7.283   1.513   1.079
  591TIP3    H2 1651   7.155   1.594   1.082
  592TIP3   OH2 1652   7.253   1.881   0.844
  592TIP3    H1 1653   7.333   1.934   0.835
  592TIP3    H2 1654   7.191   1.922   0.784
  593TIP3   OH2 1655   7.971   1.733   1.121
  593TIP3    H1 1656   7.987   1.639   1.133
  593TIP3    H2 1657   7.911   1.756   1.192
  594TIP3   OH2 1658   7.777   2.043   0.923
  594TIP3    H1 1659   7.709   1.998   0.874
  594TIP3    H2 1660   7.848   1.979   0.931
  595TIP3   OH2 1661   7.113   1.597   1.391
  595TIP3    H1 1662   7.040   1.540   1.418
  595TIP3    H2 1663   7.129   1.574   1.299
  596TIP3   OH2 1664   7.424   1.665   1.268
  596TIP3    H1 1665   7.411   1.643   1.360
  596TIP3    H2 1666   7.349   1.625   1.223
  597TIP3   OH2 1667   6.953   1.382   1.463
  597TIP3    H1 1668   6.960   1.295   1.424
  597TIP3    H2 1669   6.996   1.374   1.548
  598TIP3   OH2 1670   7.515   1.185   1.431
  598TIP3    H1 1671   7.464   1.189   1.350
  598TIP3    H2 1672   7.555   1.271   1.439
  599TIP3   OH2 1673   6.153   2.499   0.191
  599TIP3    H1 1674   6.091   2.440   0.148
  599TIP3    H2 1675   6.199   2.444   0.253
  600TIP3   OH2 1676   6.294   2.353   0.377
  600TIP3    H1 1677   6.291   2.278   0.436
  600TIP3    H2 1678   6.354   2.415   0.420
  601TIP3   OH2 1679   8.070   2.768   0.139
  601TIP3    H1 1680   8.083   2.783   0.233
  601TIP3    H2 1681   8.141   2.817   0.098
  602TIP3   OH2 1682   8.039   2.772   0.410
  602TIP3    H1 1683   7.996   2.692   0.440
  602TIP3    H2 1684   8.072   2.813   0.490
  603TIP3   OH2 1685   7.942   2.560   1.012
  603TIP3    H1 1686   7.939   2.464   1.010
  603TIP3    H2 1687   8.033   2.581   1.033
  604TIP3   OH2 1688   7.947   2.513   0.426
  604TIP3    H1 1689   7.862   2.540   0.461
  604TIP3    H2 1690   7.928   2.481   0.338
  605TIP3   OH2 1691   6.497   1.752   0.725
  605TIP3    H1 1692   6.502   1.726   0.633
  605TIP3    H2 1693   6.588   1.762   0.753
  606TIP3   OH2 1694   6.698   1.448   1.393
  606TIP3    H1 1695   6.792   1.443   1.411
  606TIP3    H2 1696   6.662   1.367   1.430
  607TIP3   OH2 1697   6.440   1.383   0.786
  607TIP3    H1 1698   6.389   1.415   0.711
  607TIP3    H2 1699   6.509   1.448   0.796
  608TIP3   OH2 1700   6.694   2.442   1.182
  608TIP3    H1 1701   6.602   2.418   1.180
  608TIP3    H2 1702   6.720   2.430   1.274
  609TIP3   OH2 1703   6.903   2.479   0.722
  609TIP3    H1 1704   6.850   2.554   0.696
  609TIP3    H2 1705   6.983   2.488   0.670
  610TIP3   OH2 1706   7.289   2.719   0.907
  610TIP3    H1 1707   7.342   2.693   0.982
  610TIP3    H2 1708   7.338   2.791   0.867
  611TIP3   OH2 1709   7.435   2.934   0.808
  611TIP3    H1 1710   7.473   2.871   0.747
  611TIP3    H2 1711   7.510   2.980   0.845
  612TIP3   OH2 1712   6.565   2.722   0.788
  612TIP3    H1 1713   6.473   2.740   0.768
  612TIP3    H2 1714   6.589   2.790   0.851
  613TIP3   OH2 1715   6.788   2.711   0.630
  613TIP3    H1 1716   6.706   2.716   0.678
  613TIP3    H2 1717   6.764   2.734   0.540
  614TIP3   OH2 1718   7.186   2.772   0.438
  614TIP3    H1 1719   7.106   2.801   0.394
  614TIP3    H2 1720   7.210   2.845   0.495
  615TIP3   OH2 1721   7.370   2.695   0.255
  615TIP3    H1 1722   7.305   2.720   0.320
  615TIP3    H2 1723   7.454   2.723   0.294
  616TIP3   OH2 1724   7.597   2.813   0.368
  616TIP3    H1 1725   7.580   2.906   0.382
  616TIP3    H2 1726   7.641   2.809   0.283
  617TIP3   OH2 1727   6.478   2.519   0.517
  617TIP3    H1 1728   6.506   2.493   0.605
  617TIP3    H2 1729   6.548   2.488   0.459
  618TIP3   OH2 1730   6.678   2.412   0.372
  618TIP3    H1 1731   6.689   2.327   0.416
  618TIP3    H2 1732   6.768   2.446   0.364
  619TIP3   OH2 1733   6.946   2.483   0.353
  619TIP3    H1 1734   6.960   2.390   0.336
  619TIP3    H2 1735   7.004   2.503   0.427
  620TIP3   OH2 1736   9.512   6.887   7.910
  620TIP3    H1 1737   9.439   6.840   7.870
  620TIP3    H2 1738   9.495   6.979   7.892
  621TIP3   OH2 1739   6.997   1.125   1.379
  621TIP3    H1 1740   6.965   1.043   1.418
  621TIP3    H2 1741   7.089   1.129   1.403
  622TIP3   OH2 1742   7.244   1.128   1.509
  622TIP3    H1 1743   7.339   1.132   1.496
  622TIP3    H2 1744   7.232   1.063   1.578
  623TIP3   OH2 1745   7.930   2.666   0.718
  623TIP3    H1 1746   7.854   2.670   0.661
  623TIP3    H2 1747   7.970   2.753   0.712
  624TIP3   OH2 1748   8.376   3.025   0.729
  624TIP3    H1 1749   8.466   3.001   0.706
  624TIP3    H2 1750   8.344   2.951   0.780
  625TIP3   OH2 1751   8.623   2.256   0.831
  625TIP3    H1 1752   8.674   2.176   0.846
  625TIP3    H2 1753   8.541   2.225   0.793
  626TIP3   OH2 1754   8.640   2.624   0.720
  626TIP3    H1 1755   8.578   2.607   0.649
  626TIP3    H2 1756   8.588   2.616   0.800
  627TIP3   OH2 1757   8.323   3.058   0.216
  627TIP3    H1 1758   8.337   3.152   0.204
  627TIP3    H2 1759   8.411   3.022   0.226
  628TIP3   OH2 1760   0.719   3.501   2.344
  628TIP3    H1 1761   0.712   3.476   2.251
  628TIP3    H2 1762   0.630   3.491   2.378
  629TIP3   OH2 1763   0.408   3.777   2.445
  629TIP3    H1 1764   0.394   3.801   2.353
  629TIP3    H2 1765   0.486   3.827   2.471
  630TIP3   OH2 1766   0.581   3.231   2.731
  630TIP3    H1 1767   0.510   3.243   2.794
  630TIP3    H2 1768   0.623   3.316   2.725
  631TIP3   OH2 1769   0.463   3.507   2.456
  631TIP3    H1 1770   0.377   3.467   2.465
  631TIP3    H2 1771   0.446   3.601   2.460
  632TIP3   OH2 1772   1.848   3.083   1.347
  632TIP3    H1 1773   1.943   3.077   1.355
  632TIP3    H2 1774   1.832   3.166   1.303
  633TIP3   OH2 1775   1.581   3.670   1.307
  633TIP3    H1 1776   1.586   3.576   1.325
  633TIP3    H2 1777   1.543   3.707   1.387
  634TIP3   OH2 1778   1.572   2.984   1.795
  634TIP3    H1 1779   1.563   2.951   1.706
  634TIP3    H2 1780   1.664   3.006   1.804
  635TIP3   OH2 1781   2.508   2.518   1.653
  635TIP3    H1 1782   2.595   2.505   1.692
  635TIP3    H2 1783   2.524   2.571   1.575
  636TIP3   OH2 1784   2.542   2.657   1.956
  636TIP3    H1 1785   2.472   2.708   1.915
  636TIP3    H2 1786   2.611   2.722   1.975
  637TIP3   OH2 1787   1.404   3.145   1.941
  637TIP3    H1 1788   1.333   3.082   1.949
  637TIP3    H2 1789   1.475   3.096   1.900
  638TIP3   OH2 1790   1.104   3.269   1.962
  638TIP3    H1 1791   1.116   3.363   1.949
  638TIP3    H2 1792   1.058   3.262   2.046
  639TIP3   OH2 1793   2.054   3.388   1.443
  639TIP3    H1 1794   1.992   3.443   1.490
  639TIP3    H2 1795   2.116   3.449   1.403
  640TIP3   OH2 1796   2.395   2.387   1.876
  640TIP3    H1 1797   2.345   2.325   1.821
  640TIP3    H2 1798   2.435   2.447   1.813
  641TIP3   OH2 1799   1.783   3.489   1.165
  641TIP3    H1 1800   1.832   3.407   1.170
  641TIP3    H2 1801   1.717   3.472   1.098
  642TIP3   OH2 1802   2.255   3.438   1.868
  642TIP3    H1 1803   2.258   3.354   1.822
  642TIP3    H2 1804   2.241   3.502   1.799
  643TIP3   OH2 1805   2.494   3.048   1.663
  643TIP3    H1 1806   2.424   3.092   1.712
  643TIP3    H2 1807   2.456   3.029   1.577
  644TIP3   OH2 1808   2.147   2.886   2.029
  644TIP3    H1 1809   2.142   2.977   2.060
  644TIP3    H2 1810   2.059   2.866   1.997
  645TIP3   OH2 1811   1.668   3.359   1.660
  645TIP3    H1 1812   1.604   3.427   1.638
  645TIP3    H2 1813   1.753   3.397   1.637
  646TIP3   OH2 1814   1.411   3.360   2.118
  646TIP3    H1 1815   1.326   3.394   2.146
  646TIP3    H2 1816   1.390   3.286   2.062
  647TIP3   OH2 1817   1.118   2.926   2.210
  647TIP3    H1 1818   1.126   3.001   2.269
  647TIP3    H2 1819   1.023   2.911   2.202
  648TIP3   OH2 1820   1.175   3.482   2.200
  648TIP3    H1 1821   1.130   3.515   2.122
  648TIP3    H2 1822   1.105   3.466   2.263
  649TIP3   OH2 1823   2.520   3.693   1.919
  649TIP3    H1 1824   2.520   3.598   1.929
  649TIP3    H2 1825   2.433   3.721   1.947
  650TIP3   OH2 1826   1.571   3.531   1.975
  650TIP3    H1 1827   1.552   3.612   2.021
  650TIP3    H2 1828   1.525   3.464   2.025
  651TIP3   OH2 1829   2.387   2.839   2.165
  651TIP3    H1 1830   2.309   2.859   2.114
  651TIP3    H2 1831   2.393   2.744   2.163
  652TIP3   OH2 1832   0.949   3.204   2.171
  652TIP3    H1 1833   1.003   3.198   2.249
  652TIP3    H2 1834   0.904   3.120   2.166
  653TIP3   OH2 1835   2.150   2.609   2.080
  653TIP3    H1 1836   2.082   2.582   2.141
  653TIP3    H2 1837   2.131   2.701   2.063
  654TIP3   OH2 1838   1.864   2.818   2.282
  654TIP3    H1 1839   1.836   2.751   2.343
  654TIP3    H2 1840   1.959   2.826   2.297
  655TIP3   OH2 1841   1.902   2.816   1.942
  655TIP3    H1 1842   1.871   2.758   1.872
  655TIP3    H2 1843   1.870   2.903   1.916
  656TIP3   OH2 1844   2.198   4.058   1.954
  656TIP3    H1 1845   2.188   4.071   1.859
  656TIP3    H2 1846   2.277   4.108   1.976
  657TIP3   OH2 1847   1.127   3.143   2.381
  657TIP3    H1 1848   1.213   3.166   2.416
  657TIP3    H2 1849   1.065   3.176   2.447
  658TIP3   OH2 1850   2.268   3.211   1.723
  658TIP3    H1 1851   2.297   3.238   1.636
  658TIP3    H2 1852   2.231   3.123   1.710
  659TIP3   OH2 1853   1.700   3.112   2.113
  659TIP3    H1 1854   1.773   3.127   2.172
  659TIP3    H2 1855   1.713   3.173   2.041
  660TIP3   OH2 1856   1.620   2.934   2.339
  660TIP3    H1 1857   1.565   2.924   2.261
  660TIP3    H2 1858   1.708   2.910   2.310
  661TIP3   OH2 1859   1.829   3.574   1.893
  661TIP3    H1 1860   1.735   3.563   1.905
  661TIP3    H2 1861   1.864   3.582   1.982
  662TIP3   OH2 1862   2.520   3.400   1.902
  662TIP3    H1 1863   2.427   3.422   1.902
  662TIP3    H2 1864   2.539   3.379   1.810
  663TIP3   OH2 1865   1.920   2.914   1.552
  663TIP3    H1 1866   1.865   2.960   1.490
  663TIP3    H2 1867   1.970   2.852   1.499
  664TIP3   OH2 1868   1.332   3.636   1.829
  664TIP3    H1 1869   1.404   3.695   1.806
  664TIP3    H2 1870   1.373   3.550   1.836
  665TIP3   OH2 1871   1.838   3.040   1.802
  665TIP3    H1 1872   1.833   3.131   1.833
  665TIP3    H2 1873   1.881   3.046   1.717
  666TIP3   OH2 1874   2.024   3.754   1.810
  666TIP3    H1 1875   1.949   3.703   1.839
  666TIP3    H2 1876   1.987   3.820   1.751
  667TIP3   OH2 1877   0.747   3.448   2.077
  667TIP3    H1 1878   0.784   3.364   2.049
  667TIP3    H2 1879   0.770   3.508   2.006
  668TIP3   OH2 1880   1.900   2.455   1.956
  668TIP3    H1 1881   1.975   2.504   1.923
  668TIP3    H2 1882   1.910   2.368   1.918
  669TIP3   OH2 1883   1.736   2.621   2.106
  669TIP3    H1 1884   1.789   2.696   2.134
  669TIP3    H2 1885   1.800   2.561   2.067
  670TIP3   OH2 1886   2.399   2.561   2.177
  670TIP3    H1 1887   2.306   2.554   2.158
  670TIP3    H2 1888   2.442   2.551   2.092
  671TIP3   OH2 1889   2.061   2.716   1.429
  671TIP3    H1 1890   2.049   2.675   1.343
  671TIP3    H2 1891   2.038   2.648   1.492
  672TIP3   OH2 1892   2.092   3.774   1.464
  672TIP3    H1 1893   2.034   3.728   1.404
  672TIP3    H2 1894   2.173   3.787   1.414
  673TIP3   OH2 1895   0.822   3.760   2.343
  673TIP3    H1 1896   0.905   3.753   2.391
  673TIP3    H2 1897   0.789   3.670   2.338
  674TIP3   OH2 1898   1.287   3.655   2.390
  674TIP3    H1 1899   1.378   3.629   2.402
  674TIP3    H2 1900   1.255   3.598   2.319
  675TIP3   OH2 1901   1.913   3.613   2.151
  675TIP3    H1 1902   1.928   3.538   2.209
  675TIP3    H2 1903   1.988   3.671   2.167
  676TIP3   OH2 1904   0.916   3.159   2.563
  676TIP3    H1 1905   0.942   3.068   2.570
  676TIP3    H2 1906   0.836   3.158   2.510
  677TIP3   OH2 1907   1.549   3.251   2.327
  677TIP3    H1 1908   1.511   3.286   2.247
  677TIP3    H2 1909   1.601   3.176   2.298
  678TIP3   OH2 1910   2.027   3.338   1.985
  678TIP3    H1 1911   2.004   3.307   1.898
  678TIP3    H2 1912   2.101   3.397   1.971
  679TIP3   OH2 1913   1.034   2.908   2.575
  679TIP3    H1 1914   1.103   2.898   2.509
  679TIP3    H2 1915   1.081   2.927   2.656
  680TIP3   OH2 1916   1.341   2.753   2.202
  680TIP3    H1 1917   1.258   2.801   2.207
  680TIP3    H2 1918   1.399   2.811   2.153
  681TIP3   OH2 1919   1.906   3.153   2.295
  681TIP3    H1 1920   1.988   3.132   2.251
  681TIP3    H2 1921   1.906   3.098   2.373
  682TIP3   OH2 1922   1.534   2.588   2.292
  682TIP3    H1 1923   1.599   2.591   2.221
  682TIP3    H2 1924   1.462   2.643   2.261
  683TIP3   OH2 1925   1.530   2.902   2.073
  683TIP3    H1 1926   1.537   2.876   1.982
  683TIP3    H2 1927   1.586   2.979   2.081
  684TIP3   OH2 1928   2.130   2.845   2.380
  684TIP3    H1 1929   2.189   2.774   2.355
  684TIP3    H2 1930   2.186   2.923   2.379
  685TIP3   OH2 1931   2.155   3.145   2.125
  685TIP3    H1 1932   2.101   3.214   2.087
  685TIP3    H2 1933   2.241   3.156   2.085
  686TIP3   OH2 1934   1.414   2.642   2.554
  686TIP3    H1 1935   1.360   2.565   2.567
  686TIP3    H2 1936   1.434   2.642   2.461
  687TIP3   OH2 1937   1.768   2.612   2.439
  687TIP3    H1 1938   1.744   2.596   2.531
  687TIP3    H2 1939   1.685   2.601   2.391
  688TIP3   OH2 1940   1.989   2.542   2.287
  688TIP3    H1 1941   1.910   2.555   2.339
  688TIP3    H2 1942   2.057   2.523   2.351
  689TIP3   OH2 1943   2.186   2.489   2.467
  689TIP3    H1 1944   2.229   2.404   2.460
  689TIP3    H2 1945   2.140   2.485   2.551
  690TIP3   OH2 1946   1.270   2.422   2.679
  690TIP3    H1 1947   1.205   2.393   2.614
  690TIP3    H2 1948   1.232   2.501   2.717
  691TIP3   OH2 1949   1.682   2.162   2.466
  691TIP3    H1 1950   1.755   2.099   2.460
  691TIP3    H2 1951   1.647   2.166   2.377
  692TIP3   OH2 1952   1.823   2.339   2.627
  692TIP3    H1 1953   1.784   2.279   2.563
  692TIP3    H2 1954   1.756   2.407   2.639
  693TIP3   OH2 1955   2.365   3.833   1.411
  693TIP3    H1 1956   2.369   3.827   1.507
  693TIP3    H2 1957   2.372   3.927   1.393
  694TIP3   OH2 1958   2.365   3.859   1.679
  694TIP3    H1 1959   2.340   3.781   1.728
  694TIP3    H2 1960   2.433   3.901   1.733
  695TIP3   OH2 1961   2.369   3.494   2.203
  695TIP3    H1 1962   2.299   3.507   2.266
  695TIP3    H2 1963   2.416   3.578   2.203
  696TIP3   OH2 1964   2.359   3.326   1.498
  696TIP3    H1 1965   2.366   3.295   1.408
  696TIP3    H2 1966   2.329   3.417   1.489
  697TIP3   OH2 1967   2.208   3.606   1.666
  697TIP3    H1 1968   2.140   3.660   1.705
  697TIP3    H2 1969   2.206   3.628   1.573
  698TIP3   OH2 1970   2.411   3.163   2.015
  698TIP3    H1 1971   2.476   3.094   2.001
  698TIP3    H2 1972   2.449   3.240   1.974
  699TIP3   OH2 1973   2.596   2.961   2.021
  699TIP3    H1 1974   2.527   2.918   2.072
  699TIP3    H2 1975   2.675   2.909   2.039
  700TIP3   OH2 1976   2.259   2.505   1.542
  700TIP3    H1 1977   2.280   2.463   1.459
  700TIP3    H2 1978   2.340   2.500   1.593
  701TIP3   OH2 1979   2.362   2.826   1.852
  701TIP3    H1 1980   2.283   2.860   1.894
  701TIP3    H2 1981   2.338   2.815   1.760
  702TIP3   OH2 1982   2.815   2.364   2.348
  702TIP3    H1 1983   2.872   2.300   2.305
  702TIP3    H2 1984   2.792   2.426   2.279
  703TIP3   OH2 1985   2.679   2.529   2.181
  703TIP3    H1 1986   2.593   2.561   2.209
  703TIP3    H2 1987   2.659   2.454   2.125
  704TIP3   OH2 1988   1.916   3.542   0.930
  704TIP3    H1 1989   1.916   3.635   0.906
  704TIP3    H2 1990   1.883   3.540   1.019
  705TIP3   OH2 1991   0.983   3.452   2.395
  705TIP3    H1 1992   0.891   3.460   2.372
  705TIP3    H2 1993   0.986   3.474   2.489
  706TIP3   OH2 1994   1.099   3.545   1.938
  706TIP3    H1 1995   1.038   3.600   1.889
  706TIP3    H2 1996   1.186   3.577   1.913
  707TIP3   OH2 1997   1.573   3.795   2.075
  707TIP3    H1 1998   1.601   3.765   2.162
  707TIP3    H2 1999   1.642   3.855   2.047
  708TIP3   OH2 2000   1.764   3.956   1.969
  708TIP3    H1 2001   1.814   3.935   1.890
  708TIP3    H2 2002   1.827   4.004   2.024
  709TIP3   OH2 2003   2.556   2.306   2.081
  709TIP3    H1 2004   2.487   2.320   2.016
  709TIP3    H2 2005   2.585   2.216   2.066
  710TIP3   OH2 2006   0.802   3.832   1.947
  710TIP3    H1 2007   0.708   3.852   1.940
  710TIP3    H2 2008   0.831   3.879   2.025
  711TIP3   OH2 2009   0.982   3.732   1.775
  711TIP3    H1 2010   0.916   3.772   1.831
  711TIP3    H2 2011   1.029   3.807   1.737
  712TIP3   OH2 2012   1.463   3.792   1.520
  712TIP3    H1 2013   1.372   3.815   1.501
  712TIP3    H2 2014   1.505   3.875   1.540
  713TIP3   OH2 2015   1.742   3.731   1.592
  713TIP3    H1 2016   1.669   3.745   1.652
  713TIP3    H2 2017   1.791   3.813   1.593
  714TIP3   OH2 2018   1.933   3.933   1.613
  714TIP3    H1 2019   1.955   4.022   1.586
  714TIP3    H2 2020   1.990   3.877   1.561
  715TIP3   OH2 2021   1.207   3.569   1.582
  715TIP3    H1 2022   1.131   3.512   1.574
  715TIP3    H2 2023   1.212   3.589   1.676
  716TIP3   OH2 2024   2.010   3.636   0.591
  716TIP3    H1 2025   2.003   3.551   0.634
  716TIP3    H2 2026   1.927   3.647   0.545
  717TIP3   OH2 2027   1.490   2.187   2.688
  717TIP3    H1 2028   1.533   2.211   2.607
  717TIP3    H2 2029   1.532   2.106   2.715
  718TIP3   OH2 2030   2.319   2.247   2.465
  718TIP3    H1 2031   2.338   2.211   2.551
  718TIP3    H2 2032   2.403   2.247   2.419
  719TIP3   OH2 2033   2.259   3.787   1.960
  719TIP3    H1 2034   2.179   3.760   1.915
  719TIP3    H2 2035   2.251   3.881   1.970
  720TIP3   OH2 2036   3.575   3.243   0.735
  720TIP3    H1 2037   3.538   3.322   0.695
  720TIP3    H2 2038   3.499   3.186   0.750
  721TIP3   OH2 2039   3.535   3.155   1.113
  721TIP3    H1 2040   3.581   3.153   1.197
  721TIP3    H2 2041   3.493   3.070   1.107
  722TIP3   OH2 2042   2.862   3.169   1.510
  722TIP3    H1 2043   2.856   3.112   1.586
  722TIP3    H2 2044   2.930   3.130   1.455
  723TIP3   OH2 2045   3.787   3.484   0.768
  723TIP3    H1 2046   3.757   3.415   0.826
  723TIP3    H2 2047   3.802   3.560   0.825
  724TIP3   OH2 2048   2.803   3.467   1.179
  724TIP3    H1 2049   2.802   3.371   1.173
  724TIP3    H2 2050   2.895   3.489   1.193
  725TIP3   OH2 2051   2.538   2.998   1.133
  725TIP3    H1 2052   2.591   2.921   1.147
  725TIP3    H2 2053   2.461   2.966   1.085
  726TIP3   OH2 2054   3.448   3.904   0.821
  726TIP3    H1 2055   3.493   3.847   0.759
  726TIP3    H2 2056   3.442   3.852   0.902
  727TIP3   OH2 2057   3.343   3.398   1.144
  727TIP3    H1 2058   3.350   3.326   1.080
  727TIP3    H2 2059   3.434   3.422   1.163
  728TIP3   OH2 2060   4.316   2.689   1.166
  728TIP3    H1 2061   4.346   2.779   1.156
  728TIP3    H2 2062   4.314   2.655   1.076
  729TIP3   OH2 2063   3.773   2.892   1.195
  729TIP3    H1 2064   3.810   2.804   1.205
  729TIP3    H2 2065   3.741   2.895   1.105
  730TIP3   OH2 2066   3.758   2.644   0.847
  730TIP3    H1 2067   3.847   2.677   0.857
  730TIP3    H2 2068   3.734   2.665   0.757
  731TIP3   OH2 2069   2.670   2.762   1.163
  731TIP3    H1 2070   2.764   2.742   1.164
  731TIP3    H2 2071   2.633   2.696   1.105
  732TIP3   OH2 2072   3.114   3.042   1.035
  732TIP3    H1 2073   3.162   3.119   1.005
  732TIP3    H2 2074   3.153   2.969   0.987
  733TIP3   OH2 2075   4.412   2.936   1.299
  733TIP3    H1 2076   4.323   2.972   1.295
  733TIP3    H2 2077   4.448   2.972   1.380
  734TIP3   OH2 2078   3.110   2.581   1.586
  734TIP3    H1 2079   3.058   2.574   1.506
  734TIP3    H2 2080   3.048   2.613   1.652
  735TIP3   OH2 2081   3.461   3.448   0.586
  735TIP3    H1 2082   3.414   3.390   0.527
  735TIP3    H2 2083   3.400   3.521   0.602
  736TIP3   OH2 2084   3.186   3.323   1.352
  736TIP3    H1 2085   3.122   3.394   1.361
  736TIP3    H2 2086   3.243   3.351   1.280
  737TIP3   OH2 2087   4.011   2.691   0.929
  737TIP3    H1 2088   3.989   2.624   0.995
  737TIP3    H2 2089   4.041   2.766   0.981
  738TIP3   OH2 2090   2.977   2.543   1.353
  738TIP3    H1 2091   2.974   2.627   1.308
  738TIP3    H2 2092   2.923   2.485   1.299
  739TIP3   OH2 2093   2.431   3.191   0.600
  739TIP3    H1 2094   2.356   3.237   0.563
  739TIP3    H2 2095   2.396   3.108   0.632
  740TIP3   OH2 2096   3.797   3.721   0.924
  740TIP3    H1 2097   3.708   3.711   0.956
  740TIP3    H2 2098   3.798   3.804   0.877
  741TIP3   OH2 2099   4.114   2.580   1.320
  741TIP3    H1 2100   4.029   2.603   1.284
  741TIP3    H2 2101   4.177   2.617   1.258
  742TIP3   OH2 2102   3.470   2.336   1.342
  742TIP3    H1 2103   3.467   2.287   1.260
  742TIP3    H2 2104   3.435   2.276   1.407
  743TIP3   OH2 2105   3.560   3.756   0.618
  743TIP3    H1 2106   3.609   3.677   0.598
  743TIP3    H2 2107   3.607   3.826   0.573
  744TIP3   OH2 2108   3.710   3.542   0.509
  744TIP3    H1 2109   3.627   3.495   0.517
  744TIP3    H2 2110   3.759   3.518   0.588
  745TIP3   OH2 2111   4.028   3.610   1.272
  745TIP3    H1 2112   4.020   3.536   1.212
  745TIP3    H2 2113   4.014   3.687   1.218
  746TIP3   OH2 2114   3.334   3.058   0.555
  746TIP3    H1 2115   3.273   3.093   0.619
  746TIP3    H2 2116   3.377   3.135   0.517
  747TIP3   OH2 2117   3.314   2.787   0.274
  747TIP3    H1 2118   3.384   2.845   0.246
  747TIP3    H2 2119   3.354   2.700   0.277
  748TIP3   OH2 2120   4.217   3.267   1.140
  748TIP3    H1 2121   4.135   3.315   1.131
  748TIP3    H2 2122   4.252   3.263   1.050
  749TIP3   OH2 2123   3.758   3.143   0.564
  749TIP3    H1 2124   3.699   3.178   0.630
  749TIP3    H2 2125   3.838   3.120   0.612
  750TIP3   OH2 2126   3.925   3.128   1.454
  750TIP3    H1 2127   3.923   3.211   1.502
  750TIP3    H2 2128   3.843   3.125   1.405
  751TIP3   OH2 2129   2.845   3.010   0.976
  751TIP3    H1 2130   2.826   2.934   0.921
  751TIP3    H2 2131   2.939   3.003   0.994
  752TIP3   OH2 2132   3.080   3.521   1.171
  752TIP3    H1 2133   3.071   3.442   1.116
  752TIP3    H2 2134   3.174   3.538   1.173
  753TIP3   OH2 2135   3.062   3.082   1.317
  753TIP3    H1 2136   3.092   3.039   1.237
  753TIP3    H2 2137   3.114   3.162   1.322
  754TIP3   OH2 2138   3.553   3.701   1.046
  754TIP3    H1 2139   3.546   3.778   1.103
  754TIP3    H2 2140   3.559   3.627   1.105
  755TIP3   OH2 2141   3.504   2.992   0.254
  755TIP3    H1 2142   3.479   3.064   0.311
  755TIP3    H2 2143   3.529   3.034   0.172
  756TIP3   OH2 2144   3.298   3.672   0.639
  756TIP3    H1 2145   3.386   3.711   0.642
  756TIP3    H2 2146   3.247   3.733   0.587
  757TIP3   OH2 2147   2.995   3.727   1.685
  757TIP3    H1 2148   2.981   3.739   1.591
  757TIP3    H2 2149   3.021   3.814   1.717
  758TIP3   OH2 2150   4.026   2.215   0.406
  758TIP3    H1 2151   3.971   2.150   0.361
  758TIP3    H2 2152   4.044   2.281   0.340
  759TIP3   OH2 2153   2.687   2.974   0.691
  759TIP3    H1 2154   2.684   3.056   0.642
  759TIP3    H2 2155   2.603   2.970   0.737
  760TIP3   OH2 2156   7.143   8.251   7.922
  760TIP3    H1 2157   7.149   8.338   7.884
  760TIP3    H2 2158   7.233   8.218   7.919
  761TIP3   OH2 2159   2.593   3.325   1.649
  761TIP3    H1 2160   2.521   3.329   1.586
  761TIP3    H2 2161   2.627   3.235   1.641
  762TIP3   OH2 2162   2.565   3.553   1.289
  762TIP3    H1 2163   2.646   3.523   1.250
  762TIP3    H2 2164   2.592   3.619   1.353
  763TIP3   OH2 2165   4.265   3.955   1.333
  763TIP3    H1 2166   4.271   3.860   1.350
  763TIP3    H2 2167   4.186   3.982   1.379
  764TIP3   OH2 2168   3.353   3.751   1.443
  764TIP3    H1 2169   3.357   3.839   1.481
  764TIP3    H2 2170   3.356   3.692   1.519
  765TIP3   OH2 2171   3.232   3.914   0.500
  765TIP3    H1 2172   3.158   3.904   0.440
  765TIP3    H2 2173   3.220   4.001   0.538
  766TIP3   OH2 2174   2.764   3.736   0.782
  766TIP3    H1 2175   2.742   3.752   0.873
  766TIP3    H2 2176   2.680   3.720   0.739
  767TIP3   OH2 2177   3.386   3.789   0.052
  767TIP3    H1 2178   3.431   3.719   0.006
  767TIP3    H2 2179   3.419   3.784   0.142
  768TIP3   OH2 2180   3.437   3.847   0.323
  768TIP3    H1 2181   3.364   3.855   0.384
  768TIP3    H2 2182   3.512   3.827   0.379
  769TIP3   OH2 2183   4.163   3.079   1.609
  769TIP3    H1 2184   4.082   3.090   1.561
  769TIP3    H2 2185   4.184   2.986   1.600
  770TIP3   OH2 2186   2.832   3.457   1.718
  770TIP3    H1 2187   2.739   3.442   1.703
  770TIP3    H2 2188   2.875   3.383   1.674
  771TIP3   OH2 2189   3.140   2.323   1.437
  771TIP3    H1 2190   3.047   2.306   1.426
  771TIP3    H2 2191   3.146   2.419   1.442
  772TIP3   OH2 2192   3.724   2.492   1.671
  772TIP3    H1 2193   3.792   2.449   1.723
  772TIP3    H2 2194   3.642   2.467   1.714
  773TIP3   OH2 2195   3.923   2.857   1.527
  773TIP3    H1 2196   3.887   2.855   1.616
  773TIP3    H2 2197   3.912   2.948   1.499
  774TIP3   OH2 2198   3.627   3.107   0.033
  774TIP3    H1 2199   3.609   3.023  -0.011
  774TIP3    H2 2200   3.720   3.101   0.057
  775TIP3   OH2 2201   3.152   2.886   1.496
  775TIP3    H1 2202   3.091   2.892   1.569
  775TIP3    H2 2203   3.135   2.965   1.444
  776TIP3   OH2 2204   2.833   2.761   0.856
  776TIP3    H1 2205   2.816   2.742   0.948
  776TIP3    H2 2206   2.912   2.712   0.836
  777TIP3   OH2 2207   3.504   2.754   0.765
  777TIP3    H1 2208   3.475   2.837   0.804
  777TIP3    H2 2209   3.509   2.772   0.671
  778TIP3   OH2 2210   3.653   3.081   1.771
  778TIP3    H1 2211   3.627   3.011   1.832
  778TIP3    H2 2212   3.747   3.092   1.786
  779TIP3   OH2 2213   3.687   2.909   0.935
  779TIP3    H1 2214   3.604   2.951   0.912
  779TIP3    H2 2215   3.678   2.819   0.904
  780TIP3   OH2 2216   2.979   2.925   1.702
  780TIP3    H1 2217   2.897   2.964   1.731
  780TIP3    H2 2218   2.982   2.839   1.745
  781TIP3   OH2 2219   3.669   3.087   1.348
  781TIP3    H1 2220   3.706   3.021   1.289
  781TIP3    H2 2221   3.637   3.037   1.423
  782TIP3   OH2 2222   3.268   2.595   1.041
  782TIP3    H1 2223   3.244   2.532   1.108
  782TIP3    H2 2224   3.362   2.609   1.053
  783TIP3   OH2 2225   2.971   2.476   0.587
  783TIP3    H1 2226   2.975   2.402   0.647
  783TIP3    H2 2227   3.059   2.482   0.551
  784TIP3   OH2 2228   3.847   2.621   1.230
  784TIP3    H1 2229   3.799   2.635   1.312
  784TIP3    H2 2230   3.797   2.553   1.184
  785TIP3   OH2 2231   3.986   4.308   1.423
  785TIP3    H1 2232   3.986   4.320   1.328
  785TIP3    H2 2233   4.066   4.351   1.452
  786TIP3   OH2 2234   3.434   2.896   1.151
  786TIP3    H1 2235   3.477   2.825   1.104
  786TIP3    H2 2236   3.439   2.870   1.243
  787TIP3   OH2 2237   3.400   2.810   1.410
  787TIP3    H1 2238   3.316   2.845   1.439
  787TIP3    H2 2239   3.465   2.861   1.458
  788TIP3   OH2 2240   2.979   3.192   0.467
  788TIP3    H1 2241   2.966   3.113   0.520
  788TIP3    H2 2242   3.069   3.219   0.486
  789TIP3   OH2 2243   3.989   3.414   1.088
  789TIP3    H1 2244   4.030   3.458   1.013
  789TIP3    H2 2245   3.908   3.378   1.053
  790TIP3   OH2 2246   3.422   2.542   0.336
  790TIP3    H1 2247   3.400   2.464   0.285
  790TIP3    H2 2248   3.500   2.577   0.294
  791TIP3   OH2 2249   3.507   3.526   1.578
  791TIP3    H1 2250   3.574   3.485   1.633
  791TIP3    H2 2251   3.555   3.556   1.501
  792TIP3   OH2 2252   3.601   2.726   0.247
  792TIP3    H1 2253   3.693   2.711   0.271
  792TIP3    H2 2254   3.592   2.821   0.248
  793TIP3   OH2 2255   2.835   3.184   1.186
  793TIP3    H1 2256   2.824   3.130   1.108
  793TIP3    H2 2257   2.915   3.152   1.227
  794TIP3   OH2 2258   3.298   3.247   0.204
  794TIP3    H1 2259   3.246   3.325   0.182
  794TIP3    H2 2260   3.233   3.178   0.216
  795TIP3   OH2 2261   2.759   3.072   1.771
  795TIP3    H1 2262   2.767   3.095   1.864
  795TIP3    H2 2263   2.667   3.045   1.761
  796TIP3   OH2 2264   3.420   3.226   1.816
  796TIP3    H1 2265   3.349   3.170   1.784
  796TIP3    H2 2266   3.500   3.184   1.784
  797TIP3   OH2 2267   3.628   3.748   1.394
  797TIP3    H1 2268   3.532   3.755   1.392
  797TIP3    H2 2269   3.654   3.797   1.472
  798TIP3   OH2 2270   4.082   2.862   0.303
  798TIP3    H1 2271   4.076   2.805   0.227
  798TIP3    H2 2272   4.110   2.947   0.269
  799TIP3   OH2 2273   4.280   3.674   1.356
  799TIP3    H1 2274   4.185   3.663   1.348
  799TIP3    H2 2275   4.315   3.648   1.271
  800TIP3   OH2 2276   3.757   3.635   0.239
  800TIP3    H1 2277   3.768   3.591   0.324
  800TIP3    H2 2278   3.781   3.570   0.174
  801TIP3   OH2 2279   3.754   3.292   0.999
  801TIP3    H1 2280   3.669   3.249   1.010
  801TIP3    H2 2281   3.812   3.222   0.968
  802TIP3   OH2 2282   2.938   3.543   0.859
  802TIP3    H1 2283   2.910   3.630   0.829
  802TIP3    H2 2284   2.856   3.496   0.873
  803TIP3   OH2 2285   3.123   3.128   0.731
  803TIP3    H1 2286   3.050   3.186   0.750
  803TIP3    H2 2287   3.083   3.048   0.696
  804TIP3   OH2 2288   3.171   3.824   1.254
  804TIP3    H1 2289   3.214   3.898   1.211
  804TIP3    H2 2290   3.237   3.789   1.314
  805TIP3   OH2 2291   2.839   3.837   0.542
  805TIP3    H1 2292   2.809   3.797   0.624
  805TIP3    H2 2293   2.882   3.918   0.569
  806TIP3   OH2 2294   3.611   3.462   1.193
  806TIP3    H1 2295   3.667   3.469   1.271
  806TIP3    H2 2296   3.661   3.407   1.133
  807TIP3   OH2 2297   3.493   3.357   0.052
  807TIP3    H1 2298   3.567   3.296   0.043
  807TIP3    H2 2299   3.423   3.304   0.089
  808TIP3   OH2 2300   3.787   3.996   1.263
  808TIP3    H1 2301   3.707   3.943   1.262
  808TIP3    H2 2302   3.777   4.056   1.189
  809TIP3   OH2 2303   7.156   8.514   7.852
  809TIP3    H1 2304   7.208   8.592   7.875
  809TIP3    H2 2305   7.068   8.534   7.884
  810TIP3   OH2 2306   2.992   2.680   1.832
  810TIP3    H1 2307   2.932   2.685   1.907
  810TIP3    H2 2308   3.031   2.592   1.839
  811TIP3   OH2 2309   3.752   3.275   0.328
  811TIP3    H1 2310   3.745   3.231   0.412
  811TIP3    H2 2311   3.845   3.296   0.319
  812TIP3   OH2 2312   2.675   3.746   1.449
  812TIP3    H1 2313   2.771   3.751   1.445
  812TIP3    H2 2314   2.652   3.794   1.528
  813TIP3   OH2 2315   3.030   3.245   0.140
  813TIP3    H1 2316   2.976   3.169   0.120
  813TIP3    H2 2317   2.977   3.297   0.200
  814TIP3   OH2 2318   2.853   3.368   0.311
  814TIP3    H1 2319   2.888   3.316   0.384
  814TIP3    H2 2320   2.854   3.458   0.343
  815TIP3   OH2 2321   3.727   2.675   1.472
  815TIP3    H1 2322   3.806   2.727   1.490
  815TIP3    H2 2323   3.724   2.611   1.543
  816TIP3   OH2 2324   3.562   2.473   0.559
  816TIP3    H1 2325   3.507   2.498   0.485
  816TIP3    H2 2326   3.611   2.552   0.581
  817TIP3   OH2 2327   3.118   3.546   0.409
  817TIP3    H1 2328   3.032   3.586   0.397
  817TIP3    H2 2329   3.156   3.542   0.321
  818TIP3   OH2 2330   3.316   2.562   0.739
  818TIP3    H1 2331   3.392   2.618   0.754
  818TIP3    H2 2332   3.303   2.517   0.823
  819TIP3   OH2 2333   3.597   2.924   1.552
  819TIP3    H1 2334   3.618   2.969   1.634
  819TIP3    H2 2335   3.644   2.841   1.559
  820TIP3   OH2 2336   3.535   2.417   0.884
  820TIP3    H1 2337   3.447   2.380   0.889
  820TIP3    H2 2338   3.567   2.391   0.797
  821TIP3   OH2 2339   2.869   3.637   0.366
  821TIP3    H1 2340   2.847   3.681   0.284
  821TIP3    H2 2341   2.847   3.701   0.434
  822TIP3   OH2 2342   4.190   2.812   1.514
  822TIP3    H1 2343   4.094   2.811   1.519
  822TIP3    H2 2344   4.210   2.768   1.432
  823TIP3   OH2 2345   3.907   3.065   0.936
  823TIP3    H1 2346   3.829   3.011   0.936
  823TIP3    H2 2347   3.970   3.017   0.989
  824TIP3   OH2 2348   2.536   3.257   0.321
  824TIP3    H1 2349   2.546   3.346   0.355
  824TIP3    H2 2350   2.610   3.246   0.262
  825TIP3   OH2 2351   3.821   3.983   0.835
  825TIP3    H1 2352   3.780   4.037   0.767
  825TIP3    H2 2353   3.915   3.995   0.821
  826TIP3   OH2 2354   2.879   2.235   1.368
  826TIP3    H1 2355   2.846   2.273   1.286
  826TIP3    H2 2356   2.882   2.141   1.352
  827TIP3   OH2 2357   2.443   3.458   0.727
  827TIP3    H1 2358   2.395   3.526   0.775
  827TIP3    H2 2359   2.417   3.472   0.636
  828TIP3   OH2 2360   2.555   3.967   1.842
  828TIP3    H1 2361   2.639   4.008   1.862
  828TIP3    H2 2362   2.557   3.884   1.890
  829TIP3   OH2 2363   6.293   8.088   7.958
  829TIP3    H1 2364   6.343   8.082   8.040
  829TIP3    H2 2365   6.349   8.140   7.900
  830TIP3   OH2 2366   3.708   3.864   1.629
  830TIP3    H1 2367   3.723   3.795   1.694
  830TIP3    H2 2368   3.781   3.925   1.642
  831TIP3   OH2 2369   6.787   8.208   7.912
  831TIP3    H1 2370   6.752   8.135   7.964
  831TIP3    H2 2371   6.866   8.172   7.872
  832TIP3   OH2 2372   2.754   3.409   2.043
  832TIP3    H1 2373   2.793   3.322   2.028
  832TIP3    H2 2374   2.670   3.405   1.999
  833TIP3   OH2 2375   3.324   3.481   1.777
  833TIP3    H1 2376   3.374   3.501   1.699
  833TIP3    H2 2377   3.354   3.394   1.804
  834TIP3   OH2 2378   6.369   7.836   7.853
  834TIP3    H1 2379   6.340   7.911   7.906
  834TIP3    H2 2380   6.311   7.765   7.878
  835TIP3   OH2 2381   3.797   3.534   1.401
  835TIP3    H1 2382   3.880   3.559   1.362
  835TIP3    H2 2383   3.744   3.614   1.399
  836TIP3   OH2 2384   2.882   3.151   2.025
  836TIP3    H1 2385   2.965   3.109   2.002
  836TIP3    H2 2386   2.894   3.179   2.115
  837TIP3   OH2 2387   2.954   2.953   0.608
  837TIP3    H1 2388   2.865   2.950   0.643
  837TIP3    H2 2389   2.959   2.878   0.549
  838TIP3   OH2 2390   3.220   3.070   1.716
  838TIP3    H1 2391   3.130   3.039   1.708
  838TIP3    H2 2392   3.249   3.084   1.626
  839TIP3   OH2 2393   3.699   3.417   1.758
  839TIP3    H1 2394   3.775   3.381   1.712
  839TIP3    H2 2395   3.691   3.362   1.836
  840TIP3   OH2 2396   7.100   7.633   7.816
  840TIP3    H1 2397   7.160   7.588   7.756
  840TIP3    H2 2398   7.157   7.671   7.883
  841TIP3   OH2 2399   3.316   2.840   1.834
  841TIP3    H1 2400   3.328   2.770   1.770
  841TIP3    H2 2401   3.290   2.916   1.782
  842TIP3   OH2 2402   3.363   2.654   1.637
  842TIP3    H1 2403   3.393   2.694   1.556
  842TIP3    H2 2404   3.275   2.623   1.618
  843TIP3   OH2 2405   3.337   3.132   1.476
  843TIP3    H1 2406   3.427   3.144   1.448
  843TIP3    H2 2407   3.290   3.207   1.439
  844TIP3   OH2 2408   3.920   3.109   1.853
  844TIP3    H1 2409   3.967   3.025   1.851
  844TIP3    H2 2410   3.988   3.175   1.846
  845TIP3   OH2 2411   3.935   3.376   1.582
  845TIP3    H1 2412   3.880   3.432   1.527
  845TIP3    H2 2413   4.024   3.391   1.549
  846TIP3   OH2 2414   3.171   2.917   2.054
  846TIP3    H1 2415   3.113   2.845   2.079
  846TIP3    H2 2416   3.207   2.890   1.970
  847TIP3   OH2 2417   3.466   2.424   1.739
  847TIP3    H1 2418   3.437   2.510   1.707
  847TIP3    H2 2419   3.391   2.367   1.721
  848TIP3   OH2 2420   3.579   2.864   1.917
  848TIP3    H1 2421   3.589   2.849   2.011
  848TIP3    H2 2422   3.487   2.845   1.899
  849TIP3   OH2 2423   3.813   2.823   1.770
  849TIP3    H1 2424   3.735   2.819   1.826
  849TIP3    H2 2425   3.885   2.795   1.827
  850TIP3   OH2 2426   4.041   2.778   1.924
  850TIP3    H1 2427   4.055   2.683   1.931
  850TIP3    H2 2428   4.035   2.808   2.014
  851TIP3   OH2 2429   3.034   2.689   2.144
  851TIP3    H1 2430   3.029   2.595   2.124
  851TIP3    H2 2431   3.078   2.693   2.229
  852TIP3   OH2 2432   3.507   2.352   1.995
  852TIP3    H1 2433   3.571   2.282   1.985
  852TIP3    H2 2434   3.485   2.379   1.906
  853TIP3   OH2 2435   3.593   2.582   2.117
  853TIP3    H1 2436   3.564   2.504   2.070
  853TIP3    H2 2437   3.516   2.640   2.117
  854TIP3   OH2 2438   2.805   3.778   0.149
  854TIP3    H1 2439   2.878   3.826   0.108
  854TIP3    H2 2440   2.732   3.840   0.147
  855TIP3   OH2 2441   2.233   3.869   0.903
  855TIP3    H1 2442   2.220   3.785   0.858
  855TIP3    H2 2443   2.268   3.846   0.989
  856TIP3   OH2 2444   2.331   3.759   1.135
  856TIP3    H1 2445   2.370   3.689   1.082
  856TIP3    H2 2446   2.402   3.788   1.192
  857TIP3   OH2 2447   4.090   4.040   0.825
  857TIP3    H1 2448   4.119   4.061   0.914
  857TIP3    H2 2449   4.156   4.080   0.768
  858TIP3   OH2 2450   4.121   4.057   1.109
  858TIP3    H1 2451   4.070   3.976   1.103
  858TIP3    H2 2452   4.189   4.038   1.173
  859TIP3   OH2 2453   4.171   3.762   1.676
  859TIP3    H1 2454   4.100   3.772   1.739
  859TIP3    H2 2455   4.219   3.845   1.680
  860TIP3   OH2 2456   4.020   3.314   0.301
  860TIP3    H1 2457   4.079   3.383   0.271
  860TIP3    H2 2458   4.065   3.275   0.376
  861TIP3   OH2 2459   4.147   3.167   0.492
  861TIP3    H1 2460   4.088   3.125   0.554
  861TIP3    H2 2461   4.219   3.199   0.546
  862TIP3   OH2 2462   4.167   3.537   0.918
  862TIP3    H1 2463   4.218   3.463   0.886
  862TIP3    H2 2464   4.176   3.604   0.850
  863TIP3   OH2 2465   3.965   3.828   1.119
  863TIP3    H1 2466   3.896   3.873   1.168
  863TIP3    H2 2467   3.918   3.787   1.046
  864TIP3   OH2 2468   4.120   3.100   0.156
  864TIP3    H1 2469   4.034   3.068   0.129
  864TIP3    H2 2470   4.102   3.178   0.208
  865TIP3   OH2 2471   7.037   7.395   8.012
  865TIP3    H1 2472   7.083   7.379   7.929
  865TIP3    H2 2473   7.022   7.308   8.048
  866TIP3   OH2 2474   3.985   3.038   0.672
  866TIP3    H1 2475   3.988   2.945   0.651
  866TIP3    H2 2476   3.972   3.042   0.766
  867TIP3   OH2 2477   2.625   3.169   1.363
  867TIP3    H1 2478   2.663   3.149   1.277
  867TIP3    H2 2479   2.700   3.196   1.416
  868TIP3   OH2 2480   4.193   3.413   1.485
  868TIP3    H1 2481   4.259   3.344   1.473
  868TIP3    H2 2482   4.219   3.482   1.425
  869TIP3   OH2 2483   4.374   3.205   1.485
  869TIP3    H1 2484   4.300   3.159   1.526
  869TIP3    H2 2485   4.451   3.152   1.509
  870TIP3   OH2 2486   3.860   2.484  -0.006
  870TIP3    H1 2487   3.893   2.396  -0.026
  870TIP3    H2 2488   3.798   2.470   0.065
  871TIP3   OH2 2489   3.992   2.786   0.552
  871TIP3    H1 2490   4.062   2.725   0.574
  871TIP3    H2 2491   4.014   2.819   0.465
  872TIP3   OH2 2492   4.092   2.908   1.069
  872TIP3    H1 2493   4.172   2.936   1.024
  872TIP3    H2 2494   4.102   2.940   1.158
  873TIP3   OH2 2495   4.152   3.050   1.294
  873TIP3    H1 2496   4.074   3.077   1.342
  873TIP3    H2 2497   4.178   3.128   1.244
  874TIP3   OH2 2498   2.782   2.760   2.074
  874TIP3    H1 2499   2.874   2.759   2.100
  874TIP3    H2 2500   2.746   2.680   2.113
  875TIP3   OH2 2501   4.603   2.631   1.802
  875TIP3    H1 2502   4.667   2.574   1.759
  875TIP3    H2 2503   4.567   2.684   1.730
  876TIP3   OH2 2504   4.098   2.559   0.707
  876TIP3    H1 2505   4.082   2.616   0.783
  876TIP3    H2 2506   4.011   2.530   0.680
  877TIP3   OH2 2507   2.670   2.447   1.376
  877TIP3    H1 2508   2.700   2.440   1.285
  877TIP3    H2 2509   2.622   2.530   1.379
  878TIP3   OH2 2510   2.525   2.680   1.421
  878TIP3    H1 2511   2.465   2.697   1.348
  878TIP3    H2 2512   2.584   2.755   1.423
  879TIP3   OH2 2513   4.453   2.756   1.612
  879TIP3    H1 2514   4.373   2.796   1.648
  879TIP3    H2 2515   4.421   2.687   1.554
  880TIP3   OH2 2516   4.070   2.393   0.185
  880TIP3    H1 2517   4.018   2.331   0.133
  880TIP3    H2 2518   4.155   2.396   0.140
  881TIP3   OH2 2519   3.676   3.946   0.465
  881TIP3    H1 2520   3.723   3.940   0.382
  881TIP3    H2 2521   3.713   4.023   0.508
  882TIP3   OH2 2522   2.679   2.253   1.807
  882TIP3    H1 2523   2.604   2.258   1.866
  882TIP3    H2 2524   2.715   2.342   1.806
  883TIP3   OH2 2525   2.801   3.725   1.906
  883TIP3    H1 2526   2.706   3.712   1.917
  883TIP3    H2 2527   2.816   3.814   1.937
  884TIP3   OH2 2528   2.947   3.799   1.421
  884TIP3    H1 2529   2.909   3.882   1.394
  884TIP3    H2 2530   3.023   3.787   1.363
  885TIP3   OH2 2531   3.393   4.007   1.522
  885TIP3    H1 2532   3.424   4.002   1.612
  885TIP3    H2 2533   3.456   4.065   1.478
  886TIP3   OH2 2534   3.571   4.181   1.403
  886TIP3    H1 2535   3.639   4.131   1.358
  886TIP3    H2 2536   3.619   4.240   1.461
  887TIP3   OH2 2537   4.358   2.513   1.502
  887TIP3    H1 2538   4.272   2.507   1.461
  887TIP3    H2 2539   4.393   2.424   1.498
  888TIP3   OH2 2540   2.838   4.032   1.326
  888TIP3    H1 2541   2.807   4.108   1.376
  888TIP3    H2 2542   2.798   4.042   1.240
  889TIP3   OH2 2543   3.272   4.034   1.104
  889TIP3    H1 2544   3.204   4.045   1.038
  889TIP3    H2 2545   3.282   4.121   1.143
  890TIP3   OH2 2546   3.537   3.964   1.137
  890TIP3    H1 2547   3.443   3.982   1.128
  890TIP3    H2 2548   3.579   4.029   1.083
  891TIP3   OH2 2549   3.748   4.153   1.039
  891TIP3    H1 2550   3.738   4.238   0.996
  891TIP3    H2 2551   3.772   4.093   0.968
  892TIP3   OH2 2552   2.582   3.868   1.211
  892TIP3    H1 2553   2.596   3.838   1.301
  892TIP3    H2 2554   2.643   3.816   1.159
  893TIP3   OH2 2555   2.756   3.717   1.063
  893TIP3    H1 2556   2.766   3.629   1.099
  893TIP3    H2 2557   2.845   3.752   1.060
  894TIP3   OH2 2558   3.022   3.779   1.029
  894TIP3    H1 2559   3.037   3.687   1.007
  894TIP3    H2 2560   3.068   3.792   1.112
  895TIP3   OH2 2561   3.659   2.434   1.135
  895TIP3    H1 2562   3.617   2.380   1.202
  895TIP3    H2 2563   3.614   2.410   1.054
  896TIP3   OH2 2564   4.139   2.349   1.041
  896TIP3    H1 2565   4.192   2.425   1.016
  896TIP3    H2 2566   4.049   2.378   1.031
  897TIP3   OH2 2567   4.295   2.550   0.932
  897TIP3    H1 2568   4.345   2.487   0.881
  897TIP3    H2 2569   4.280   2.623   0.872
  898TIP3   OH2 2570   3.192   2.011   0.856
  898TIP3    H1 2571   3.272   2.061   0.875
  898TIP3    H2 2572   3.123   2.058   0.903
  899TIP3   OH2 2573   3.890   2.433   0.977
  899TIP3    H1 2574   3.837   2.485   0.917
  899TIP3    H2 2575   3.827   2.391   1.034
  900TIP3   OH2 2576   3.713   2.274   0.414
  900TIP3    H1 2577   3.669   2.318   0.487
  900TIP3    H2 2578   3.771   2.210   0.456
  901TIP3   OH2 2579   2.288   3.626   0.540
  901TIP3    H1 2580   2.226   3.628   0.612
  901TIP3    H2 2581   2.264   3.701   0.486
  902TIP3   OH2 2582   3.118   2.272   0.708
  902TIP3    H1 2583   3.074   2.217   0.644
  902TIP3    H2 2584   3.207   2.280   0.675
  903TIP3   OH2 2585   3.123   3.770   0.127
  903TIP3    H1 2586   3.211   3.796   0.102
  903TIP3    H2 2587   3.074   3.765   0.045
  904TIP3   OH2 2588   3.796   3.907   0.216
  904TIP3    H1 2589   3.788   3.812   0.219
  904TIP3    H2 2590   3.756   3.931   0.132
  905TIP3   OH2 2591   3.039   2.414   2.119
  905TIP3    H1 2592   3.010   2.331   2.156
  905TIP3    H2 2593   3.133   2.417   2.137
  906TIP3   OH2 2594   3.306   2.403   2.183
  906TIP3    H1 2595   3.374   2.388   2.117
  906TIP3    H2 2596   3.310   2.326   2.240
  907TIP3   OH2 2597   2.455   3.720   0.155
  907TIP3    H1 2598   2.365   3.691   0.173
  907TIP3    H2 2599   2.507   3.640   0.161
  908TIP3   OH2 2600   4.109   2.509   1.934
  908TIP3    H1 2601   4.127   2.479   2.023
  908TIP3    H2 2602   4.193   2.508   1.890
  909TIP3   OH2 2603   4.016   4.032   1.426
  909TIP3    H1 2604   3.938   4.005   1.377
  909TIP3    H2 2605   4.006   4.127   1.436
  910TIP3   OH2 2606   5.292   3.416   0.179
  910TIP3    H1 2607   5.262   3.505   0.161
  910TIP3    H2 2608   5.220   3.360   0.150
  911TIP3   OH2 2609   5.293   3.416   0.598
  911TIP3    H1 2610   5.353   3.394   0.670
  911TIP3    H2 2611   5.249   3.334   0.579
  912TIP3   OH2 2612   4.591   3.274   0.942
  912TIP3    H1 2613   4.630   3.220   1.011
  912TIP3    H2 2614   4.663   3.296   0.884
  913TIP3   OH2 2615   5.575   3.720   0.265
  913TIP3    H1 2616   5.551   3.656   0.332
  913TIP3    H2 2617   5.590   3.801   0.312
  914TIP3   OH2 2618   4.580   3.702   0.623
  914TIP3    H1 2619   4.564   3.608   0.625
  914TIP3    H2 2620   4.675   3.710   0.615
  915TIP3   OH2 2621   4.331   2.968   0.407
  915TIP3    H1 2622   4.273   3.043   0.426
  915TIP3    H2 2623   4.275   2.891   0.418
  916TIP3   OH2 2624   4.369   3.236   0.634
  916TIP3    H1 2625   4.421   3.160   0.659
  916TIP3    H2 2626   4.433   3.305   0.616
  917TIP3   OH2 2627   5.214   4.146   0.293
  917TIP3    H1 2628   5.243   4.082   0.228
  917TIP3    H2 2629   5.228   4.103   0.377
  918TIP3   OH2 2630   5.101   3.637   0.597
  918TIP3    H1 2631   5.146   3.557   0.570
  918TIP3    H2 2632   5.171   3.694   0.627
  919TIP3   OH2 2633   6.126   2.957   0.611
  919TIP3    H1 2634   6.151   3.035   0.661
  919TIP3    H2 2635   6.173   2.966   0.528
  920TIP3   OH2 2636   5.503   3.104   0.614
  920TIP3    H1 2637   5.563   3.035   0.644
  920TIP3    H2 2638   5.490   3.085   0.521
  921TIP3   OH2 2639   4.881   2.789   0.591
  921TIP3    H1 2640   4.857   2.862   0.535
  921TIP3    H2 2641   4.825   2.717   0.562
  922TIP3   OH2 2642   4.520   3.025   0.724
  922TIP3    H1 2643   4.598   3.000   0.773
  922TIP3    H2 2644   4.518   2.966   0.649
  923TIP3   OH2 2645   4.917   3.207   0.548
  923TIP3    H1 2646   5.011   3.191   0.554
  923TIP3    H2 2647   4.881   3.125   0.513
  924TIP3   OH2 2648   6.196   3.172   0.775
  924TIP3    H1 2649   6.108   3.211   0.771
  924TIP3    H2 2650   6.234   3.207   0.855
  925TIP3   OH2 2651   4.852   2.788   1.045
  925TIP3    H1 2652   4.807   2.827   0.970
  925TIP3    H2 2653   4.794   2.804   1.119
  926TIP3   OH2 2654   5.158   3.630   0.070
  926TIP3    H1 2655   5.150   3.615  -0.024
  926TIP3    H2 2656   5.116   3.715   0.084
  927TIP3   OH2 2657   4.935   3.564   0.805
  927TIP3    H1 2658   4.882   3.637   0.838
  927TIP3    H2 2659   4.985   3.601   0.733
  928TIP3   OH2 2660   4.761   2.902   0.812
  928TIP3    H1 2661   4.815   2.978   0.835
  928TIP3    H2 2662   4.806   2.861   0.738
  929TIP3   OH2 2663   4.781   3.768   0.911
  929TIP3    H1 2664   4.768   3.858   0.883
  929TIP3    H2 2665   4.703   3.748   0.962
  930TIP3   OH2 2666   4.194   3.491   0.183
  930TIP3    H1 2667   4.162   3.513   0.096
  930TIP3    H2 2668   4.213   3.576   0.223
  931TIP3   OH2 2669   5.594   3.962   0.408
  931TIP3    H1 2670   5.506   3.956   0.445
  931TIP3    H2 2671   5.595   4.046   0.364
  932TIP3   OH2 2672   5.911   2.847   0.773
  932TIP3    H1 2673   5.823   2.867   0.742
  932TIP3    H2 2674   5.969   2.879   0.704
  933TIP3   OH2 2675   5.196   2.477   0.782
  933TIP3    H1 2676   5.189   2.385   0.805
  933TIP3    H2 2677   5.119   2.518   0.822
  934TIP3   OH2 2678   5.308   4.004   0.072
  934TIP3    H1 2679   5.361   3.926   0.058
  934TIP3    H2 2680   5.366   4.077   0.048
  935TIP3   OH2 2681   5.462   3.787   0.020
  935TIP3    H1 2682   5.457   3.709  -0.035
  935TIP3    H2 2683   5.502   3.756   0.101
  936TIP3   OH2 2684   5.835   3.850   0.748
  936TIP3    H1 2685   5.819   3.775   0.691
  936TIP3    H2 2686   5.821   3.926   0.693
  937TIP3   OH2 2687   8.382   7.882   8.029
  937TIP3    H1 2688   8.302   7.932   8.014
  937TIP3    H2 2689   8.424   7.879   7.943
  938TIP3   OH2 2690   8.373   7.656   7.766
  938TIP3    H1 2691   8.442   7.722   7.774
  938TIP3    H2 2692   8.413   7.576   7.798
  939TIP3   OH2 2693   6.022   3.510   0.578
  939TIP3    H1 2694   5.939   3.557   0.581
  939TIP3    H2 2695   6.063   3.538   0.497
  940TIP3   OH2 2696   5.482   3.309   0.018
  940TIP3    H1 2697   5.428   3.349   0.085
  940TIP3    H2 2698   5.538   3.248   0.065
  941TIP3   OH2 2699   5.715   3.376   0.926
  941TIP3    H1 2700   5.707   3.460   0.972
  941TIP3    H2 2701   5.637   3.370   0.872
  942TIP3   OH2 2702   4.718   3.333   0.394
  942TIP3    H1 2703   4.682   3.268   0.333
  942TIP3    H2 2704   4.792   3.288   0.435
  943TIP3   OH2 2705   4.845   3.751   0.529
  943TIP3    H1 2706   4.822   3.738   0.437
  943TIP3    H2 2707   4.933   3.713   0.537
  944TIP3   OH2 2708   4.800   3.330   0.764
  944TIP3    H1 2709   4.842   3.292   0.687
  944TIP3    H2 2710   4.848   3.412   0.780
  945TIP3   OH2 2711   5.351   3.963   0.533
  945TIP3    H1 2712   5.342   4.042   0.586
  945TIP3    H2 2713   5.338   3.891   0.595
  946TIP3   OH2 2714   4.981   3.860   1.082
  946TIP3    H1 2715   4.919   3.915   1.129
  946TIP3    H2 2716   4.926   3.809   1.022
  947TIP3   OH2 2717   8.577   7.857   7.817
  947TIP3    H1 2718   8.639   7.887   7.885
  947TIP3    H2 2719   8.576   7.928   7.754
  948TIP3   OH2 2720   4.735   3.406   1.235
  948TIP3    H1 2721   4.738   3.500   1.248
  948TIP3    H2 2722   4.641   3.386   1.226
  949TIP3   OH2 2723   5.054   3.889   0.078
  949TIP3    H1 2724   5.141   3.929   0.087
  949TIP3    H2 2725   5.002   3.955   0.032
  950TIP3   OH2 2726   4.768   4.015   1.167
  950TIP3    H1 2727   4.745   4.028   1.075
  950TIP3    H2 2728   4.683   4.005   1.211
  951TIP3   OH2 2729   9.073   7.043   7.886
  951TIP3    H1 2730   9.002   7.074   7.942
  951TIP3    H2 2731   9.082   7.110   7.819
  952TIP3   OH2 2732   4.587   3.170   0.209
  952TIP3    H1 2733   4.530   3.237   0.170
  952TIP3    H2 2734   4.527   3.099   0.234
  953TIP3   OH2 2735   4.366   3.576   1.117
  953TIP3    H1 2736   4.299   3.556   1.052
  953TIP3    H2 2737   4.401   3.491   1.142
  954TIP3   OH2 2738   4.239   3.755   0.754
  954TIP3    H1 2739   4.334   3.752   0.741
  954TIP3    H2 2740   4.225   3.831   0.810
  955TIP3   OH2 2741   6.070   4.223   0.831
  955TIP3    H1 2742   6.073   4.128   0.841
  955TIP3    H2 2743   5.989   4.249   0.876
  956TIP3   OH2 2744   5.170   4.007   0.947
  956TIP3    H1 2745   5.161   4.097   0.976
  956TIP3    H2 2746   5.104   3.958   0.996
  957TIP3   OH2 2747   8.190   8.712   7.927
  957TIP3    H1 2748   8.106   8.669   7.913
  957TIP3    H2 2749   8.167   8.802   7.948
  958TIP3   OH2 2750   4.391   3.969   0.282
  958TIP3    H1 2751   4.437   3.962   0.366
  958TIP3    H2 2752   4.342   3.887   0.275
  959TIP3   OH2 2753   8.453   8.711   7.830
  959TIP3    H1 2754   8.359   8.710   7.850
  959TIP3    H2 2755   8.493   8.659   7.900
  960TIP3   OH2 2756   5.957   3.319   1.077
  960TIP3    H1 2757   5.873   3.333   1.034
  960TIP3    H2 2758   5.973   3.224   1.070
  961TIP3   OH2 2759   4.562   3.767   1.082
  961TIP3    H1 2760   4.615   3.753   1.160
  961TIP3    H2 2761   4.491   3.703   1.089
  962TIP3   OH2 2762   4.963   2.573   0.905
  962TIP3    H1 2763   4.880   2.540   0.871
  962TIP3    H2 2764   4.940   2.654   0.949
  963TIP3   OH2 2765   5.490   2.693   1.104
  963TIP3    H1 2766   5.560   2.670   1.165
  963TIP3    H2 2767   5.409   2.677   1.152
  964TIP3   OH2 2768   5.708   3.112   1.021
  964TIP3    H1 2769   5.672   3.110   1.110
  964TIP3    H2 2770   5.695   3.202   0.992
  965TIP3   OH2 2771   8.396   7.252   7.862
  965TIP3    H1 2772   8.370   7.232   7.952
  965TIP3    H2 2773   8.313   7.263   7.815
  966TIP3   OH2 2774   4.896   3.117   0.915
  966TIP3    H1 2775   4.848   3.120   0.997
  966TIP3    H2 2776   4.871   3.198   0.870
  967TIP3   OH2 2777   4.783   2.995   0.438
  967TIP3    H1 2778   4.697   2.966   0.468
  967TIP3    H2 2779   4.787   2.967   0.347
  968TIP3   OH2 2780   5.244   3.057   0.158
  968TIP3    H1 2781   5.193   3.132   0.125
  968TIP3    H2 2782   5.285   3.020   0.079
  969TIP3   OH2 2783   5.431   3.319   1.227
  969TIP3    H1 2784   5.406   3.251   1.290
  969TIP3    H2 2785   5.523   3.337   1.247
  970TIP3   OH2 2786   5.456   3.069   0.342
  970TIP3    H1 2787   5.372   3.075   0.297
  970TIP3    H2 2788   5.513   3.022   0.281
  971TIP3   OH2 2789   4.729   3.119   1.132
  971TIP3    H1 2790   4.739   3.182   1.204
  971TIP3    H2 2791   4.710   3.036   1.175
  972TIP3   OH2 2792   8.116   7.278   7.829
  972TIP3    H1 2793   8.133   7.191   7.793
  972TIP3    H2 2794   8.026   7.298   7.804
  973TIP3   OH2 2795   4.312   2.773   0.766
  973TIP3    H1 2796   4.404   2.755   0.786
  973TIP3    H2 2797   4.305   2.760   0.671
  974TIP3   OH2 2798   4.276   2.634   0.234
  974TIP3    H1 2799   4.337   2.697   0.195
  974TIP3    H2 2800   4.199   2.637   0.178
  975TIP3   OH2 2801   5.471   3.311   0.793
  975TIP3    H1 2802   5.488   3.242   0.728
  975TIP3    H2 2803   5.424   3.266   0.863
  976TIP3   OH2 2804   5.136   2.774   0.476
  976TIP3    H1 2805   5.056   2.777   0.529
  976TIP3    H2 2806   5.205   2.757   0.540
  977TIP3   OH2 2807   4.561   2.857   0.512
  977TIP3    H1 2808   4.482   2.874   0.461
  977TIP3    H2 2809   4.583   2.766   0.492
  978TIP3   OH2 2810   4.791   2.867   0.193
  978TIP3    H1 2811   4.887   2.873   0.188
  978TIP3    H2 2812   4.761   2.890   0.105
  979TIP3   OH2 2813   5.632   2.868   0.710
  979TIP3    H1 2814   5.582   2.884   0.790
  979TIP3    H2 2815   5.585   2.798   0.666
  980TIP3   OH2 2816   7.936   7.530   7.958
  980TIP3    H1 2817   7.852   7.507   7.917
  980TIP3    H2 2818   7.994   7.552   7.886
  981TIP3   OH2 2819   5.763   4.558   0.913
  981TIP3    H1 2820   5.760   4.569   0.818
  981TIP3    H2 2821   5.843   4.604   0.940
  982TIP3   OH2 2822   4.716   3.677   1.314
  982TIP3    H1 2823   4.797   3.696   1.361
  982TIP3    H2 2824   4.647   3.686   1.380
  983TIP3   OH2 2825   5.187   3.145   0.596
  983TIP3    H1 2826   5.263   3.102   0.557
  983TIP3    H2 2827   5.177   3.105   0.682
  984TIP3   OH2 2828   4.703   2.610   0.478
  984TIP3    H1 2829   4.666   2.532   0.518
  984TIP3    H2 2830   4.736   2.581   0.393
  985TIP3   OH2 2831   5.153   3.046   0.855
  985TIP3    H1 2832   5.068   3.081   0.879
  985TIP3    H2 2833   5.216   3.098   0.904
  986TIP3   OH2 2834   8.152   8.031   7.967
  986TIP3    H1 2835   8.087   7.964   7.948
  986TIP3    H2 2836   8.126   8.068   8.051
  987TIP3   OH2 2837   5.782   3.650   0.564
  987TIP3    H1 2838   5.815   3.700   0.490
  987TIP3    H2 2839   5.698   3.616   0.534
  988TIP3   OH2 2840   8.655   7.334   7.843
  988TIP3    H1 2841   8.569   7.293   7.834
  988TIP3    H2 2842   8.637   7.427   7.857
  989TIP3   OH2 2843   5.299   3.739   0.985
  989TIP3    H1 2844   5.353   3.726   1.063
  989TIP3    H2 2845   5.262   3.826   0.995
  990TIP3   OH2 2846   8.629   7.598   7.916
  990TIP3    H1 2847   8.714   7.592   7.961
  990TIP3    H2 2848   8.631   7.683   7.872
  991TIP3   OH2 2849   4.578   3.420   0.613
  991TIP3    H1 2850   4.618   3.399   0.529
  991TIP3    H2 2851   4.642   3.390   0.678
  992TIP3   OH2 2852   8.325   8.175   7.812
  992TIP3    H1 2853   8.281   8.260   7.801
  992TIP3    H2 2854   8.266   8.124   7.867
  993TIP3   OH2 2855   4.460   3.345   1.253
  993TIP3    H1 2856   4.461   3.318   1.345
  993TIP3    H2 2857   4.386   3.299   1.215
  994TIP3   OH2 2858   5.203   3.478   1.269
  994TIP3    H1 2859   5.133   3.419   1.243
  994TIP3    H2 2860   5.283   3.435   1.239
  995TIP3   OH2 2861   5.441   4.027   0.873
  995TIP3    H1 2862   5.346   4.015   0.874
  995TIP3    H2 2863   5.462   4.062   0.960
  996TIP3   OH2 2864   9.115   7.687   7.840
  996TIP3    H1 2865   9.046   7.650   7.894
  996TIP3    H2 2866   9.073   7.704   7.756
  997TIP3   OH2 2867   6.077   3.942   0.843
  997TIP3    H1 2868   5.983   3.925   0.837
  997TIP3    H2 2869   6.112   3.912   0.759
  998TIP3   OH2 2870   5.537   3.531   0.474
  998TIP3    H1 2871   5.448   3.508   0.499
  998TIP3    H2 2872   5.573   3.451   0.436
  999TIP3   OH2 2873   4.703   3.758   0.287
  999TIP3    H1 2874   4.702   3.834   0.228
  999TIP3    H2 2875   4.611   3.744   0.309
 1000TIP3   OH2 2876   4.346   3.086   0.003
 1000TIP3    H1 2877   4.390   3.170   0.013
 1000TIP3    H2 2878   4.275   3.088   0.067
 1001TIP3   OH2 2879   4.785   3.512   0.193
 1001TIP3    H1 2880   4.770   3.601   0.225
 1001TIP3    H2 2881   4.763   3.456   0.267
 1002TIP3   OH2 2882   4.989   4.076   0.739
 1002TIP3    H1 2883   5.025   4.150   0.690
 1002TIP3    H2 2884   5.063   4.043   0.790
 1003TIP3   OH2 2885   4.620   3.981   0.132
 1003TIP3    H1 2886   4.533   3.985   0.173
 1003TIP3    H2 2887   4.656   4.069   0.144
 1004TIP3   OH2 2888   5.334   3.745   0.709
 1004TIP3    H1 2889   5.322   3.740   0.804
 1004TIP3    H2 2890   5.412   3.692   0.692
 1005TIP3   OH2 2891   5.599   4.226   0.755
 1005TIP3    H1 2892   5.530   4.163   0.779
 1005TIP3    H2 2893   5.560   4.278   0.685
 1006TIP3   OH2 2894   4.675   2.865   1.247
 1006TIP3    H1 2895   4.581   2.880   1.251
 1006TIP3    H2 2896   4.694   2.810   1.323
 1007TIP3   OH2 2897   8.753   8.167   7.871
 1007TIP3    H1 2898   8.751   8.089   7.928
 1007TIP3    H2 2899   8.835   8.160   7.824
 1008TIP3   OH2 2900   4.407   3.976   0.904
 1008TIP3    H1 2901   4.459   3.915   0.956
 1008TIP3    H2 2902   4.425   4.062   0.942
 1009TIP3   OH2 2903   7.956   8.118   7.617
 1009TIP3    H1 2904   8.046   8.127   7.585
 1009TIP3    H2 2905   7.952   8.176   7.694
 1010TIP3   OH2 2906   7.917   8.235   7.872
 1010TIP3    H1 2907   7.986   8.195   7.925
 1010TIP3    H2 2908   7.933   8.329   7.879
 1011TIP3   OH2 2909   4.406   3.340   0.087
 1011TIP3    H1 2910   4.337   3.384   0.137
 1011TIP3    H2 2911   4.417   3.395   0.009
 1012TIP3   OH2 2912   5.513   2.926   0.956
 1012TIP3    H1 2913   5.591   2.970   0.987
 1012TIP3    H2 2914   5.505   2.848   1.011
 1013TIP3   OH2 2915   5.432   2.695   0.119
 1013TIP3    H1 2916   5.410   2.691   0.026
 1013TIP3    H2 2917   5.483   2.776   0.127
 1014TIP3   OH2 2918   8.179   8.399   7.767
 1014TIP3    H1 2919   8.107   8.440   7.815
 1014TIP3    H2 2920   8.201   8.462   7.698
 1015TIP3   OH2 2921   5.063   2.863   0.227
 1015TIP3    H1 2922   5.124   2.934   0.203
 1015TIP3    H2 2923   5.086   2.841   0.317
 1016TIP3   OH2 2924   5.360   3.163   0.997
 1016TIP3    H1 2925   5.384   3.205   1.080
 1016TIP3    H2 2926   5.408   3.080   0.998
 1017TIP3   OH2 2927   5.260   2.583   0.310
 1017TIP3    H1 2928   5.232   2.657   0.364
 1017TIP3    H2 2929   5.323   2.620   0.249
 1018TIP3   OH2 2930   7.962   8.515   7.887
 1018TIP3    H1 2931   7.911   8.568   7.827
 1018TIP3    H2 2932   7.929   8.539   7.974
 1019TIP3   OH2 2933   4.789   2.586   0.213
 1019TIP3    H1 2934   4.776   2.680   0.200
 1019TIP3    H2 2935   4.878   2.569   0.183
 1020TIP3   OH2 2936   5.966   3.037   0.981
 1020TIP3    H1 2937   5.874   3.055   0.999
 1020TIP3    H2 2938   5.964   2.973   0.910
 1021TIP3   OH2 2939   5.634   3.283   0.384
 1021TIP3    H1 2940   5.561   3.222   0.378
 1021TIP3    H2 2941   5.693   3.245   0.450
 1022TIP3   OH2 2942   7.668   8.107   7.853
 1022TIP3    H1 2943   7.742   8.167   7.859
 1022TIP3    H2 2944   7.697   8.038   7.794
 1023TIP3   OH2 2945   7.651   7.437   7.997
 1023TIP3    H1 2946   7.647   7.533   7.994
 1023TIP3    H2 2947   7.576   7.409   7.945
 1024TIP3   OH2 2948   5.613   4.226   0.329
 1024TIP3    H1 2949   5.573   4.289   0.269
 1024TIP3    H2 2950   5.707   4.237   0.317
 1025TIP3   OH2 2951   4.708   2.485   0.858
 1025TIP3    H1 2952   4.674   2.449   0.776
 1025TIP3    H2 2953   4.698   2.414   0.921
 1026TIP3   OH2 2954   4.224   3.749   0.276
 1026TIP3    H1 2955   4.181   3.784   0.355
 1026TIP3    H2 2956   4.175   3.788   0.203
 1027TIP3   OH2 2957   4.421   4.280   1.322
 1027TIP3    H1 2958   4.502   4.290   1.373
 1027TIP3    H2 2959   4.415   4.186   1.306
 1028TIP3   OH2 2960   4.878   4.176   1.362
 1028TIP3    H1 2961   4.969   4.148   1.371
 1028TIP3    H2 2962   4.844   4.123   1.290
 1029TIP3   OH2 2963   5.494   4.123   1.124
 1029TIP3    H1 2964   5.511   4.053   1.187
 1029TIP3    H2 2965   5.568   4.184   1.136
 1030TIP3   OH2 2966   4.512   3.678   1.507
 1030TIP3    H1 2967   4.535   3.586   1.520
 1030TIP3    H2 2968   4.425   3.677   1.468
 1031TIP3   OH2 2969   7.812   7.913   7.720
 1031TIP3    H1 2970   7.867   7.881   7.791
 1031TIP3    H2 2971   7.865   7.978   7.675
 1032TIP3   OH2 2972   5.136   3.755   1.286
 1032TIP3    H1 2973   5.092   3.777   1.203
 1032TIP3    H2 2974   5.172   3.668   1.272
 1033TIP3   OH2 2975   8.227   8.118   7.558
 1033TIP3    H1 2976   8.272   8.146   7.637
 1033TIP3    H2 2977   8.262   8.031   7.539
 1034TIP3   OH2 2978   5.609   3.803   0.902
 1034TIP3    H1 2979   5.687   3.828   0.852
 1034TIP3    H2 2980   5.547   3.874   0.887
 1035TIP3   OH2 2981   4.628   3.425   1.518
 1035TIP3    H1 2982   4.701   3.406   1.460
 1035TIP3    H2 2983   4.668   3.441   1.603
 1036TIP3   OH2 2984   7.976   7.826   7.926
 1036TIP3    H1 2985   7.947   7.781   8.006
 1036TIP3    H2 2986   8.017   7.757   7.874
 1037TIP3   OH2 2987   4.995   3.304   1.181
 1037TIP3    H1 2988   4.908   3.343   1.192
 1037TIP3    H2 2989   5.022   3.332   1.094
 1038TIP3   OH2 2990   8.098   7.634   7.764
 1038TIP3    H1 2991   8.079   7.589   7.682
 1038TIP3    H2 2992   8.194   7.645   7.763
 1039TIP3   OH2 2993   5.490   3.675   1.246
 1039TIP3    H1 2994   5.560   3.638   1.193
 1039TIP3    H2 2995   5.487   3.619   1.324
 1040TIP3   OH2 2996   5.097   3.070   1.283
 1040TIP3    H1 2997   5.102   3.001   1.217
 1040TIP3    H2 2998   5.063   3.146   1.236
 1041TIP3   OH2 2999   5.111   2.873   1.079
 1041TIP3    H1 3000   5.137   2.911   0.996
 1041TIP3    H2 3001   5.020   2.846   1.066
 1042TIP3   OH2 3002   5.099   3.399   0.950
 1042TIP3    H1 3003   5.189   3.429   0.936
 1042TIP3    H2 3004   5.046   3.460   0.899
 1043TIP3   OH2 3005   5.698   3.365   1.323
 1043TIP3    H1 3006   5.744   3.281   1.325
 1043TIP3    H2 3007   5.768   3.430   1.320
 1044TIP3   OH2 3008   5.729   3.623   1.066
 1044TIP3    H1 3009   5.677   3.686   1.016
 1044TIP3    H2 3010   5.819   3.637   1.035
 1045TIP3   OH2 3011   4.983   3.148   1.527
 1045TIP3    H1 3012   4.914   3.085   1.546
 1045TIP3    H2 3013   5.011   3.127   1.438
 1046TIP3   OH2 3014   5.226   2.641   1.184
 1046TIP3    H1 3015   5.188   2.721   1.149
 1046TIP3    H2 3016   5.159   2.574   1.170
 1047TIP3   OH2 3017   5.353   3.109   1.387
 1047TIP3    H1 3018   5.342   3.096   1.481
 1047TIP3    H2 3019   5.267   3.088   1.350
 1048TIP3   OH2 3020   5.605   3.073   1.267
 1048TIP3    H1 3021   5.525   3.070   1.320
 1048TIP3    H2 3022   5.675   3.047   1.326
 1049TIP3   OH2 3023   5.841   3.031   1.412
 1049TIP3    H1 3024   5.852   2.936   1.418
 1049TIP3    H2 3025   5.835   3.061   1.502
 1050TIP3   OH2 3026   4.816   2.929   1.590
 1050TIP3    H1 3027   4.819   2.840   1.554
 1050TIP3    H2 3028   4.855   2.921   1.677
 1051TIP3   OH2 3029   5.289   2.615   1.449
 1051TIP3    H1 3030   5.358   2.549   1.443
 1051TIP3    H2 3031   5.260   2.628   1.359
 1052TIP3   OH2 3032   5.388   2.828   1.595
 1052TIP3    H1 3033   5.356   2.756   1.540
 1052TIP3    H2 3034   5.316   2.891   1.596
 1053TIP3   OH2 3035   7.836   8.683   7.714
 1053TIP3    H1 3036   7.855   8.768   7.675
 1053TIP3    H2 3037   7.749   8.660   7.680
 1054TIP3   OH2 3038   7.396   8.141   7.916
 1054TIP3    H1 3039   7.485   8.135   7.881
 1054TIP3    H2 3040   7.360   8.053   7.903
 1055TIP3   OH2 3041   4.006   4.048   0.334
 1055TIP3    H1 3042   3.946   3.995   0.281
 1055TIP3    H2 3043   4.047   3.985   0.394
 1056TIP3   OH2 3044   4.147   3.883   0.511
 1056TIP3    H1 3045   4.141   3.814   0.577
 1056TIP3    H2 3046   4.199   3.952   0.552
 1057TIP3   OH2 3047   5.884   4.270   0.327
 1057TIP3    H1 3048   5.909   4.313   0.409
 1057TIP3    H2 3049   5.939   4.313   0.260
 1058TIP3   OH2 3050   5.909   4.309   0.608
 1058TIP3    H1 3051   5.869   4.224   0.595
 1058TIP3    H2 3052   5.981   4.293   0.669
 1059TIP3   OH2 3053   5.969   4.017   1.166
 1059TIP3    H1 3054   5.896   4.028   1.227
 1059TIP3    H2 3055   6.016   4.100   1.170
 1060TIP3   OH2 3056   9.015   8.148   7.782
 1060TIP3    H1 3057   9.044   8.235   7.756
 1060TIP3    H2 3058   9.063   8.131   7.863
 1061TIP3   OH2 3059   5.973   3.780   0.406
 1061TIP3    H1 3060   6.028   3.719   0.357
 1061TIP3    H2 3061   5.975   3.861   0.354
 1062TIP3   OH2 3062   5.769   4.069   0.599
 1062TIP3    H1 3063   5.704   4.117   0.651
 1062TIP3    H2 3064   5.719   4.032   0.527
 1063TIP3   OH2 3065   5.812   3.161   0.204
 1063TIP3    H1 3066   5.751   3.097   0.169
 1063TIP3    H2 3067   5.758   3.217   0.261
 1064TIP3   OH2 3068   4.328   3.317   0.891
 1064TIP3    H1 3069   4.322   3.284   0.802
 1064TIP3    H2 3070   4.421   3.308   0.914
 1065TIP3   OH2 3071   5.988   3.664   0.974
 1065TIP3    H1 3072   6.056   3.598   0.958
 1065TIP3    H2 3073   6.003   3.730   0.906
 1066TIP3   OH2 3074   6.165   3.453   0.959
 1066TIP3    H1 3075   6.092   3.407   1.001
 1066TIP3    H2 3076   6.242   3.399   0.980
 1067TIP3   OH2 3077   8.877   7.353   7.670
 1067TIP3    H1 3078   8.902   7.260   7.668
 1067TIP3    H2 3079   8.797   7.355   7.723
 1068TIP3   OH2 3080   5.837   3.168   0.530
 1068TIP3    H1 3081   5.917   3.141   0.484
 1068TIP3    H2 3082   5.869   3.200   0.614
 1069TIP3   OH2 3083   5.945   3.301   0.748
 1069TIP3    H1 3084   5.874   3.331   0.804
 1069TIP3    H2 3085   5.972   3.379   0.699
 1070TIP3   OH2 3086   4.555   3.003   1.537
 1070TIP3    H1 3087   4.650   2.994   1.552
 1070TIP3    H2 3088   4.518   2.922   1.572
 1071TIP3   OH2 3089   6.392   2.884   1.285
 1071TIP3    H1 3090   6.456   2.827   1.243
 1071TIP3    H2 3091   6.353   2.934   1.213
 1072TIP3   OH2 3092   5.825   2.725   0.080
 1072TIP3    H1 3093   5.765   2.799   0.080
 1072TIP3    H2 3094   5.769   2.648   0.078
 1073TIP3   OH2 3095   4.560   2.718   0.859
 1073TIP3    H1 3096   4.609   2.636   0.869
 1073TIP3    H2 3097   4.627   2.784   0.844
 1074TIP3   OH2 3098   4.318   2.981   0.941
 1074TIP3    H1 3099   4.311   2.911   0.876
 1074TIP3    H2 3100   4.387   3.038   0.907
 1075TIP3   OH2 3101   6.236   3.009   1.097
 1075TIP3    H1 3102   6.170   3.049   1.154
 1075TIP3    H2 3103   6.186   2.955   1.037
 1076TIP3   OH2 3104   9.128   7.227   7.693
 1076TIP3    H1 3105   9.221   7.237   7.672
 1076TIP3    H2 3106   9.089   7.312   7.671
 1077TIP3   OH2 3107   4.279   2.693   0.504
 1077TIP3    H1 3108   4.266   2.607   0.545
 1077TIP3    H2 3109   4.275   2.676   0.410
 1078TIP3   OH2 3110   8.692   8.856   7.964
 1078TIP3    H1 3111   8.678   8.827   7.874
 1078TIP3    H2 3112   8.777   8.899   7.963
 1079TIP3   OH2 3113   4.524   2.534   1.271
 1079TIP3    H1 3114   4.480   2.531   1.356
 1079TIP3    H2 3115   4.465   2.586   1.216
 1080TIP3   OH2 3116   4.537   4.003   1.329
 1080TIP3    H1 3117   4.445   3.975   1.325
 1080TIP3    H2 3118   4.562   3.990   1.421
 1081TIP3   OH2 3119   4.758   4.044   0.886
 1081TIP3    H1 3120   4.710   4.119   0.854
 1081TIP3    H2 3121   4.844   4.051   0.844
 1082TIP3   OH2 3122   5.152   4.274   1.024
 1082TIP3    H1 3123   5.190   4.265   1.112
 1082TIP3    H2 3124   5.216   4.327   0.977
 1083TIP3   OH2 3125   5.346   4.428   0.901
 1083TIP3    H1 3126   5.410   4.374   0.855
 1083TIP3    H2 3127   5.398   4.487   0.954
 1084TIP3   OH2 3128   6.145   2.741   0.989
 1084TIP3    H1 3129   6.056   2.722   0.960
 1084TIP3    H2 3130   6.190   2.656   0.985
 1085TIP3   OH2 3131   4.419   4.279   0.935
 1085TIP3    H1 3132   4.327   4.298   0.914
 1085TIP3    H2 3133   4.443   4.345   1.000
 1086TIP3   OH2 3134   4.649   4.274   0.784
 1086TIP3    H1 3135   4.566   4.277   0.832
 1086TIP3    H2 3136   4.625   4.297   0.694
 1087TIP3   OH2 3137   5.061   4.290   0.578
 1087TIP3    H1 3138   4.987   4.301   0.519
 1087TIP3    H2 3139   5.071   4.375   0.620
 1088TIP3   OH2 3140   5.320   4.218   0.633
 1088TIP3    H1 3141   5.230   4.242   0.610
 1088TIP3    H2 3142   5.375   4.283   0.590
 1089TIP3   OH2 3143   5.521   4.383   0.537
 1089TIP3    H1 3144   5.511   4.470   0.500
 1089TIP3    H2 3145   5.551   4.328   0.464
 1090TIP3   OH2 3146   4.326   4.058   0.652
 1090TIP3    H1 3147   4.352   4.036   0.741
 1090TIP3    H2 3148   4.399   4.026   0.597
 1091TIP3   OH2 3149   4.534   3.948   0.515
 1091TIP3    H1 3150   4.544   3.862   0.554
 1091TIP3    H2 3151   4.622   3.987   0.520
 1092TIP3   OH2 3152   4.802   4.028   0.539
 1092TIP3    H1 3153   4.821   3.935   0.522
 1092TIP3    H2 3154   4.859   4.050   0.613
 1093TIP3   OH2 3155   5.338   2.666   0.624
 1093TIP3    H1 3156   5.307   2.598   0.683
 1093TIP3    H2 3157   5.422   2.634   0.591
 1094TIP3   OH2 3158   5.881   2.597   0.493
 1094TIP3    H1 3159   5.923   2.663   0.438
 1094TIP3    H2 3160   5.792   2.630   0.506
 1095TIP3   OH2 3161   6.013   2.724   0.275
 1095TIP3    H1 3162   6.068   2.649   0.253
 1095TIP3    H2 3163   5.942   2.720   0.211
 1096TIP3   OH2 3164   4.598   2.390   0.609
 1096TIP3    H1 3165   4.522   2.371   0.665
 1096TIP3    H2 3166   4.650   2.310   0.612
 1097TIP3   OH2 3167   4.310   2.252   0.245
 1097TIP3    H1 3168   4.397   2.246   0.206
 1097TIP3    H2 3169   4.317   2.325   0.307
 1098TIP3   OH2 3170   5.110   2.429   0.513
 1098TIP3    H1 3171   5.148   2.490   0.449
 1098TIP3    H2 3172   5.141   2.462   0.597
 1099TIP3   OH2 3173   5.586   2.584   0.521
 1099TIP3    H1 3174   5.576   2.558   0.429
 1099TIP3    H2 3175   5.594   2.502   0.569
 1100TIP3   OH2 3176   5.644   2.520   0.086
 1100TIP3    H1 3177   5.563   2.570   0.097
 1100TIP3    H2 3178   5.625   2.434   0.123
 1101TIP3   OH2 3179   4.094   3.864   0.068
 1101TIP3    H1 3180   4.029   3.814   0.018
 1101TIP3    H2 3181   4.084   3.954   0.038
 1102TIP3   OH2 3182   4.510   2.524  -0.012
 1102TIP3    H1 3183   4.426   2.479  -0.017
 1102TIP3    H2 3184   4.531   2.524   0.081
 1103TIP3   OH2 3185   5.052   2.607   0.127
 1103TIP3    H1 3186   5.120   2.573   0.186
 1103TIP3    H2 3187   5.050   2.701   0.143
 1104TIP3   OH2 3188   4.828   2.656   1.509
 1104TIP3    H1 3189   4.795   2.588   1.567
 1104TIP3    H2 3190   4.920   2.666   1.533
 1105TIP3   OH2 3191   5.077   2.667   1.627
 1105TIP3    H1 3192   5.153   2.646   1.573
 1105TIP3    H2 3193   5.072   2.595   1.691
 1106TIP3   OH2 3194   7.526   8.574   7.717
 1106TIP3    H1 3195   7.527   8.540   7.806
 1106TIP3    H2 3196   7.473   8.511   7.668
 1107TIP3   OH2 3197   5.898   2.759   1.410
 1107TIP3    H1 3198   5.916   2.729   1.500
 1107TIP3    H2 3199   5.983   2.755   1.367
 1108TIP3   OH2 3200   5.816   4.288   0.920
 1108TIP3    H1 3201   5.745   4.256   0.866
 1108TIP3    H2 3202   5.800   4.382   0.928
 1109TIP3   OH2 3203   7.014   3.635   0.103
 1109TIP3    H1 3204   7.090   3.640   0.160
 1109TIP3    H2 3205   6.998   3.542   0.092
 1110TIP3   OH2 3206   6.393   3.513   0.447
 1110TIP3    H1 3207   6.433   3.465   0.520
 1110TIP3    H2 3208   6.467   3.544   0.395
 1111TIP3   OH2 3209   6.361   3.953   0.142
 1111TIP3    H1 3210   6.343   3.859   0.149
 1111TIP3    H2 3211   6.457   3.959   0.147
 1112TIP3   OH2 3212   9.298   7.819   7.997
 1112TIP3    H1 3213   9.347   7.882   7.945
 1112TIP3    H2 3214   9.236   7.779   7.936
 1113TIP3   OH2 3215   6.898   3.884   0.096
 1113TIP3    H1 3216   6.931   3.795   0.082
 1113TIP3    H2 3217   6.974   3.932   0.130
 1114TIP3   OH2 3218   7.299   3.413   0.092
 1114TIP3    H1 3219   7.311   3.319   0.106
 1114TIP3    H2 3220   7.325   3.427   0.001
 1115TIP3   OH2 3221   6.649   3.050   0.107
 1115TIP3    H1 3222   6.634   3.117   0.040
 1115TIP3    H2 3223   6.605   2.972   0.073
 1116TIP3   OH2 3224   6.295   3.254   0.192
 1116TIP3    H1 3225   6.374   3.240   0.245
 1116TIP3    H2 3226   6.312   3.205   0.111
 1117TIP3   OH2 3227   6.695   3.446   0.041
 1117TIP3    H1 3228   6.788   3.426   0.052
 1117TIP3    H2 3229   6.656   3.365   0.010
 1118TIP3   OH2 3230   7.932   3.613   0.249
 1118TIP3    H1 3231   7.846   3.576   0.230
 1118TIP3    H2 3232   7.934   3.620   0.344
 1119TIP3   OH2 3233   6.636   3.036   0.538
 1119TIP3    H1 3234   6.584   3.078   0.469
 1119TIP3    H2 3235   6.586   3.051   0.618
 1120TIP3   OH2 3236   6.734   3.813   0.307
 1120TIP3    H1 3237   6.677   3.883   0.338
 1120TIP3    H2 3238   6.786   3.853   0.237
 1121TIP3   OH2 3239   6.520   3.156   0.321
 1121TIP3    H1 3240   6.574   3.231   0.346
 1121TIP3    H2 3241   6.569   3.114   0.251
 1122TIP3   OH2 3242   6.566   4.005   0.403
 1122TIP3    H1 3243   6.555   4.096   0.374
 1122TIP3    H2 3244   6.490   3.989   0.458
 1123TIP3   OH2 3245   7.639   3.171   0.125
 1123TIP3    H1 3246   7.554   3.181   0.083
 1123TIP3    H2 3247   7.701   3.212   0.065
 1124TIP3   OH2 3248   6.956   2.746   0.255
 1124TIP3    H1 3249   6.959   2.654   0.280
 1124TIP3    H2 3250   6.877   2.780   0.298
 1125TIP3   OH2 3251   7.639   4.156   0.203
 1125TIP3    H1 3252   7.616   4.130   0.114
 1125TIP3    H2 3253   7.631   4.251   0.203
 1126TIP3   OH2 3254   7.485   3.648   0.372
 1126TIP3    H1 3255   7.486   3.728   0.425
 1126TIP3    H2 3256   7.394   3.639   0.344
 1127TIP3   OH2 3257   9.760   8.214   7.924
 1127TIP3    H1 3258   9.790   8.236   7.836
 1127TIP3    H2 3259   9.833   8.167   7.963
 1128TIP3   OH2 3260   6.641   3.970   0.047
 1128TIP3    H1 3261   6.619   3.927  -0.035
 1128TIP3    H2 3262   6.733   3.949   0.062
 1129TIP3   OH2 3263   6.596   3.581   0.266
 1129TIP3    H1 3264   6.634   3.545   0.186
 1129TIP3    H2 3265   6.645   3.662   0.281
 1130TIP3   OH2 3266   6.768   4.110   0.567
 1130TIP3    H1 3267   6.709   4.169   0.614
 1130TIP3    H2 3268   6.709   4.057   0.512
 1131TIP3   OH2 3269   6.536   3.667   0.714
 1131TIP3    H1 3270   6.539   3.761   0.734
 1131TIP3    H2 3271   6.443   3.648   0.704
 1132TIP3   OH2 3272   6.562   4.271   0.659
 1132TIP3    H1 3273   6.533   4.277   0.568
 1132TIP3    H2 3274   6.482   4.254   0.709
 1133TIP3   OH2 3275   6.162   3.832   0.609
 1133TIP3    H1 3276   6.096   3.812   0.543
 1133TIP3    H2 3277   6.197   3.747   0.635
 1134TIP3   OH2 3278   6.017   4.017   0.268
 1134TIP3    H1 3279   6.110   4.040   0.257
 1134TIP3    H2 3280   5.977   4.096   0.303
 1135TIP3   OH2 3281   7.803   4.415   0.318
 1135TIP3    H1 3282   7.851   4.332   0.311
 1135TIP3    H2 3283   7.846   4.462   0.389
 1136TIP3   OH2 3284   6.972   4.239   0.437
 1136TIP3    H1 3285   6.970   4.327   0.474
 1136TIP3    H2 3286   6.901   4.193   0.481
 1137TIP3   OH2 3287   7.700   3.672   0.642
 1137TIP3    H1 3288   7.639   3.730   0.597
 1137TIP3    H2 3289   7.694   3.589   0.595
 1138TIP3   OH2 3290   6.357   4.024   0.581
 1138TIP3    H1 3291   6.407   4.012   0.661
 1138TIP3    H2 3292   6.286   3.961   0.588
 1139TIP3   OH2 3293   6.723   2.823   0.385
 1139TIP3    H1 3294   6.636   2.794   0.357
 1139TIP3    H2 3295   6.707   2.903   0.435
 1140TIP3   OH2 3296   7.241   2.982   0.611
 1140TIP3    H1 3297   7.307   2.976   0.680
 1140TIP3    H2 3298   7.159   2.958   0.655
 1141TIP3   OH2 3299   7.411   3.378   0.468
 1141TIP3    H1 3300   7.420   3.359   0.561
 1141TIP3    H2 3301   7.476   3.445   0.450
 1142TIP3   OH2 3302   6.680   3.361   0.410
 1142TIP3    H1 3303   6.641   3.368   0.497
 1142TIP3    H2 3304   6.660   3.443   0.367
 1143TIP3   OH2 3305   9.822   7.852   7.924
 1143TIP3    H1 3306   9.736   7.813   7.939
 1143TIP3    H2 3307   9.828   7.862   7.829
 1144TIP3   OH2 3308   7.219   3.586   0.727
 1144TIP3    H1 3309   7.194   3.516   0.786
 1144TIP3    H2 3310   7.313   3.597   0.741
 1145TIP3   OH2 3311   6.532   3.367   0.640
 1145TIP3    H1 3312   6.553   3.428   0.711
 1145TIP3    H2 3313   6.514   3.284   0.685
 1146TIP3   OH2 3314   6.102   2.981   0.193
 1146TIP3    H1 3315   6.174   2.983   0.256
 1146TIP3    H2 3316   6.068   2.891   0.199
 1147TIP3   OH2 3317   7.722   5.648   1.277
 1147TIP3    H1 3318   7.646   5.679   1.228
 1147TIP3    H2 3319   7.696   5.561   1.309
 1148TIP3   OH2 3320   7.224   3.587   0.288
 1148TIP3    H1 3321   7.256   3.525   0.222
 1148TIP3    H2 3322   7.193   3.532   0.360
 1149TIP3   OH2 3323   6.894   2.984  -0.016
 1149TIP3    H1 3324   6.833   3.018   0.049
 1149TIP3    H2 3325   6.979   2.983   0.029
 1150TIP3   OH2 3326   9.599   7.692   7.985
 1150TIP3    H1 3327   9.513   7.659   8.009
 1150TIP3    H2 3328   9.653   7.614   7.976
 1151TIP3   OH2 3329   7.319   3.143   0.128
 1151TIP3    H1 3330   7.306   3.148   0.222
 1151TIP3    H2 3331   7.265   3.069   0.100
 1152TIP3   OH2 3332   7.591   4.833   0.398
 1152TIP3    H1 3333   7.562   4.907   0.344
 1152TIP3    H2 3334   7.646   4.873   0.465
 1153TIP3   OH2 3335   6.519   3.930   0.811
 1153TIP3    H1 3336   6.600   3.952   0.858
 1153TIP3    H2 3337   6.450   3.943   0.875
 1154TIP3   OH2 3338   6.955   3.359   0.091
 1154TIP3    H1 3339   7.022   3.302   0.052
 1154TIP3    H2 3340   6.955   3.335   0.184
 1155TIP3   OH2 3341   9.769   7.470   7.981
 1155TIP3    H1 3342   9.717   7.403   8.026
 1155TIP3    H2 3343   9.841   7.421   7.940
 1156TIP3   OH2 3344   6.946   3.306   0.360
 1156TIP3    H1 3345   6.860   3.340   0.382
 1156TIP3    H2 3346   7.007   3.358   0.412
 1157TIP3   OH2 3347   7.101   3.979   0.498
 1157TIP3    H1 3348   7.149   3.968   0.580
 1157TIP3    H2 3349   7.069   4.069   0.501
 1158TIP3   OH2 3350   6.350   3.669   0.146
 1158TIP3    H1 3351   6.378   3.646   0.058
 1158TIP3    H2 3352   6.422   3.640   0.203
 1159TIP3   OH2 3353   6.259   3.602   0.734
 1159TIP3    H1 3354   6.262   3.579   0.827
 1159TIP3    H2 3355   6.196   3.540   0.696
 1160TIP3   OH2 3356   6.991   3.739   0.763
 1160TIP3    H1 3357   6.924   3.677   0.735
 1160TIP3    H2 3358   7.073   3.699   0.736
 1161TIP3   OH2 3359   7.239   4.246   0.344
 1161TIP3    H1 3360   7.144   4.237   0.355
 1161TIP3    H2 3361   7.267   4.300   0.418
 1162TIP3   OH2 3362   7.895   4.140   0.309
 1162TIP3    H1 3363   7.807   4.140   0.271
 1162TIP3    H2 3364   7.941   4.069   0.263
 1163TIP3   OH2 3365   6.776   4.325   0.243
 1163TIP3    H1 3366   6.772   4.420   0.258
 1163TIP3    H2 3367   6.859   4.298   0.284
 1164TIP3   OH2 3368   7.128   3.964   0.224
 1164TIP3    H1 3369   7.113   3.960   0.319
 1164TIP3    H2 3370   7.219   3.990   0.216
 1165TIP3   OH2 3371   6.474   3.110   0.749
 1165TIP3    H1 3372   6.379   3.119   0.753
 1165TIP3    H2 3373   6.496   3.058   0.827
 1166TIP3   OH2 3374   6.203   4.233   0.404
 1166TIP3    H1 3375   6.259   4.175   0.456
 1166TIP3    H2 3376   6.218   4.320   0.442
 1167TIP3   OH2 3377   7.289   3.146   0.397
 1167TIP3    H1 3378   7.324   3.229   0.430
 1167TIP3    H2 3379   7.264   3.097   0.475
 1168TIP3   OH2 3380   7.141   3.437   0.506
 1168TIP3    H1 3381   7.148   3.496   0.581
 1168TIP3    H2 3382   7.225   3.391   0.504
 1169TIP3   OH2 3383   7.700   3.438   0.510
 1169TIP3    H1 3384   7.676   3.359   0.558
 1169TIP3    H2 3385   7.744   3.406   0.431
 1170TIP3   OH2 3386   6.457   2.749   0.354
 1170TIP3    H1 3387   6.427   2.712   0.270
 1170TIP3    H2 3388   6.454   2.675   0.415
 1171TIP3   OH2 3389   6.199   4.508   0.835
 1171TIP3    H1 3390   6.284   4.510   0.879
 1171TIP3    H2 3391   6.176   4.415   0.831
 1172TIP3   OH2 3392   6.674   4.438   0.846
 1172TIP3    H1 3393   6.760   4.400   0.861
 1172TIP3    H2 3394   6.636   4.385   0.776
 1173TIP3   OH2 3395   7.313   4.382   0.564
 1173TIP3    H1 3396   7.298   4.317   0.632
 1173TIP3    H2 3397   7.380   4.440   0.600
 1174TIP3   OH2 3398   6.309   3.930   0.995
 1174TIP3    H1 3399   6.327   3.837   1.006
 1174TIP3    H2 3400   6.222   3.934   0.957
 1175TIP3   OH2 3401   6.927   4.011   0.770
 1175TIP3    H1 3402   6.882   4.032   0.688
 1175TIP3    H2 3403   6.961   3.923   0.757
 1176TIP3   OH2 3404   7.423   4.044   0.353
 1176TIP3    H1 3405   7.499   4.085   0.311
 1176TIP3    H2 3406   7.356   4.112   0.354
 1177TIP3   OH2 3407   6.421   3.672   1.000
 1177TIP3    H1 3408   6.498   3.664   0.944
 1177TIP3    H2 3409   6.456   3.692   1.087
 1178TIP3   OH2 3410   6.791   3.558   0.663
 1178TIP3    H1 3411   6.707   3.603   0.673
 1178TIP3    H2 3412   6.824   3.587   0.578
 1179TIP3   OH2 3413   7.275   3.937   0.726
 1179TIP3    H1 3414   7.351   3.902   0.680
 1179TIP3    H2 3415   7.273   3.888   0.809
 1180TIP3   OH2 3416   6.885   3.325   0.773
 1180TIP3    H1 3417   6.891   3.255   0.708
 1180TIP3    H2 3418   6.856   3.402   0.724
 1181TIP3   OH2 3419   6.892   3.129   0.571
 1181TIP3    H1 3420   6.923   3.170   0.491
 1181TIP3    H2 3421   6.802   3.103   0.552
 1182TIP3   OH2 3422   6.907   3.646   0.435
 1182TIP3    H1 3423   6.996   3.672   0.412
 1182TIP3    H2 3424   6.851   3.709   0.390
 1183TIP3   OH2 3425   7.489   3.598   0.816
 1183TIP3    H1 3426   7.516   3.509   0.838
 1183TIP3    H2 3427   7.566   3.637   0.774
 1184TIP3   OH2 3428   7.536   3.881   0.538
 1184TIP3    H1 3429   7.480   3.936   0.485
 1184TIP3    H2 3430   7.625   3.902   0.509
 1185TIP3   OH2 3431   6.775   3.409   1.014
 1185TIP3    H1 3432   6.705   3.347   1.036
 1185TIP3    H2 3433   6.804   3.383   0.927
 1186TIP3   OH2 3434   6.989   2.897   0.685
 1186TIP3    H1 3435   6.951   2.977   0.649
 1186TIP3    H2 3436   6.924   2.829   0.666
 1187TIP3   OH2 3437   7.140   3.370   0.876
 1187TIP3    H1 3438   7.131   3.357   0.971
 1187TIP3    H2 3439   7.054   3.347   0.840
 1188TIP3   OH2 3440   7.370   3.316   0.726
 1188TIP3    H1 3441   7.294   3.318   0.785
 1188TIP3    H2 3442   7.445   3.305   0.784
 1189TIP3   OH2 3443   7.596   3.348   0.895
 1189TIP3    H1 3444   7.608   3.253   0.897
 1189TIP3    H2 3445   7.596   3.375   0.987
 1190TIP3   OH2 3446   6.605   3.191   1.078
 1190TIP3    H1 3447   6.613   3.102   1.043
 1190TIP3    H2 3448   6.644   3.186   1.166
 1191TIP3   OH2 3449   7.068   2.879   0.945
 1191TIP3    H1 3450   7.136   2.812   0.942
 1191TIP3    H2 3451   7.037   2.886   0.855
 1192TIP3   OH2 3452   7.179   3.088   1.085
 1192TIP3    H1 3453   7.148   3.019   1.027
 1192TIP3    H2 3454   7.109   3.153   1.085
 1193TIP3   OH2 3455   5.870   4.202   0.028
 1193TIP3    H1 3456   5.869   4.116   0.069
 1193TIP3    H2 3457   5.956   4.238   0.048
 1194TIP3   OH2 3458   7.730   4.253   0.665
 1194TIP3    H1 3459   7.662   4.262   0.732
 1194TIP3    H2 3460   7.777   4.336   0.667
 1195TIP3   OH2 3461   6.157   3.582   0.337
 1195TIP3    H1 3462   6.190   3.611   0.252
 1195TIP3    H2 3463   6.235   3.555   0.385
 1196TIP3   OH2 3464   7.794   3.921   0.458
 1196TIP3    H1 3465   7.859   3.853   0.441
 1196TIP3    H2 3466   7.826   3.997   0.409
 1197TIP3   OH2 3467   7.950   3.693   0.516
 1197TIP3    H1 3468   7.871   3.683   0.569
 1197TIP3    H2 3469   8.022   3.681   0.578
 1198TIP3   OH2 3470   7.660   3.572   0.163
 1198TIP3    H1 3471   7.602   3.567   0.239
 1198TIP3    H2 3472   7.662   3.665   0.141
 1199TIP3   OH2 3473   6.344   3.246   1.007
 1199TIP3    H1 3474   6.437   3.244   1.029
 1199TIP3    H2 3475   6.308   3.167   1.047
 1200TIP3   OH2 3476   8.141   3.194   0.721
 1200TIP3    H1 3477   8.215   3.158   0.671
 1200TIP3    H2 3478   8.097   3.252   0.660
 1201TIP3   OH2 3479   6.303   2.977   0.383
 1201TIP3    H1 3480   6.352   2.896   0.381
 1201TIP3    H2 3481   6.368   3.046   0.369
 1202TIP3   OH2 3482   6.065   3.256   0.333
 1202TIP3    H1 3483   6.155   3.272   0.303
 1202TIP3    H2 3484   6.045   3.329   0.390
 1203TIP3   OH2 3485   7.985   3.376   0.595
 1203TIP3    H1 3486   7.928   3.398   0.669
 1203TIP3    H2 3487   7.931   3.319   0.540
 1204TIP3   OH2 3488   9.315   7.367   7.919
 1204TIP3    H1 3489   9.243   7.343   7.978
 1204TIP3    H2 3490   9.294   7.456   7.891
 1205TIP3   OH2 3491   6.301   2.792   0.758
 1205TIP3    H1 3492   6.251   2.784   0.840
 1205TIP3    H2 3493   6.241   2.838   0.699
 1206TIP3   OH2 3494   6.347   4.235   0.833
 1206TIP3    H1 3495   6.253   4.221   0.821
 1206TIP3    H2 3496   6.360   4.229   0.928
 1207TIP3   OH2 3497   6.542   4.275   0.379
 1207TIP3    H1 3498   6.484   4.336   0.334
 1207TIP3    H2 3499   6.627   4.287   0.335
 1208TIP3   OH2 3500   6.972   4.500   0.519
 1208TIP3    H1 3501   7.013   4.490   0.605
 1208TIP3    H2 3502   7.038   4.546   0.467
 1209TIP3   OH2 3503   7.175   4.610   0.368
 1209TIP3    H1 3504   7.233   4.538   0.343
 1209TIP3    H2 3505   7.228   4.664   0.426
 1210TIP3   OH2 3506   7.943   3.094   0.519
 1210TIP3    H1 3507   7.873   3.059   0.464
 1210TIP3    H2 3508   8.009   3.125   0.457
 1211TIP3   OH2 3509   6.210   4.515   0.452
 1211TIP3    H1 3510   6.119   4.528   0.425
 1211TIP3    H2 3511   6.227   4.586   0.513
 1212TIP3   OH2 3512   6.413   4.486   0.265
 1212TIP3    H1 3513   6.347   4.496   0.334
 1212TIP3    H2 3514   6.380   4.537   0.192
 1213TIP3   OH2 3515   6.107   4.313   0.154
 1213TIP3    H1 3516   6.139   4.296   0.243
 1213TIP3    H2 3517   6.177   4.283   0.097
 1214TIP3   OH2 3518   6.316   4.201   0.028
 1214TIP3    H1 3519   6.322   4.112   0.063
 1214TIP3    H2 3520   6.407   4.233   0.028
 1215TIP3   OH2 3521   6.589   4.242   0.053
 1215TIP3    H1 3522   6.610   4.148   0.050
 1215TIP3    H2 3523   6.657   4.280   0.107
 1216TIP3   OH2 3524   7.133   2.928   0.112
 1216TIP3    H1 3525   7.090   2.863   0.167
 1216TIP3    H2 3526   7.191   2.878   0.055
 1217TIP3   OH2 3527   1.124   7.554   7.818
 1217TIP3    H1 3528   1.092   7.645   7.813
 1217TIP3    H2 3529   1.049   7.504   7.848
 1218TIP3   OH2 3530   6.372   2.647   0.109
 1218TIP3    H1 3531   6.286   2.607   0.122
 1218TIP3    H2 3532   6.433   2.572   0.108
 1219TIP3   OH2 3533   9.429   7.141   7.805
 1219TIP3    H1 3534   9.511   7.180   7.776
 1219TIP3    H2 3535   9.386   7.210   7.856
 1220TIP3   OH2 3536   6.825   2.717  -0.000
 1220TIP3    H1 3537   6.847   2.805  -0.033
 1220TIP3    H2 3538   6.870   2.713   0.084
 1221TIP3   OH2 3539   0.747   7.405   7.934
 1221TIP3    H1 3540   0.717   7.382   7.846
 1221TIP3    H2 3541   0.770   7.321   7.974
 1222TIP3   OH2 3542   6.619   2.922   0.986
 1222TIP3    H1 3543   6.584   2.854   1.044
 1222TIP3    H2 3544   6.711   2.930   1.012
 1223TIP3   OH2 3545   6.861   2.928   1.120
 1223TIP3    H1 3546   6.937   2.910   1.065
 1223TIP3    H2 3547   6.860   2.857   1.184
 1224TIP3   OH2 3548   7.654   3.088   0.942
 1224TIP3    H1 3549   7.683   3.071   1.031
 1224TIP3    H2 3550   7.734   3.089   0.890
 1225TIP3   OH2 3551   7.594   4.561   0.431
 1225TIP3    H1 3552   7.651   4.511   0.373
 1225TIP3    H2 3553   7.603   4.651   0.402
 1226TIP3   OH2 3554   8.383   4.139   0.362
 1226TIP3    H1 3555   8.313   4.203   0.366
 1226TIP3    H2 3556   8.340   4.055   0.376
 1227TIP3   OH2 3557   8.024   3.889   0.279
 1227TIP3    H1 3558   8.103   3.882   0.332
 1227TIP3    H2 3559   8.007   3.800   0.249
 1228TIP3   OH2 3560   8.076   3.421   0.110
 1228TIP3    H1 3561   8.039   3.491   0.163
 1228TIP3    H2 3562   8.157   3.397   0.154
 1229TIP3   OH2 3563   8.108   4.181   0.488
 1229TIP3    H1 3564   8.135   4.090   0.500
 1229TIP3    H2 3565   8.030   4.176   0.434
 1230TIP3   OH2 3566   8.253   3.912   0.468
 1230TIP3    H1 3567   8.325   3.851   0.452
 1230TIP3    H2 3568   8.266   3.940   0.558
 1231TIP3   OH2 3569   8.526   3.735   0.513
 1231TIP3    H1 3570   8.472   3.665   0.551
 1231TIP3    H2 3571   8.550   3.703   0.427
 1232TIP3   OH2 3572   8.410   3.494   0.603
 1232TIP3    H1 3573   8.400   3.412   0.554
 1232TIP3    H2 3574   8.491   3.482   0.653
 1233TIP3   OH2 3575   8.161   3.584   0.657
 1233TIP3    H1 3576   8.248   3.549   0.639
 1233TIP3    H2 3577   8.103   3.508   0.653
 1234TIP3   OH2 3578   8.043   3.080   0.099
 1234TIP3    H1 3579   8.089   3.134   0.165
 1234TIP3    H2 3580   8.113   3.033   0.054
 1235TIP3   OH2 3581   8.369   3.238   0.517
 1235TIP3    H1 3582   8.317   3.160   0.497
 1235TIP3    H2 3583   8.459   3.206   0.521
 1236TIP3   OH2 3584   8.621   3.134   0.535
 1236TIP3    H1 3585   8.686   3.122   0.604
 1236TIP3    H2 3586   8.597   3.046   0.508
 1237TIP3   OH2 3587   0.473   4.192   1.964
 1237TIP3    H1 3588   0.396   4.237   1.930
 1237TIP3    H2 3589   0.503   4.247   2.037
 1238TIP3   OH2 3590   9.637   5.012   1.621
 1238TIP3    H1 3591   9.566   4.964   1.664
 1238TIP3    H2 3592   9.599   5.041   1.538
 1239TIP3   OH2 3593   0.103   4.920   1.930
 1239TIP3    H1 3594   0.089   4.845   1.872
 1239TIP3    H2 3595   0.088   4.997   1.874
 1240TIP3   OH2 3596   0.277   4.548   1.809
 1240TIP3    H1 3597   0.199   4.598   1.785
 1240TIP3    H2 3598   0.303   4.503   1.729
 1241TIP3   OH2 3599   9.786   4.439   2.095
 1241TIP3    H1 3600   9.787   4.508   2.161
 1241TIP3    H2 3601   9.723   4.471   2.029
 1242TIP3   OH2 3602   0.343   5.280   1.993
 1242TIP3    H1 3603   0.353   5.185   1.997
 1242TIP3    H2 3604   0.260   5.297   2.038
 1243TIP3   OH2 3605   9.332   4.986   2.149
 1243TIP3    H1 3606   9.329   5.064   2.204
 1243TIP3    H2 3607   9.244   4.980   2.111
 1244TIP3   OH2 3608   0.207   4.366   2.285
 1244TIP3    H1 3609   0.140   4.354   2.218
 1244TIP3    H2 3610   0.229   4.278   2.314
 1245TIP3   OH2 3611   9.789   4.171   2.171
 1245TIP3    H1 3612   9.754   4.155   2.259
 1245TIP3    H2 3613   9.751   4.255   2.144
 1246TIP3   OH2 3614   9.545   4.360   2.338
 1246TIP3    H1 3615   9.520   4.293   2.401
 1246TIP3    H2 3616   9.627   4.395   2.372
 1247TIP3   OH2 3617   0.055   5.593   2.074
 1247TIP3    H1 3618   0.050   5.605   1.980
 1247TIP3    H2 3619   0.126   5.650   2.102
 1248TIP3   OH2 3620   0.051   4.713   1.755
 1248TIP3    H1 3621   0.097   4.755   1.683
 1248TIP3    H2 3622  -0.041   4.712   1.729
 1249TIP3   OH2 3623   9.409   4.723   2.164
 1249TIP3    H1 3624   9.457   4.717   2.247
 1249TIP3    H2 3625   9.374   4.812   2.163
 1250TIP3   OH2 3626   9.323   4.506   2.445
 1250TIP3    H1 3627   9.311   4.432   2.386
 1250TIP3    H2 3628   9.405   4.546   2.416
 1251TIP3   OH2 3629   9.563   5.081   2.028
 1251TIP3    H1 3630   9.507   5.005   2.043
 1251TIP3    H2 3631   9.598   5.103   2.114
 1252TIP3   OH2 3632   0.353   5.005   2.012
 1252TIP3    H1 3633   0.259   4.985   2.020
 1252TIP3    H2 3634   0.379   4.963   1.930
 1253TIP3   OH2 3635   9.500   4.746   1.901
 1253TIP3    H1 3636   9.457   4.726   1.984
 1253TIP3    H2 3637   9.433   4.729   1.835
 1254TIP3   OH2 3638   9.676   5.297   1.908
 1254TIP3    H1 3639   9.627   5.223   1.944
 1254TIP3    H2 3640   9.609   5.361   1.884
 1255TIP3   OH2 3641   0.233   4.071   2.118
 1255TIP3    H1 3642   0.141   4.089   2.137
 1255TIP3    H2 3643   0.259   4.138   2.055
 1256TIP3   OH2 3644   9.618   5.166   2.281
 1256TIP3    H1 3645   9.616   5.098   2.347
 1256TIP3    H2 3646   9.673   5.235   2.318
 1257TIP3   OH2 3647   9.040   4.803   2.482
 1257TIP3    H1 3648   9.025   4.800   2.387
 1257TIP3    H2 3649   9.134   4.789   2.492
 1258TIP3   OH2 3650   9.698   4.813   2.080
 1258TIP3    H1 3651   9.763   4.869   2.039
 1258TIP3    H2 3652   9.633   4.797   2.011
 1259TIP3   OH2 3653   9.567   4.684   2.439
 1259TIP3    H1 3654   9.644   4.670   2.384
 1259TIP3    H2 3655   9.588   4.640   2.521
 1260TIP3   OH2 3656  -0.015   4.407   2.486
 1260TIP3    H1 3657  -0.018   4.312   2.475
 1260TIP3    H2 3658   0.071   4.432   2.453
 1261TIP3   OH2 3659   0.002   4.660   2.270
 1261TIP3    H1 3660  -0.047   4.718   2.212
 1261TIP3    H2 3661   0.093   4.668   2.239
 1262TIP3   OH2 3662   9.470   4.170   2.526
 1262TIP3    H1 3663   9.502   4.183   2.615
 1262TIP3    H2 3664   9.395   4.111   2.536
 1263TIP3   OH2 3665   9.731   4.142   2.435
 1263TIP3    H1 3666   9.644   4.125   2.471
 1263TIP3    H2 3667   9.791   4.098   2.494
 1264TIP3   OH2 3668   0.120   4.060   2.609
 1264TIP3    H1 3669   0.132   3.965   2.613
 1264TIP3    H2 3670   0.109   4.087   2.700
 1265TIP3   OH2 3671   0.176   5.463   1.489
 1265TIP3    H1 3672   0.172   5.397   1.558
 1265TIP3    H2 3673   0.231   5.423   1.421
 1266TIP3   OH2 3674   0.187   5.370   1.769
 1266TIP3    H1 3675   0.142   5.287   1.756
 1266TIP3    H2 3676   0.258   5.350   1.829
 1267TIP3   OH2 3677   0.230   5.074   2.326
 1267TIP3    H1 3678   0.160   5.081   2.392
 1267TIP3    H2 3679   0.277   5.157   2.333
 1268TIP3   OH2 3680   0.224   4.822   1.579
 1268TIP3    H1 3681   0.277   4.751   1.543
 1268TIP3    H2 3682   0.249   4.899   1.527
 1269TIP3   OH2 3683   0.040   5.134   1.763
 1269TIP3    H1 3684  -0.021   5.190   1.811
 1269TIP3    H2 3685  -0.016   5.088   1.700
 1270TIP3   OH2 3686   0.244   4.708   2.147
 1270TIP3    H1 3687   0.309   4.640   2.134
 1270TIP3    H2 3688   0.237   4.752   2.062
 1271TIP3   OH2 3689   0.415   4.498   2.150
 1271TIP3    H1 3690   0.344   4.449   2.190
 1271TIP3    H2 3691   0.493   4.446   2.167
 1272TIP3   OH2 3692   0.223   4.325   1.967
 1272TIP3    H1 3693   0.135   4.349   1.998
 1272TIP3    H2 3694   0.250   4.398   1.912
 1273TIP3   OH2 3695   0.648   3.927   2.464
 1273TIP3    H1 3696   0.713   3.872   2.421
 1273TIP3    H2 3697   0.613   3.982   2.394
 1274TIP3   OH2 3698   0.495   4.070   2.288
 1274TIP3    H1 3699   0.429   4.106   2.348
 1274TIP3    H2 3700   0.445   4.013   2.230
 1275TIP3   OH2 3701   9.126   5.273   2.094
 1275TIP3    H1 3702   9.172   5.250   2.175
 1275TIP3    H2 3703   9.093   5.361   2.110
 1276TIP3   OH2 3704   9.550   5.562   1.904
 1276TIP3    H1 3705   9.596   5.558   1.988
 1276TIP3    H2 3706   9.457   5.556   1.928
 1277TIP3   OH2 3707   0.360   3.839   2.172
 1277TIP3    H1 3708   0.299   3.910   2.151
 1277TIP3    H2 3709   0.321   3.761   2.132
 1278TIP3   OH2 3710   0.176   3.796   2.601
 1278TIP3    H1 3711   0.192   3.755   2.686
 1278TIP3    H2 3712   0.255   3.778   2.550
 1279TIP3   OH2 3713   0.091   5.323   2.087
 1279TIP3    H1 3714   0.020   5.294   2.030
 1279TIP3    H2 3715   0.081   5.418   2.091
 1280TIP3   OH2 3716   1.388   4.780   0.919
 1280TIP3    H1 3717   1.328   4.850   0.897
 1280TIP3    H2 3718   1.341   4.726   0.982
 1281TIP3   OH2 3719   1.330   4.721   1.251
 1281TIP3    H1 3720   1.380   4.718   1.332
 1281TIP3    H2 3721   1.286   4.636   1.246
 1282TIP3   OH2 3722   0.632   4.553   1.620
 1282TIP3    H1 3723   0.674   4.510   1.694
 1282TIP3    H2 3724   0.705   4.590   1.569
 1283TIP3   OH2 3725   1.639   5.007   0.942
 1283TIP3    H1 3726   1.602   4.956   1.014
 1283TIP3    H2 3727   1.655   5.094   0.979
 1284TIP3   OH2 3728   0.614   5.000   1.315
 1284TIP3    H1 3729   0.592   4.907   1.322
 1284TIP3    H2 3730   0.709   5.002   1.303
 1285TIP3   OH2 3731   1.233   5.502   0.927
 1285TIP3    H1 3732   1.286   5.425   0.910
 1285TIP3    H2 3733   1.223   5.503   1.022
 1286TIP3   OH2 3734   1.151   4.936   1.276
 1286TIP3    H1 3735   1.198   4.856   1.251
 1286TIP3    H2 3736   1.219   4.995   1.308
 1287TIP3   OH2 3737   2.196   4.275   1.281
 1287TIP3    H1 3738   2.198   4.356   1.333
 1287TIP3    H2 3739   2.251   4.294   1.205
 1288TIP3   OH2 3740   1.491   4.303   1.355
 1288TIP3    H1 3741   1.498   4.369   1.424
 1288TIP3    H2 3742   1.495   4.354   1.273
 1289TIP3   OH2 3743   1.557   4.229   0.963
 1289TIP3    H1 3744   1.528   4.157   1.019
 1289TIP3    H2 3745   1.535   4.201   0.874
 1290TIP3   OH2 3746   0.962   4.516   1.224
 1290TIP3    H1 3747   1.049   4.520   1.266
 1290TIP3    H2 3748   0.968   4.442   1.163
 1291TIP3   OH2 3749   2.212   4.488   1.448
 1291TIP3    H1 3750   2.127   4.532   1.454
 1291TIP3    H2 3751   2.236   4.471   1.539
 1292TIP3   OH2 3752   0.893   4.113   1.713
 1292TIP3    H1 3753   0.834   4.143   1.645
 1292TIP3    H2 3754   0.843   4.120   1.794
 1293TIP3   OH2 3755   1.238   4.961   0.763
 1293TIP3    H1 3756   1.234   4.931   0.672
 1293TIP3    H2 3757   1.182   5.038   0.766
 1294TIP3   OH2 3758   0.983   4.867   1.490
 1294TIP3    H1 3759   0.925   4.938   1.517
 1294TIP3    H2 3760   1.030   4.902   1.415
 1295TIP3   OH2 3761   1.801   4.293   1.188
 1295TIP3    H1 3762   1.819   4.222   1.126
 1295TIP3    H2 3763   1.851   4.367   1.155
 1296TIP3   OH2 3764   0.757   4.196   1.487
 1296TIP3    H1 3765   0.831   4.253   1.466
 1296TIP3    H2 3766   0.782   4.110   1.454
 1297TIP3   OH2 3767   0.820   5.075   1.580
 1297TIP3    H1 3768   0.801   5.163   1.546
 1297TIP3    H2 3769   0.744   5.054   1.635
 1298TIP3   OH2 3770   1.652   5.258   1.066
 1298TIP3    H1 3771   1.569   5.251   1.112
 1298TIP3    H2 3772   1.650   5.346   1.027
 1299TIP3   OH2 3773   2.026   4.174   1.487
 1299TIP3    H1 3774   1.934   4.192   1.466
 1299TIP3    H2 3775   2.074   4.196   1.407
 1300TIP3   OH2 3776   1.213   3.782   1.411
 1300TIP3    H1 3777   1.201   3.702   1.463
 1300TIP3    H2 3778   1.199   3.753   1.320
 1301TIP3   OH2 3779   1.382   5.299   0.796
 1301TIP3    H1 3780   1.425   5.214   0.782
 1301TIP3    H2 3781   1.437   5.362   0.748
 1302TIP3   OH2 3782   1.494   5.056   0.718
 1302TIP3    H1 3783   1.411   5.011   0.732
 1302TIP3    H2 3784   1.549   5.028   0.792
 1303TIP3   OH2 3785   1.893   5.159   1.419
 1303TIP3    H1 3786   1.869   5.085   1.364
 1303TIP3    H2 3787   1.879   5.236   1.364
 1304TIP3   OH2 3788   1.182   4.640   0.740
 1304TIP3    H1 3789   1.114   4.706   0.726
 1304TIP3    H2 3790   1.254   4.668   0.683
 1305TIP3   OH2 3791   2.047   4.828   1.272
 1305TIP3    H1 3792   1.963   4.874   1.265
 1305TIP3    H2 3793   2.083   4.832   1.184
 1306TIP3   OH2 3794   1.442   4.733   0.655
 1306TIP3    H1 3795   1.411   4.762   0.741
 1306TIP3    H2 3796   1.536   4.751   0.656
 1307TIP3   OH2 3797   1.752   4.706   1.603
 1307TIP3    H1 3798   1.751   4.787   1.655
 1307TIP3    H2 3799   1.673   4.711   1.550
 1308TIP3   OH2 3800   0.749   4.638   1.099
 1308TIP3    H1 3801   0.710   4.559   1.063
 1308TIP3    H2 3802   0.829   4.607   1.142
 1309TIP3   OH2 3803   0.876   4.984   1.226
 1309TIP3    H1 3804   0.858   5.016   1.138
 1309TIP3    H2 3805   0.971   4.973   1.229
 1310TIP3   OH2 3806   0.837   4.638   1.444
 1310TIP3    H1 3807   0.878   4.600   1.366
 1310TIP3    H2 3808   0.887   4.717   1.461
 1311TIP3   OH2 3809   1.428   5.260   1.217
 1311TIP3    H1 3810   1.412   5.340   1.267
 1311TIP3    H2 3811   1.404   5.189   1.277
 1312TIP3   OH2 3812   1.024   5.160   1.746
 1312TIP3    H1 3813   0.965   5.221   1.790
 1312TIP3    H2 3814   0.968   5.113   1.684
 1313TIP3   OH2 3815   1.268   4.617   0.414
 1313TIP3    H1 3816   1.269   4.537   0.467
 1313TIP3    H2 3817   1.297   4.589   0.327
 1314TIP3   OH2 3818   0.786   4.711   1.893
 1314TIP3    H1 3819   0.788   4.805   1.911
 1314TIP3    H2 3820   0.693   4.689   1.889
 1315TIP3   OH2 3821   1.127   5.220   0.742
 1315TIP3    H1 3822   1.214   5.250   0.769
 1315TIP3    H2 3823   1.066   5.277   0.789
 1316TIP3   OH2 3824   0.819   5.325   1.830
 1316TIP3    H1 3825   0.782   5.330   1.742
 1316TIP3    H2 3826   0.745   5.306   1.887
 1317TIP3   OH2 3827   1.780   5.226   0.082
 1317TIP3    H1 3828   1.742   5.270   0.005
 1317TIP3    H2 3829   1.821   5.147   0.046
 1318TIP3   OH2 3830   0.417   4.871   1.784
 1318TIP3    H1 3831   0.354   4.849   1.716
 1318TIP3    H2 3832   0.452   4.786   1.813
 1319TIP3   OH2 3833   0.351   5.024   1.441
 1319TIP3    H1 3834   0.428   5.018   1.385
 1319TIP3    H2 3835   0.366   5.102   1.495
 1320TIP3   OH2 3836   2.122   5.537   1.489
 1320TIP3    H1 3837   2.128   5.442   1.496
 1320TIP3    H2 3838   2.043   5.560   1.538
 1321TIP3   OH2 3839   1.238   5.295   1.638
 1321TIP3    H1 3840   1.213   5.387   1.643
 1321TIP3    H2 3841   1.161   5.247   1.669
 1322TIP3   OH2 3842   1.215   5.391   0.519
 1322TIP3    H1 3843   1.177   5.321   0.572
 1322TIP3    H2 3844   1.306   5.396   0.546
 1323TIP3   OH2 3845   2.007   4.654   1.757
 1323TIP3    H1 3846   1.926   4.671   1.710
 1323TIP3    H2 3847   2.020   4.559   1.748
 1324TIP3   OH2 3848   0.607   5.068   1.757
 1324TIP3    H1 3849   0.661   5.053   1.835
 1324TIP3    H2 3850   0.539   5.000   1.762
 1325TIP3   OH2 3851   0.859   3.940   1.471
 1325TIP3    H1 3852   0.875   3.846   1.457
 1325TIP3    H2 3853   0.907   3.960   1.551
 1326TIP3   OH2 3854   1.536   4.070   1.850
 1326TIP3    H1 3855   1.599   4.047   1.919
 1326TIP3    H2 3856   1.452   4.040   1.884
 1327TIP3   OH2 3857   1.755   4.448   1.704
 1327TIP3    H1 3858   1.718   4.442   1.792
 1327TIP3    H2 3859   1.739   4.538   1.677
 1328TIP3   OH2 3860   0.934   4.415   1.581
 1328TIP3    H1 3861   0.880   4.405   1.660
 1328TIP3    H2 3862   0.897   4.492   1.537
 1329TIP3   OH2 3863   1.325   4.359   0.815
 1329TIP3    H1 3864   1.297   4.421   0.883
 1329TIP3    H2 3865   1.418   4.377   0.803
 1330TIP3   OH2 3866   1.477   4.628   1.902
 1330TIP3    H1 3867   1.451   4.560   1.963
 1330TIP3    H2 3868   1.569   4.644   1.922
 1331TIP3   OH2 3869   1.505   4.464   1.119
 1331TIP3    H1 3870   1.421   4.499   1.088
 1331TIP3    H2 3871   1.521   4.387   1.064
 1332TIP3   OH2 3872   0.780   4.416   1.811
 1332TIP3    H1 3873   0.803   4.480   1.879
 1332TIP3    H2 3874   0.771   4.334   1.859
 1333TIP3   OH2 3875   1.490   4.676   1.472
 1333TIP3    H1 3876   1.552   4.624   1.422
 1333TIP3    H2 3877   1.457   4.616   1.539
 1334TIP3   OH2 3878   1.079   4.133   1.298
 1334TIP3    H1 3879   1.065   4.080   1.219
 1334TIP3    H2 3880   1.169   4.112   1.325
 1335TIP3   OH2 3881   1.761   4.228   1.445
 1335TIP3    H1 3882   1.669   4.245   1.463
 1335TIP3    H2 3883   1.771   4.242   1.351
 1336TIP3   OH2 3884   1.824   5.866   1.576
 1336TIP3    H1 3885   1.820   5.877   1.481
 1336TIP3    H2 3886   1.901   5.915   1.603
 1337TIP3   OH2 3887   0.766   4.978   1.983
 1337TIP3    H1 3888   0.848   4.999   2.028
 1337TIP3    H2 3889   0.699   4.985   2.051
 1338TIP3   OH2 3890   1.223   4.465   1.298
 1338TIP3    H1 3891   1.249   4.395   1.238
 1338TIP3    H2 3892   1.218   4.423   1.384
 1339TIP3   OH2 3893   1.196   4.361   1.553
 1339TIP3    H1 3894   1.105   4.387   1.561
 1339TIP3    H2 3895   1.245   4.432   1.594
 1340TIP3   OH2 3896   0.941   4.776   0.694
 1340TIP3    H1 3897   0.888   4.697   0.685
 1340TIP3    H2 3898   0.914   4.814   0.778
 1341TIP3   OH2 3899   1.816   4.970   1.241
 1341TIP3    H1 3900   1.846   5.018   1.164
 1341TIP3    H2 3901   1.728   4.941   1.217
 1342TIP3   OH2 3902   1.362   5.037   1.660
 1342TIP3    H1 3903   1.407   5.022   1.743
 1342TIP3    H2 3904   1.323   5.124   1.669
 1343TIP3   OH2 3905   1.535   4.399   0.612
 1343TIP3    H1 3906   1.609   4.342   0.631
 1343TIP3    H2 3907   1.478   4.347   0.555
 1344TIP3   OH2 3908   0.601   4.723   1.318
 1344TIP3    H1 3909   0.635   4.705   1.230
 1344TIP3    H2 3910   0.671   4.695   1.377
 1345TIP3   OH2 3911   0.974   4.873   0.441
 1345TIP3    H1 3912   0.954   4.964   0.419
 1345TIP3    H2 3913   0.952   4.865   0.533
 1346TIP3   OH2 3914   0.514   4.648   1.921
 1346TIP3    H1 3915   0.519   4.625   2.014
 1346TIP3    H2 3916   0.441   4.595   1.888
 1347TIP3   OH2 3917   1.246   4.787   1.933
 1347TIP3    H1 3918   1.177   4.726   1.907
 1347TIP3    H2 3919   1.327   4.743   1.906
 1348TIP3   OH2 3920   1.497   5.335   1.541
 1348TIP3    H1 3921   1.404   5.312   1.546
 1348TIP3    H2 3922   1.519   5.366   1.628
 1349TIP3   OH2 3923   1.930   4.264   0.405
 1349TIP3    H1 3924   1.889   4.182   0.376
 1349TIP3    H2 3925   1.883   4.332   0.356
 1350TIP3   OH2 3926   2.135   5.263   1.498
 1350TIP3    H1 3927   2.044   5.236   1.506
 1350TIP3    H2 3928   2.165   5.225   1.416
 1351TIP3   OH2 3929   1.485   5.211   0.299
 1351TIP3    H1 3930   1.525   5.206   0.386
 1351TIP3    H2 3931   1.535   5.149   0.246
 1352TIP3   OH2 3932   1.568   4.862   1.171
 1352TIP3    H1 3933   1.481   4.825   1.185
 1352TIP3    H2 3934   1.619   4.789   1.136
 1353TIP3   OH2 3935   0.723   5.083   1.002
 1353TIP3    H1 3936   0.744   5.174   0.979
 1353TIP3    H2 3937   0.644   5.090   1.056
 1354TIP3   OH2 3938   0.836   4.844   0.930
 1354TIP3    H1 3939   0.792   4.926   0.950
 1354TIP3    H2 3940   0.805   4.783   0.998
 1355TIP3   OH2 3941   1.390   5.037   1.384
 1355TIP3    H1 3942   1.382   5.032   1.479
 1355TIP3    H2 3943   1.469   4.987   1.364
 1356TIP3   OH2 3944   1.352   4.826   0.205
 1356TIP3    H1 3945   1.414   4.818   0.278
 1356TIP3    H2 3946   1.310   4.911   0.217
 1357TIP3   OH2 3947   1.661   5.530   1.422
 1357TIP3    H1 3948   1.592   5.469   1.447
 1357TIP3    H2 3949   1.620   5.586   1.355
 1358TIP3   OH2 3950   1.627   5.534   0.122
 1358TIP3    H1 3951   1.711   5.561   0.086
 1358TIP3    H2 3952   1.579   5.498   0.048
 1359TIP3   OH2 3953   0.750   4.167   1.941
 1359TIP3    H1 3954   0.654   4.162   1.940
 1359TIP3    H2 3955   0.776   4.108   2.011
 1360TIP3   OH2 3956   1.542   4.843   0.407
 1360TIP3    H1 3957   1.491   4.856   0.487
 1360TIP3    H2 3958   1.633   4.850   0.435
 1361TIP3   OH2 3959   0.445   5.241   1.585
 1361TIP3    H1 3960   0.504   5.188   1.638
 1361TIP3    H2 3961   0.458   5.331   1.616
 1362TIP3   OH2 3962   1.556   4.264   1.662
 1362TIP3    H1 3963   1.637   4.313   1.676
 1362TIP3    H2 3964   1.547   4.210   1.740
 1363TIP3   OH2 3965   1.217   4.112   0.819
 1363TIP3    H1 3966   1.248   4.202   0.824
 1363TIP3    H2 3967   1.126   4.115   0.851
 1364TIP3   OH2 3968   1.413   4.500   1.664
 1364TIP3    H1 3969   1.430   4.539   1.749
 1364TIP3    H2 3970   1.449   4.412   1.670
 1365TIP3   OH2 3971   1.385   4.015   1.020
 1365TIP3    H1 3972   1.360   3.937   1.071
 1365TIP3    H2 3973   1.323   4.017   0.947
 1366TIP3   OH2 3974   2.016   4.389   1.671
 1366TIP3    H1 3975   1.921   4.396   1.679
 1366TIP3    H2 3976   2.029   4.313   1.613
 1367TIP3   OH2 3977   1.721   4.663   1.061
 1367TIP3    H1 3978   1.656   4.598   1.036
 1367TIP3    H2 3979   1.790   4.614   1.106
 1368TIP3   OH2 3980   1.676   5.529   1.005
 1368TIP3    H1 3981   1.636   5.578   0.933
 1368TIP3    H2 3982   1.770   5.539   0.992
 1369TIP3   OH2 3983   0.456   5.582   2.003
 1369TIP3    H1 3984   0.539   5.580   2.051
 1369TIP3    H2 3985   0.427   5.491   2.001
 1370TIP3   OH2 3986   0.934   5.500   2.007
 1370TIP3    H1 3987   1.018   5.462   2.030
 1370TIP3    H2 3988   0.898   5.442   1.940
 1371TIP3   OH2 3989   1.550   5.424   1.794
 1371TIP3    H1 3990   1.562   5.354   1.859
 1371TIP3    H2 3991   1.624   5.483   1.808
 1372TIP3   OH2 3992   0.569   4.973   2.179
 1372TIP3    H1 3993   0.582   4.878   2.189
 1372TIP3    H2 3994   0.485   4.980   2.133
 1373TIP3   OH2 3995   1.183   5.063   1.949
 1373TIP3    H1 3996   1.137   5.084   1.868
 1373TIP3    H2 3997   1.217   4.975   1.935
 1374TIP3   OH2 3998   1.664   5.109   1.566
 1374TIP3    H1 3999   1.741   5.138   1.517
 1374TIP3    H2 4000   1.598   5.177   1.551
 1375TIP3   OH2 4001   0.675   4.711   2.177
 1375TIP3    H1 4002   0.753   4.703   2.122
 1375TIP3    H2 4003   0.709   4.732   2.264
 1376TIP3   OH2 4004   1.043   4.609   1.843
 1376TIP3    H1 4005   0.957   4.649   1.852
 1376TIP3    H2 4006   1.070   4.630   1.753
 1377TIP3   OH2 4007   1.531   4.982   1.907
 1377TIP3    H1 4008   1.607   4.950   1.858
 1377TIP3    H2 4009   1.528   4.926   1.985
 1378TIP3   OH2 4010   4.950   9.133   8.021
 1378TIP3    H1 4011   4.928   9.067   7.955
 1378TIP3    H2 4012   4.880   9.198   8.014
 1379TIP3   OH2 4013   1.141   4.380   1.955
 1379TIP3    H1 4014   1.143   4.308   1.892
 1379TIP3    H2 4015   1.108   4.455   1.906
 1380TIP3   OH2 4016   1.151   4.184   1.758
 1380TIP3    H1 4017   1.176   4.235   1.681
 1380TIP3    H2 4018   1.059   4.161   1.744
 1381TIP3   OH2 4019   1.154   4.688   1.606
 1381TIP3    H1 4020   1.242   4.721   1.596
 1381TIP3    H2 4021   1.098   4.754   1.567
 1382TIP3   OH2 4022   1.748   4.667   1.991
 1382TIP3    H1 4023   1.788   4.581   2.000
 1382TIP3    H2 4024   1.822   4.728   1.988
 1383TIP3   OH2 4025   1.779   4.942   1.743
 1383TIP3    H1 4026   1.728   5.003   1.689
 1383TIP3    H2 4027   1.869   4.951   1.710
 1384TIP3   OH2 4028   1.021   4.458   2.192
 1384TIP3    H1 4029   0.956   4.392   2.213
 1384TIP3    H2 4030   1.053   4.434   2.105
 1385TIP3   OH2 4031   1.279   3.964   1.867
 1385TIP3    H1 4032   1.237   4.045   1.839
 1385TIP3    H2 4033   1.244   3.897   1.808
 1386TIP3   OH2 4034   1.395   4.418   2.060
 1386TIP3    H1 4035   1.385   4.405   2.154
 1386TIP3    H2 4036   1.309   4.398   2.023
 1387TIP3   OH2 4037   1.648   4.382   1.943
 1387TIP3    H1 4038   1.568   4.378   1.996
 1387TIP3    H2 4039   1.718   4.354   2.002
 1388TIP3   OH2 4040   1.887   4.344   2.082
 1388TIP3    H1 4041   1.909   4.251   2.091
 1388TIP3    H2 4042   1.881   4.376   2.172
 1389TIP3   OH2 4043   0.860   4.243   2.263
 1389TIP3    H1 4044   0.861   4.153   2.229
 1389TIP3    H2 4045   0.898   4.236   2.351
 1390TIP3   OH2 4046   1.325   3.916   2.131
 1390TIP3    H1 4047   1.400   3.857   2.124
 1390TIP3    H2 4048   1.296   3.928   2.040
 1391TIP3   OH2 4049   1.430   4.135   2.260
 1391TIP3    H1 4050   1.394   4.060   2.213
 1391TIP3    H2 4051   1.359   4.198   2.265
 1392TIP3   OH2 4052   1.943   5.583   0.987
 1392TIP3    H1 4053   1.966   5.604   1.078
 1392TIP3    H2 4054   1.994   5.645   0.935
 1393TIP3   OH2 4055   1.972   5.603   1.263
 1393TIP3    H1 4056   1.922   5.521   1.258
 1393TIP3    H2 4057   2.036   5.587   1.332
 1394TIP3   OH2 4058   2.009   5.321   1.822
 1394TIP3    H1 4059   1.937   5.327   1.885
 1394TIP3    H2 4060   2.056   5.404   1.832
 1395TIP3   OH2 4061   1.817   4.891   0.442
 1395TIP3    H1 4062   1.884   4.953   0.412
 1395TIP3    H2 4063   1.848   4.861   0.527
 1396TIP3   OH2 4064   1.996   4.835   0.659
 1396TIP3    H1 4065   1.955   4.781   0.726
 1396TIP3    H2 4066   2.082   4.856   0.695
 1397TIP3   OH2 4067   1.997   5.103   1.077
 1397TIP3    H1 4068   2.052   5.035   1.039
 1397TIP3    H2 4069   2.002   5.176   1.015
 1398TIP3   OH2 4070   1.821   5.371   1.261
 1398TIP3    H1 4071   1.754   5.416   1.313
 1398TIP3    H2 4072   1.772   5.329   1.191
 1399TIP3   OH2 4073   1.909   4.691   0.265
 1399TIP3    H1 4074   1.870   4.604   0.272
 1399TIP3    H2 4075   1.852   4.747   0.318
 1400TIP3   OH2 4076   1.910   4.666   0.857
 1400TIP3    H1 4077   1.923   4.572   0.863
 1400TIP3    H2 4078   1.849   4.687   0.928
 1401TIP3   OH2 4079   0.404   4.639   1.500
 1401TIP3    H1 4080   0.446   4.664   1.418
 1401TIP3    H2 4081   0.476   4.609   1.556
 1402TIP3   OH2 4082   2.035   4.963   1.634
 1402TIP3    H1 4083   2.107   4.900   1.625
 1402TIP3    H2 4084   2.036   5.012   1.552
 1403TIP3   OH2 4085   2.231   4.760   1.637
 1403TIP3    H1 4086   2.159   4.718   1.682
 1403TIP3    H2 4087   2.310   4.717   1.670
 1404TIP3   OH2 4088   1.744   4.229   0.636
 1404TIP3    H1 4089   1.760   4.136   0.652
 1404TIP3    H2 4090   1.829   4.270   0.645
 1405TIP3   OH2 4091   1.938   4.530   1.168
 1405TIP3    H1 4092   2.024   4.546   1.131
 1405TIP3    H2 4093   1.948   4.549   1.262
 1406TIP3   OH2 4094   1.966   4.617   1.430
 1406TIP3    H1 4095   1.888   4.640   1.481
 1406TIP3    H2 4096   1.992   4.699   1.387
 1407TIP3   OH2 4097   0.602   4.303   2.192
 1407TIP3    H1 4098   0.696   4.299   2.208
 1407TIP3    H2 4099   0.567   4.223   2.232
 1408TIP3   OH2 4100   2.434   4.205   1.938
 1408TIP3    H1 4101   2.490   4.133   1.910
 1408TIP3    H2 4102   2.421   4.258   1.860
 1409TIP3   OH2 4103   0.427   4.348   1.650
 1409TIP3    H1 4104   0.465   4.262   1.633
 1409TIP3    H2 4105   0.491   4.410   1.614
 1410TIP3   OH2 4106   2.295   4.357   1.740
 1410TIP3    H1 4107   2.219   4.385   1.791
 1410TIP3    H2 4108   2.273   4.269   1.710
 1411TIP3   OH2 4109   1.535   5.460   0.643
 1411TIP3    H1 4110   1.572   5.474   0.556
 1411TIP3    H2 4111   1.554   5.541   0.691
 1412TIP3   OH2 4112   0.546   3.923   1.975
 1412TIP3    H1 4113   0.489   3.884   2.041
 1412TIP3    H2 4114   0.506   4.009   1.957
 1413TIP3   OH2 4115   0.617   5.294   2.017
 1413TIP3    H1 4116   0.524   5.284   1.999
 1413TIP3    H2 4117   0.626   5.275   2.111
 1414TIP3   OH2 4118   0.731   5.348   1.567
 1414TIP3    H1 4119   0.650   5.397   1.579
 1414TIP3    H2 4120   0.763   5.376   1.481
 1415TIP3   OH2 4121   1.196   5.572   1.686
 1415TIP3    H1 4122   1.235   5.558   1.772
 1415TIP3    H2 4123   1.263   5.622   1.638
 1416TIP3   OH2 4124   1.389   5.721   1.556
 1416TIP3    H1 4125   1.442   5.661   1.505
 1416TIP3    H2 4126   1.452   5.770   1.609
 1417TIP3   OH2 4127   2.214   4.097   1.679
 1417TIP3    H1 4128   2.158   4.110   1.603
 1417TIP3    H2 4129   2.265   4.018   1.659
 1418TIP3   OH2 4130   0.503   5.511   1.636
 1418TIP3    H1 4131   0.420   5.554   1.615
 1418TIP3    H2 4132   0.549   5.574   1.691
 1419TIP3   OH2 4133   1.173   5.620   1.188
 1419TIP3    H1 4134   1.085   5.625   1.149
 1419TIP3    H2 4135   1.176   5.693   1.249
 1420TIP3   OH2 4136   1.405   5.534   1.295
 1420TIP3    H1 4137   1.315   5.546   1.265
 1420TIP3    H2 4138   1.456   5.598   1.245
 1421TIP3   OH2 4139   1.601   5.711   1.199
 1421TIP3    H1 4140   1.582   5.793   1.153
 1421TIP3    H2 4141   1.626   5.650   1.129
 1422TIP3   OH2 4142   0.376   5.365   1.331
 1422TIP3    H1 4143   0.407   5.318   1.408
 1422TIP3    H2 4144   0.432   5.335   1.260
 1423TIP3   OH2 4145   0.582   5.247   1.189
 1423TIP3    H1 4146   0.597   5.173   1.248
 1423TIP3    H2 4147   0.646   5.313   1.218
 1424TIP3   OH2 4148   1.336   4.018   1.324
 1424TIP3    H1 4149   1.308   3.929   1.343
 1424TIP3    H2 4150   1.428   4.011   1.300
 1425TIP3   OH2 4151   2.009   3.778   1.098
 1425TIP3    H1 4152   2.054   3.849   1.145
 1425TIP3    H2 4153   1.917   3.791   1.118
 1426TIP3   OH2 4154   2.123   4.110   0.978
 1426TIP3    H1 4155   2.158   4.031   0.938
 1426TIP3    H2 4156   2.030   4.093   0.988
 1427TIP3   OH2 4157   1.740   3.812   1.091
 1427TIP3    H1 4158   1.696   3.849   1.014
 1427TIP3    H2 4159   1.675   3.815   1.160
 1428TIP3   OH2 4160   1.645   5.498   0.392
 1428TIP3    H1 4161   1.695   5.417   0.388
 1428TIP3    H2 4162   1.624   5.517   0.300
 1429TIP3   OH2 4163   0.867   3.977   2.177
 1429TIP3    H1 4164   0.833   3.903   2.227
 1429TIP3    H2 4165   0.959   3.983   2.202
 1430TIP3   OH2 4166   1.112   3.972   2.300
 1430TIP3    H1 4167   1.189   3.950   2.248
 1430TIP3    H2 4168   1.103   3.899   2.362
 1431TIP3   OH2 4169   1.967   4.082   2.101
 1431TIP3    H1 4170   1.982   4.045   2.188
 1431TIP3    H2 4171   2.050   4.071   2.055
 1432TIP3   OH2 4172   1.873   5.595   1.587
 1432TIP3    H1 4173   1.801   5.560   1.534
 1432TIP3    H2 4174   1.854   5.689   1.595
 1433TIP3   OH2 4175   3.154   5.005   0.326
 1433TIP3    H1 4176   3.114   5.085   0.293
 1433TIP3    H2 4177   3.090   4.936   0.307
 1434TIP3   OH2 4178   3.164   4.977   0.757
 1434TIP3    H1 4179   3.207   4.952   0.838
 1434TIP3    H2 4180   3.116   4.899   0.730
 1435TIP3   OH2 4181   2.433   4.847   1.092
 1435TIP3    H1 4182   2.473   4.805   1.168
 1435TIP3    H2 4183   2.506   4.862   1.032
 1436TIP3   OH2 4184   3.386   5.249   0.401
 1436TIP3    H1 4185   3.329   5.172   0.403
 1436TIP3    H2 4186   3.439   5.242   0.479
 1437TIP3   OH2 4187   2.441   5.280   0.775
 1437TIP3    H1 4188   2.424   5.186   0.785
 1437TIP3    H2 4189   2.535   5.285   0.756
 1438TIP3   OH2 4190   2.137   4.558   0.640
 1438TIP3    H1 4191   2.121   4.633   0.698
 1438TIP3    H2 4192   2.070   4.494   0.666
 1439TIP3   OH2 4193   2.240   4.825   0.777
 1439TIP3    H1 4194   2.289   4.749   0.808
 1439TIP3    H2 4195   2.305   4.894   0.768
 1440TIP3   OH2 4196   3.072   5.700   0.419
 1440TIP3    H1 4197   3.098   5.632   0.356
 1440TIP3    H2 4198   3.028   5.652   0.489
 1441TIP3   OH2 4199   2.936   5.197   0.750
 1441TIP3    H1 4200   2.976   5.117   0.717
 1441TIP3    H2 4201   3.009   5.249   0.783
 1442TIP3   OH2 4202   3.979   4.509   0.760
 1442TIP3    H1 4203   3.997   4.594   0.801
 1442TIP3    H2 4204   4.009   4.520   0.669
 1443TIP3   OH2 4205   3.354   4.676   0.791
 1443TIP3    H1 4206   3.388   4.589   0.810
 1443TIP3    H2 4207   3.312   4.667   0.705
 1444TIP3   OH2 4208   2.764   4.340   0.781
 1444TIP3    H1 4209   2.722   4.393   0.713
 1444TIP3    H2 4210   2.729   4.253   0.769
 1445TIP3   OH2 4211   3.418   4.449   0.382
 1445TIP3    H1 4212   3.482   4.440   0.453
 1445TIP3    H2 4213   3.469   4.484   0.309
 1446TIP3   OH2 4214   2.367   4.604   0.872
 1446TIP3    H1 4215   2.449   4.574   0.912
 1446TIP3    H2 4216   2.359   4.551   0.792
 1447TIP3   OH2 4217   2.765   4.756   0.694
 1447TIP3    H1 4218   2.860   4.748   0.698
 1447TIP3    H2 4219   2.734   4.668   0.669
 1448TIP3   OH2 4220   4.037   4.730   0.922
 1448TIP3    H1 4221   3.947   4.764   0.922
 1448TIP3    H2 4222   4.075   4.765   1.002
 1449TIP3   OH2 4223   2.685   4.302   1.174
 1449TIP3    H1 4224   2.593   4.328   1.174
 1449TIP3    H2 4225   2.717   4.324   1.262
 1450TIP3   OH2 4226   3.030   5.208   0.192
 1450TIP3    H1 4227   3.003   5.183   0.104
 1450TIP3    H2 4228   2.973   5.281   0.215
 1451TIP3   OH2 4229   2.769   5.112   0.957
 1451TIP3    H1 4230   2.722   5.186   0.995
 1451TIP3    H2 4231   2.828   5.152   0.892
 1452TIP3   OH2 4232   3.577   4.461   0.601
 1452TIP3    H1 4233   3.531   4.440   0.683
 1452TIP3    H2 4234   3.631   4.537   0.622
 1453TIP3   OH2 4235   2.590   4.474   0.955
 1453TIP3    H1 4236   2.650   4.527   1.008
 1453TIP3    H2 4237   2.648   4.417   0.904
 1454TIP3   OH2 4238   2.626   5.324   1.064
 1454TIP3    H1 4239   2.609   5.413   1.033
 1454TIP3    H2 4240   2.548   5.300   1.113
 1455TIP3   OH2 4241   2.012   5.065   0.373
 1455TIP3    H1 4242   2.023   5.089   0.281
 1455TIP3    H2 4243   2.045   5.140   0.421
 1456TIP3   OH2 4244   3.441   5.481   0.554
 1456TIP3    H1 4245   3.358   5.481   0.603
 1456TIP3    H2 4246   3.423   5.431   0.475
 1457TIP3   OH2 4247   3.770   4.412   0.924
 1457TIP3    H1 4248   3.688   4.425   0.878
 1457TIP3    H2 4249   3.838   4.435   0.860
 1458TIP3   OH2 4250   3.048   4.039   0.927
 1458TIP3    H1 4251   3.044   3.945   0.946
 1458TIP3    H2 4252   2.968   4.074   0.965
 1459TIP3   OH2 4253   3.171   5.549   0.207
 1459TIP3    H1 4254   3.217   5.466   0.190
 1459TIP3    H2 4255   3.238   5.616   0.189
 1460TIP3   OH2 4256   3.330   5.336   0.141
 1460TIP3    H1 4257   3.316   5.255   0.092
 1460TIP3    H2 4258   3.354   5.307   0.229
 1461TIP3   OH2 4259   3.665   5.431   0.879
 1461TIP3    H1 4260   3.651   5.350   0.830
 1461TIP3    H2 4261   3.669   5.499   0.812
 1462TIP3   OH2 4262   2.979   4.838   0.176
 1462TIP3    H1 4263   2.902   4.892   0.160
 1462TIP3    H2 4264   3.013   4.818   0.088
 1463TIP3   OH2 4265   9.475   0.039   7.891
 1463TIP3    H1 4266   9.561   0.066   7.923
 1463TIP3    H2 4267   9.492   0.001   7.805
 1464TIP3   OH2 4268   3.855   5.075   0.777
 1464TIP3    H1 4269   3.771   5.121   0.771
 1464TIP3    H2 4270   3.895   5.086   0.691
 1465TIP3   OH2 4271   3.338   4.911   0.147
 1465TIP3    H1 4272   3.282   4.939   0.219
 1465TIP3    H2 4273   3.418   4.879   0.189
 1466TIP3   OH2 4274   3.559   4.927   1.085
 1466TIP3    H1 4275   3.557   5.014   1.124
 1466TIP3    H2 4276   3.476   4.920   1.039
 1467TIP3   OH2 4277   2.578   4.906   0.552
 1467TIP3    H1 4278   2.541   4.859   0.478
 1467TIP3    H2 4279   2.643   4.845   0.588
 1468TIP3   OH2 4280   2.697   5.317   0.661
 1468TIP3    H1 4281   2.680   5.284   0.573
 1468TIP3    H2 4282   2.779   5.275   0.687
 1469TIP3   OH2 4283   2.651   4.874   0.917
 1469TIP3    H1 4284   2.692   4.838   0.839
 1469TIP3    H2 4285   2.700   4.955   0.935
 1470TIP3   OH2 4286   3.215   5.516   0.693
 1470TIP3    H1 4287   3.189   5.597   0.736
 1470TIP3    H2 4288   3.192   5.447   0.756
 1471TIP3   OH2 4289   2.821   5.422   1.233
 1471TIP3    H1 4290   2.758   5.478   1.277
 1471TIP3    H2 4291   2.769   5.366   1.175
 1472TIP3   OH2 4292   9.711   0.153   7.976
 1472TIP3    H1 4293   9.767   0.211   8.027
 1472TIP3    H2 4294   9.733   0.172   7.885
 1473TIP3   OH2 4295   2.547   4.962   1.397
 1473TIP3    H1 4296   2.564   5.055   1.407
 1473TIP3    H2 4297   2.452   4.954   1.396
 1474TIP3   OH2 4298   2.904   5.456   0.228
 1474TIP3    H1 4299   2.992   5.493   0.222
 1474TIP3    H2 4300   2.850   5.512   0.172
 1475TIP3   OH2 4301   2.613   5.579   1.318
 1475TIP3    H1 4302   2.584   5.588   1.227
 1475TIP3    H2 4303   2.533   5.562   1.368
 1476TIP3   OH2 4304   6.922   8.613   7.978
 1476TIP3    H1 4305   6.851   8.641   8.037
 1476TIP3    H2 4306   6.939   8.690   7.923
 1477TIP3   OH2 4307   2.460   4.801   0.325
 1477TIP3    H1 4308   2.387   4.852   0.288
 1477TIP3    H2 4309   2.424   4.714   0.338
 1478TIP3   OH2 4310   2.205   5.136   1.267
 1478TIP3    H1 4311   2.133   5.120   1.207
 1478TIP3    H2 4312   2.232   5.049   1.296
 1479TIP3   OH2 4313   2.049   5.333   0.927
 1479TIP3    H1 4314   2.139   5.355   0.951
 1479TIP3    H2 4315   1.997   5.408   0.954
 1480TIP3   OH2 4316   3.895   5.747   0.978
 1480TIP3    H1 4317   3.898   5.654   1.003
 1480TIP3    H2 4318   3.813   5.779   1.015
 1481TIP3   OH2 4319   3.012   5.563   1.096
 1481TIP3    H1 4320   2.999   5.652   1.128
 1481TIP3    H2 4321   2.943   5.512   1.140
 1482TIP3   OH2 4322   2.788   5.663   0.056
 1482TIP3    H1 4323   2.741   5.648  -0.026
 1482TIP3    H2 4324   2.768   5.754   0.079
 1483TIP3   OH2 4325   2.240   5.569   0.443
 1483TIP3    H1 4326   2.293   5.557   0.522
 1483TIP3    H2 4327   2.188   5.489   0.436
 1484TIP3   OH2 4328   9.488   0.977   7.713
 1484TIP3    H1 4329   9.536   0.911   7.663
 1484TIP3    H2 4330   9.530   0.977   7.799
 1485TIP3   OH2 4331   3.045   5.621  -0.030
 1485TIP3    H1 4332   2.954   5.627   0.000
 1485TIP3    H2 4333   3.092   5.580   0.042
 1486TIP3   OH2 4334   3.796   4.882   1.240
 1486TIP3    H1 4335   3.716   4.890   1.188
 1486TIP3    H2 4336   3.816   4.788   1.237
 1487TIP3   OH2 4337   2.406   5.320   1.233
 1487TIP3    H1 4338   2.459   5.307   1.312
 1487TIP3    H2 4339   2.335   5.256   1.240
 1488TIP3   OH2 4340   2.803   4.102   1.038
 1488TIP3    H1 4341   2.729   4.068   0.988
 1488TIP3    H2 4342   2.770   4.182   1.079
 1489TIP3   OH2 4343   3.335   4.258   1.259
 1489TIP3    H1 4344   3.405   4.232   1.319
 1489TIP3    H2 4345   3.254   4.241   1.307
 1490TIP3   OH2 4346   3.543   4.661   1.174
 1490TIP3    H1 4347   3.514   4.664   1.265
 1490TIP3    H2 4348   3.537   4.751   1.143
 1491TIP3   OH2 4349   9.765   0.187   7.713
 1491TIP3    H1 4350   9.713   0.151   7.642
 1491TIP3    H2 4351   9.846   0.218   7.671
 1492TIP3   OH2 4352   2.936   4.325   0.073
 1492TIP3    H1 4353   2.920   4.278   0.155
 1492TIP3    H2 4354   2.860   4.303   0.018
 1493TIP3   OH2 4355   2.736   4.674   1.083
 1493TIP3    H1 4356   2.680   4.677   1.161
 1493TIP3    H2 4357   2.704   4.745   1.028
 1494TIP3   OH2 4358   2.653   4.520   0.608
 1494TIP3    H1 4359   2.559   4.508   0.623
 1494TIP3    H2 4360   2.664   4.505   0.514
 1495TIP3   OH2 4361   3.110   4.637   0.310
 1495TIP3    H1 4362   3.057   4.704   0.267
 1495TIP3    H2 4363   3.163   4.600   0.239
 1496TIP3   OH2 4364   3.243   4.925   1.390
 1496TIP3    H1 4365   3.333   4.912   1.421
 1496TIP3    H2 4366   3.237   5.019   1.373
 1497TIP3   OH2 4367   3.272   4.631   0.532
 1497TIP3    H1 4368   3.204   4.655   0.469
 1497TIP3    H2 4369   3.317   4.557   0.491
 1498TIP3   OH2 4370   2.574   4.710   1.298
 1498TIP3    H1 4371   2.574   4.795   1.343
 1498TIP3    H2 4372   2.540   4.649   1.364
 1499TIP3   OH2 4373   5.989   8.848   7.934
 1499TIP3    H1 4374   5.975   8.762   7.893
 1499TIP3    H2 4375   5.914   8.859   7.993
 1500TIP3   OH2 4376   2.141   4.370   0.917
 1500TIP3    H1 4377   2.165   4.429   0.989
 1500TIP3    H2 4378   2.132   4.284   0.958
 1501TIP3   OH2 4379   2.091   4.115   0.223
 1501TIP3    H1 4380   2.082   4.197   0.272
 1501TIP3    H2 4381   2.022   4.059   0.256
 1502TIP3   OH2 4382   3.308   4.866   0.978
 1502TIP3    H1 4383   3.329   4.800   0.912
 1502TIP3    H2 4384   3.246   4.822   1.036
 1503TIP3   OH2 4385   3.020   4.405   0.686
 1503TIP3    H1 4386   2.937   4.386   0.729
 1503TIP3    H2 4387   3.085   4.360   0.739
 1504TIP3   OH2 4388   2.388   4.458   0.634
 1504TIP3    H1 4389   2.293   4.469   0.635
 1504TIP3    H2 4390   2.401   4.363   0.636
 1505TIP3   OH2 4391   2.663   4.476   0.344
 1505TIP3    H1 4392   2.748   4.459   0.303
 1505TIP3    H2 4393   2.606   4.499   0.271
 1506TIP3   OH2 4394   3.435   4.412   0.833
 1506TIP3    H1 4395   3.413   4.431   0.925
 1506TIP3    H2 4396   3.370   4.348   0.806
 1507TIP3   OH2 4397   2.491   4.541   0.131
 1507TIP3    H1 4398   2.476   4.447   0.122
 1507TIP3    H2 4399   2.552   4.563   0.061
 1508TIP3   OH2 4400   3.593   6.111   1.033
 1508TIP3    H1 4401   3.587   6.137   0.941
 1508TIP3    H2 4402   3.676   6.150   1.063
 1509TIP3   OH2 4403   2.563   5.237   1.464
 1509TIP3    H1 4404   2.645   5.251   1.511
 1509TIP3    H2 4405   2.495   5.247   1.531
 1510TIP3   OH2 4406   3.039   4.717   0.736
 1510TIP3    H1 4407   3.076   4.642   0.690
 1510TIP3    H2 4408   3.030   4.687   0.827
 1511TIP3   OH2 4409   2.685   4.078   0.728
 1511TIP3    H1 4410   2.631   4.105   0.654
 1511TIP3    H2 4411   2.771   4.063   0.691
 1512TIP3   OH2 4412   2.994   4.631   0.994
 1512TIP3    H1 4413   2.903   4.655   1.012
 1512TIP3    H2 4414   3.013   4.560   1.056
 1513TIP3   OH2 4415   2.762   5.012   0.130
 1513TIP3    H1 4416   2.692   4.949   0.112
 1513TIP3    H2 4417   2.751   5.035   0.222
 1514TIP3   OH2 4418   3.622   5.213   0.717
 1514TIP3    H1 4419   3.656   5.257   0.639
 1514TIP3    H2 4420   3.546   5.164   0.686
 1515TIP3   OH2 4421   3.199   4.300   0.025
 1515TIP3    H1 4422   3.105   4.314   0.040
 1515TIP3    H2 4423   3.237   4.387   0.034
 1516TIP3   OH2 4424   3.156   5.311   1.134
 1516TIP3    H1 4425   3.224   5.312   1.201
 1516TIP3    H2 4426   3.114   5.397   1.141
 1517TIP3   OH2 4427   3.282   4.550   0.101
 1517TIP3    H1 4428   3.377   4.561   0.110
 1517TIP3    H2 4429   3.255   4.624   0.046
 1518TIP3   OH2 4430   2.449   5.002   0.772
 1518TIP3    H1 4431   2.488   4.980   0.687
 1518TIP3    H2 4432   2.510   4.966   0.836
 1519TIP3   OH2 4433   9.453   0.505   7.937
 1519TIP3    H1 4434   9.411   0.591   7.937
 1519TIP3    H2 4435   9.400   0.453   7.998
 1520TIP3   OH2 4436   2.276   4.899   1.403
 1520TIP3    H1 4437   2.279   4.857   1.489
 1520TIP3    H2 4438   2.202   4.858   1.358
 1521TIP3   OH2 4439   3.276   5.592   1.013
 1521TIP3    H1 4440   3.182   5.576   1.020
 1521TIP3    H2 4441   3.302   5.624   1.100
 1522TIP3   OH2 4442   0.402   0.004   7.915
 1522TIP3    H1 4443   0.342  -0.047   7.860
 1522TIP3    H2 4444   0.401   0.092   7.877
 1523TIP3   OH2 4445   3.908   5.464   1.000
 1523TIP3    H1 4446   3.815   5.460   0.980
 1523TIP3    H2 4447   3.951   5.448   0.916
 1524TIP3   OH2 4448   0.104   0.795   7.859
 1524TIP3    H1 4449   0.105   0.763   7.949
 1524TIP3    H2 4450   0.044   0.737   7.813
 1525TIP3   OH2 4451   3.403   5.064   0.623
 1525TIP3    H1 4452   3.316   5.043   0.658
 1525TIP3    H2 4453   3.435   4.982   0.588
 1526TIP3   OH2 4454   2.507   5.281   0.402
 1526TIP3    H1 4455   2.495   5.253   0.311
 1526TIP3    H2 4456   2.419   5.275   0.440
 1527TIP3   OH2 4457   2.156   4.559   0.173
 1527TIP3    H1 4458   2.212   4.577   0.249
 1527TIP3    H2 4459   2.075   4.606   0.192
 1528TIP3   OH2 4460   2.702   5.085   0.385
 1528TIP3    H1 4461   2.643   5.160   0.390
 1528TIP3    H2 4462   2.666   5.022   0.448
 1529TIP3   OH2 4463   2.829   5.639   0.888
 1529TIP3    H1 4464   2.863   5.714   0.840
 1529TIP3    H2 4465   2.903   5.606   0.938
 1530TIP3   OH2 4466   2.394   5.585   0.218
 1530TIP3    H1 4467   2.321   5.579   0.280
 1530TIP3    H2 4468   2.471   5.560   0.269
 1531TIP3   OH2 4469   3.172   5.295   0.859
 1531TIP3    H1 4470   3.167   5.294   0.954
 1531TIP3    H2 4471   3.223   5.217   0.837
 1532TIP3   OH2 4472   9.721   0.599   7.782
 1532TIP3    H1 4473   9.774   0.549   7.844
 1532TIP3    H2 4474   9.632   0.563   7.792
 1533TIP3   OH2 4475   3.426   5.794   0.894
 1533TIP3    H1 4476   3.358   5.730   0.915
 1533TIP3    H2 4477   3.389   5.845   0.821
 1534TIP3   OH2 4478   0.091   0.497   7.973
 1534TIP3    H1 4479   0.076   0.422   8.030
 1534TIP3    H2 4480   0.185   0.494   7.954
 1535TIP3   OH2 4481   2.259   5.505   1.059
 1535TIP3    H1 4482   2.312   5.440   1.106
 1535TIP3    H2 4483   2.271   5.586   1.108
 1536TIP3   OH2 4484   9.062   0.516   7.675
 1536TIP3    H1 4485   9.141   0.473   7.641
 1536TIP3    H2 4486   9.030   0.457   7.743
 1537TIP3   OH2 4487   2.524   5.195   0.138
 1537TIP3    H1 4488   2.602   5.141   0.122
 1537TIP3    H2 4489   2.539   5.274   0.086
 1538TIP3   OH2 4490   2.232   4.921   0.217
 1538TIP3    H1 4491   2.188   4.891   0.296
 1538TIP3    H2 4492   2.199   5.010   0.204
 1539TIP3   OH2 4493   3.362   4.469   1.088
 1539TIP3    H1 4494   3.436   4.520   1.121
 1539TIP3    H2 4495   3.355   4.395   1.148
 1540TIP3   OH2 4496   3.275   4.237   0.284
 1540TIP3    H1 4497   3.240   4.260   0.198
 1540TIP3    H2 4498   3.319   4.317   0.315
 1541TIP3   OH2 4499   9.312   0.735   7.945
 1541TIP3    H1 4500   9.237   0.772   7.990
 1541TIP3    H2 4501   9.290   0.742   7.852
 1542TIP3   OH2 4502   2.962   4.433   0.418
 1542TIP3    H1 4503   3.006   4.509   0.382
 1542TIP3    H2 4504   2.970   4.444   0.513
 1543TIP3   OH2 4505   3.228   4.669   1.244
 1543TIP3    H1 4506   3.309   4.644   1.287
 1543TIP3    H2 4507   3.218   4.608   1.171
 1544TIP3   OH2 4508   3.136   4.185   0.515
 1544TIP3    H1 4509   3.114   4.274   0.543
 1544TIP3    H2 4510   3.184   4.197   0.433
 1545TIP3   OH2 4511   2.525   5.439   0.019
 1545TIP3    H1 4512   2.505   5.492  -0.057
 1545TIP3    H2 4513   2.465   5.469   0.087
 1546TIP3   OH2 4514   2.644   4.162   0.331
 1546TIP3    H1 4515   2.612   4.194   0.416
 1546TIP3    H2 4516   2.739   4.175   0.335
 1547TIP3   OH2 4517   3.808   4.605   1.141
 1547TIP3    H1 4518   3.714   4.613   1.154
 1547TIP3    H2 4519   3.817   4.545   1.067
 1548TIP3   OH2 4520   3.488   4.812   0.536
 1548TIP3    H1 4521   3.413   4.754   0.545
 1548TIP3    H2 4522   3.556   4.773   0.590
 1549TIP3   OH2 4523   8.841   0.523   7.976
 1549TIP3    H1 4524   8.908   0.545   8.040
 1549TIP3    H2 4525   8.878   0.451   7.925
 1550TIP3   OH2 4526   2.226   4.317   0.059
 1550TIP3    H1 4527   2.194   4.406   0.074
 1550TIP3    H2 4528   2.150   4.261   0.075
 1551TIP3   OH2 4529   3.457   5.757   0.477
 1551TIP3    H1 4530   3.376   5.705   0.471
 1551TIP3    H2 4531   3.511   5.710   0.540
 1552TIP3   OH2 4532   2.477   4.072   1.064
 1552TIP3    H1 4533   2.477   4.017   0.985
 1552TIP3    H2 4534   2.511   4.015   1.132
 1553TIP3   OH2 4535   2.098   5.332   0.431
 1553TIP3    H1 4536   2.043   5.361   0.503
 1553TIP3    H2 4537   2.048   5.354   0.352
 1554TIP3   OH2 4538   2.249   5.829   1.474
 1554TIP3    H1 4539   2.333   5.830   1.521
 1554TIP3    H2 4540   2.224   5.737   1.470
 1555TIP3   OH2 4541   2.721   5.746   1.509
 1555TIP3    H1 4542   2.811   5.715   1.521
 1555TIP3    H2 4543   2.686   5.691   1.439
 1556TIP3   OH2 4544   9.222   0.738   7.686
 1556TIP3    H1 4545   9.151   0.674   7.686
 1556TIP3    H2 4546   9.287   0.701   7.626
 1557TIP3   OH2 4547   3.343   5.676   1.265
 1557TIP3    H1 4548   3.348   5.603   1.326
 1557TIP3    H2 4549   3.422   5.728   1.282
 1558TIP3   OH2 4550   2.359   5.249   1.656
 1558TIP3    H1 4551   2.379   5.157   1.671
 1558TIP3    H2 4552   2.273   5.249   1.614
 1559TIP3   OH2 4553   8.979   0.325   7.853
 1559TIP3    H1 4554   9.018   0.287   7.932
 1559TIP3    H2 4555   8.956   0.249   7.799
 1560TIP3   OH2 4556   2.991   5.348   1.435
 1560TIP3    H1 4557   2.935   5.364   1.359
 1560TIP3    H2 4558   3.054   5.283   1.404
 1561TIP3   OH2 4559   9.341   0.441   7.683
 1561TIP3    H1 4560   9.387   0.452   7.766
 1561TIP3    H2 4561   9.343   0.347   7.666
 1562TIP3   OH2 4562   3.460   5.378   1.059
 1562TIP3    H1 4563   3.533   5.401   1.002
 1562TIP3    H2 4564   3.390   5.439   1.034
 1563TIP3   OH2 4565   2.462   4.998   1.674
 1563TIP3    H1 4566   2.526   4.950   1.622
 1563TIP3    H2 4567   2.499   5.000   1.762
 1564TIP3   OH2 4568   2.569   4.833   0.073
 1564TIP3    H1 4569   2.534   4.805   0.157
 1564TIP3    H2 4570   2.602   4.752   0.033
 1565TIP3   OH2 4571   5.946   9.234   7.951
 1565TIP3    H1 4572   5.935   9.174   7.877
 1565TIP3    H2 4573   6.039   9.258   7.949
 1566TIP3   OH2 4574   3.319   5.211   1.406
 1566TIP3    H1 4575   3.404   5.205   1.363
 1566TIP3    H2 4576   3.333   5.173   1.492
 1567TIP3   OH2 4577   0.189   0.288   7.581
 1567TIP3    H1 4578   0.198   0.246   7.496
 1567TIP3    H2 4579   0.164   0.378   7.561
 1568TIP3   OH2 4580   2.950   4.695   1.343
 1568TIP3    H1 4581   2.961   4.606   1.310
 1568TIP3    H2 4582   2.866   4.723   1.309
 1569TIP3   OH2 4583   2.988   4.448   1.200
 1569TIP3    H1 4584   3.017   4.365   1.163
 1569TIP3    H2 4585   2.926   4.423   1.269
 1570TIP3   OH2 4586   3.541   4.906   1.490
 1570TIP3    H1 4587   3.578   4.820   1.510
 1570TIP3    H2 4588   3.616   4.960   1.468
 1571TIP3   OH2 4589   3.578   5.182   1.208
 1571TIP3    H1 4590   3.528   5.248   1.160
 1571TIP3    H2 4591   3.668   5.194   1.180
 1572TIP3   OH2 4592   2.827   4.714   1.636
 1572TIP3    H1 4593   2.763   4.649   1.666
 1572TIP3    H2 4594   2.846   4.688   1.546
 1573TIP3   OH2 4595   3.067   4.188   1.328
 1573TIP3    H1 4596   3.005   4.249   1.368
 1573TIP3    H2 4597   3.015   4.110   1.310
 1574TIP3   OH2 4598   3.168   4.708   1.569
 1574TIP3    H1 4599   3.248   4.709   1.621
 1574TIP3    H2 4600   3.106   4.655   1.621
 1575TIP3   OH2 4601   3.430   4.610   1.423
 1575TIP3    H1 4602   3.371   4.560   1.479
 1575TIP3    H2 4603   3.516   4.602   1.465
 1576TIP3   OH2 4604   3.671   4.598   1.554
 1576TIP3    H1 4605   3.691   4.504   1.561
 1576TIP3    H2 4606   3.668   4.628   1.645
 1577TIP3   OH2 4607   2.690   4.483   1.694
 1577TIP3    H1 4608   2.726   4.429   1.624
 1577TIP3    H2 4609   2.729   4.448   1.774
 1578TIP3   OH2 4610   3.207   4.201   1.565
 1578TIP3    H1 4611   3.260   4.122   1.556
 1578TIP3    H2 4612   3.138   4.191   1.498
 1579TIP3   OH2 4613   3.250   4.437   1.685
 1579TIP3    H1 4614   3.237   4.350   1.647
 1579TIP3    H2 4615   3.164   4.462   1.718
 1580TIP3   OH2 4616   8.981   1.069   7.919
 1580TIP3    H1 4617   9.060   1.065   7.864
 1580TIP3    H2 4618   8.910   1.090   7.858
 1581TIP3   OH2 4619   8.439   0.413   7.910
 1581TIP3    H1 4620   8.502   0.484   7.895
 1581TIP3    H2 4621   8.491   0.343   7.949
 1582TIP3   OH2 4622   1.854   5.635   0.518
 1582TIP3    H1 4623   1.788   5.589   0.465
 1582TIP3    H2 4624   1.900   5.565   0.564
 1583TIP3   OH2 4625   1.997   5.448   0.665
 1583TIP3    H1 4626   1.984   5.376   0.728
 1583TIP3    H2 4627   2.053   5.510   0.712
 1584TIP3   OH2 4628   3.679   5.951   0.439
 1584TIP3    H1 4629   3.695   5.937   0.533
 1584TIP3    H2 4630   3.756   5.999   0.408
 1585TIP3   OH2 4631   3.717   5.895   0.708
 1585TIP3    H1 4632   3.677   5.809   0.713
 1585TIP3    H2 4633   3.802   5.885   0.753
 1586TIP3   OH2 4634   3.800   5.593   1.317
 1586TIP3    H1 4635   3.729   5.600   1.381
 1586TIP3    H2 4636   3.849   5.674   1.328
 1587TIP3   OH2 4637   0.366   0.469   7.945
 1587TIP3    H1 4638   0.429   0.535   7.916
 1587TIP3    H2 4639   0.409   0.423   8.016
 1588TIP3   OH2 4640   3.763   4.945   0.136
 1588TIP3    H1 4641   3.699   4.904   0.194
 1588TIP3    H2 4642   3.830   4.980   0.195
 1589TIP3   OH2 4643   3.798   5.355   0.549
 1589TIP3    H1 4644   3.854   5.281   0.524
 1589TIP3    H2 4645   3.829   5.427   0.495
 1590TIP3   OH2 4646   3.585   5.651   0.713
 1590TIP3    H1 4647   3.528   5.676   0.785
 1590TIP3    H2 4648   3.540   5.577   0.671
 1591TIP3   OH2 4649   0.377   0.245   7.784
 1591TIP3    H1 4650   0.309   0.253   7.718
 1591TIP3    H2 4651   0.366   0.322   7.840
 1592TIP3   OH2 4652   6.768   9.112   7.745
 1592TIP3    H1 4653   6.743   9.137   7.656
 1592TIP3    H2 4654   6.740   9.021   7.754
 1593TIP3   OH2 4655   3.562   4.805   0.270
 1593TIP3    H1 4656   3.570   4.712   0.251
 1593TIP3    H2 4657   3.543   4.809   0.364
 1594TIP3   OH2 4658   2.172   4.897   1.033
 1594TIP3    H1 4659   2.171   4.866   0.943
 1594TIP3    H2 4660   2.263   4.888   1.061
 1595TIP3   OH2 4661   3.840   5.225   1.131
 1595TIP3    H1 4662   3.902   5.154   1.116
 1595TIP3    H2 4663   3.873   5.298   1.078
 1596TIP3   OH2 4664   4.006   5.007   1.117
 1596TIP3    H1 4665   3.934   4.962   1.160
 1596TIP3    H2 4666   4.082   4.952   1.133
 1597TIP3   OH2 4667   6.712   8.840   7.754
 1597TIP3    H1 4668   6.807   8.824   7.762
 1597TIP3    H2 4669   6.672   8.772   7.809
 1598TIP3   OH2 4670   3.564   4.540   0.158
 1598TIP3    H1 4671   3.604   4.453   0.169
 1598TIP3    H2 4672   3.604   4.574   0.078
 1599TIP3   OH2 4673   3.703   4.698   0.673
 1599TIP3    H1 4674   3.783   4.716   0.624
 1599TIP3    H2 4675   3.719   4.736   0.760
 1600TIP3   OH2 4676   3.776   4.843   0.902
 1600TIP3    H1 4677   3.704   4.870   0.959
 1600TIP3    H2 4678   3.807   4.924   0.862
 1601TIP3   OH2 4679   2.442   4.595   1.728
 1601TIP3    H1 4680   2.530   4.561   1.711
 1601TIP3    H2 4681   2.388   4.516   1.741
 1602TIP3   OH2 4682   4.233   4.446   1.433
 1602TIP3    H1 4683   4.300   4.389   1.397
 1602TIP3    H2 4684   4.197   4.493   1.357
 1603TIP3   OH2 4685   3.661   4.283   0.198
 1603TIP3    H1 4686   3.702   4.262   0.282
 1603TIP3    H2 4687   3.599   4.211   0.184
 1604TIP3   OH2 4688   2.394   4.327   1.093
 1604TIP3    H1 4689   2.418   4.235   1.078
 1604TIP3    H2 4690   2.448   4.376   1.032
 1605TIP3   OH2 4691   2.197   4.578   1.095
 1605TIP3    H1 4692   2.253   4.603   1.021
 1605TIP3    H2 4693   2.252   4.592   1.172
 1606TIP3   OH2 4694   4.080   4.558   1.236
 1606TIP3    H1 4695   4.001   4.597   1.274
 1606TIP3    H2 4696   4.048   4.485   1.183
 1607TIP3   OH2 4697   6.987   8.806   7.788
 1607TIP3    H1 4698   7.026   8.777   7.705
 1607TIP3    H2 4699   7.036   8.884   7.812
 1608TIP3   OH2 4700   2.119   4.178   0.592
 1608TIP3    H1 4701   2.087   4.088   0.596
 1608TIP3    H2 4702   2.062   4.222   0.529
 1609TIP3   OH2 4703   3.354   5.742   0.127
 1609TIP3    H1 4704   3.372   5.713   0.038
 1609TIP3    H2 4705   3.343   5.837   0.119
 1610TIP3   OH2 4706   2.374   4.105   1.407
 1610TIP3    H1 4707   2.432   4.171   1.445
 1610TIP3    H2 4708   2.307   4.155   1.361
 1611TIP3   OH2 4709   2.398   5.548   1.491
 1611TIP3    H1 4710   2.304   5.534   1.481
 1611TIP3    H2 4711   2.415   5.530   1.583
 1612TIP3   OH2 4712   2.598   5.600   1.035
 1612TIP3    H1 4713   2.546   5.674   1.002
 1612TIP3    H2 4714   2.683   5.609   0.991
 1613TIP3   OH2 4715   2.990   5.825   1.180
 1613TIP3    H1 4716   3.031   5.821   1.267
 1613TIP3    H2 4717   3.052   5.875   1.127
 1614TIP3   OH2 4718   3.184   5.961   1.041
 1614TIP3    H1 4719   3.229   5.909   0.973
 1614TIP3    H2 4720   3.254   5.989   1.100
 1615TIP3   OH2 4721   3.996   4.302   1.136
 1615TIP3    H1 4722   3.908   4.284   1.102
 1615TIP3    H2 4723   4.041   4.218   1.131
 1616TIP3   OH2 4724   2.259   5.856   1.075
 1616TIP3    H1 4725   2.166   5.866   1.055
 1616TIP3    H2 4726   2.276   5.919   1.145
 1617TIP3   OH2 4727   2.490   5.831   0.929
 1617TIP3    H1 4728   2.408   5.840   0.978
 1617TIP3    H2 4729   2.466   5.848   0.838
 1618TIP3   OH2 4730   2.899   5.852   0.722
 1618TIP3    H1 4731   2.822   5.862   0.666
 1618TIP3    H2 4732   2.911   5.938   0.763
 1619TIP3   OH2 4733   3.161   5.782   0.765
 1619TIP3    H1 4734   3.069   5.802   0.745
 1619TIP3    H2 4735   3.211   5.847   0.716
 1620TIP3   OH2 4736   3.356   5.949   0.662
 1620TIP3    H1 4737   3.359   6.042   0.637
 1620TIP3    H2 4738   3.394   5.903   0.587
 1621TIP3   OH2 4739   2.177   5.613   0.814
 1621TIP3    H1 4740   2.199   5.582   0.902
 1621TIP3    H2 4741   2.252   5.587   0.760
 1622TIP3   OH2 4742   2.387   5.523   0.669
 1622TIP3    H1 4743   2.395   5.435   0.706
 1622TIP3    H2 4744   2.477   5.557   0.670
 1623TIP3   OH2 4745   2.657   5.591   0.674
 1623TIP3    H1 4746   2.672   5.499   0.657
 1623TIP3    H2 4747   2.707   5.610   0.753
 1624TIP3   OH2 4748   3.213   4.237   0.800
 1624TIP3    H1 4749   3.166   4.168   0.846
 1624TIP3    H2 4750   3.270   4.191   0.738
 1625TIP3   OH2 4751   3.700   4.161   0.665
 1625TIP3    H1 4752   3.734   4.211   0.591
 1625TIP3    H2 4753   3.605   4.178   0.663
 1626TIP3   OH2 4754   3.813   4.226   0.422
 1626TIP3    H1 4755   3.884   4.168   0.394
 1626TIP3    H2 4756   3.850   4.314   0.413
 1627TIP3   OH2 4757   2.340   3.943   0.648
 1627TIP3    H1 4758   2.341   3.954   0.743
 1627TIP3    H2 4759   2.411   3.881   0.630
 1628TIP3   OH2 4760   2.179   3.834   0.389
 1628TIP3    H1 4761   2.196   3.822   0.296
 1628TIP3    H2 4762   2.087   3.859   0.394
 1629TIP3   OH2 4763   2.948   4.054   0.661
 1629TIP3    H1 4764   3.013   4.099   0.607
 1629TIP3    H2 4765   2.989   4.049   0.748
 1630TIP3   OH2 4766   3.416   4.116   0.652
 1630TIP3    H1 4767   3.425   4.074   0.567
 1630TIP3    H2 4768   3.428   4.045   0.715
 1631TIP3   OH2 4769   3.476   4.077   0.181
 1631TIP3    H1 4770   3.403   4.128   0.217
 1631TIP3    H2 4771   3.470   3.992   0.225
 1632TIP3   OH2 4772   1.992   5.410   0.181
 1632TIP3    H1 4773   1.908   5.367   0.197
 1632TIP3    H2 4774   1.968   5.496   0.146
 1633TIP3   OH2 4775   2.372   4.033   0.093
 1633TIP3    H1 4776   2.309   3.965   0.069
 1633TIP3    H2 4777   2.359   4.046   0.187
 1634TIP3   OH2 4778   2.910   4.191   0.310
 1634TIP3    H1 4779   2.971   4.120   0.331
 1634TIP3    H2 4780   2.942   4.266   0.359
 1635TIP3   OH2 4781   9.220   0.996   7.792
 1635TIP3    H1 4782   9.304   1.025   7.757
 1635TIP3    H2 4783   9.202   0.912   7.749
 1636TIP3   OH2 4784   0.146   1.063   7.867
 1636TIP3    H1 4785   0.136   0.968   7.855
 1636TIP3    H2 4786   0.080   1.101   7.810
 1637TIP3   OH2 4787   8.618   0.904   7.869
 1637TIP3    H1 4788   8.563   0.924   7.946
 1637TIP3    H2 4789   8.617   0.809   7.862
 1638TIP3   OH2 4790   3.745   4.332   1.561
 1638TIP3    H1 4791   3.758   4.298   1.650
 1638TIP3    H2 4792   3.831   4.321   1.519
 1639TIP3   OH2 4793   3.646   5.841   1.056
 1639TIP3    H1 4794   3.572   5.810   1.004
 1639TIP3    H2 4795   3.641   5.937   1.049
 1640TIP3   OH2 4796   4.885   5.228   0.256
 1640TIP3    H1 4797   4.938   5.211   0.334
 1640TIP3    H2 4798   4.844   5.145   0.236
 1641TIP3   OH2 4799   4.225   5.083   0.583
 1641TIP3    H1 4800   4.264   5.029   0.652
 1641TIP3    H2 4801   4.298   5.107   0.527
 1642TIP3   OH2 4802   4.180   5.501   0.282
 1642TIP3    H1 4803   4.171   5.406   0.276
 1642TIP3    H2 4804   4.274   5.516   0.276
 1643TIP3   OH2 4805   3.908   4.724   0.039
 1643TIP3    H1 4806   3.867   4.805   0.069
 1643TIP3    H2 4807   3.838   4.675  -0.002
 1644TIP3   OH2 4808   3.985   5.033   0.279
 1644TIP3    H1 4809   4.035   4.955   0.301
 1644TIP3    H2 4810   4.051   5.099   0.256
 1645TIP3   OH2 4811   4.706   5.462   0.245
 1645TIP3    H1 4812   4.774   5.396   0.233
 1645TIP3    H2 4813   4.754   5.545   0.248
 1646TIP3   OH2 4814   5.741   4.724   0.289
 1646TIP3    H1 4815   5.760   4.814   0.317
 1646TIP3    H2 4816   5.763   4.724   0.196
 1647TIP3   OH2 4817   5.133   4.938   0.291
 1647TIP3    H1 4818   5.170   4.852   0.313
 1647TIP3    H2 4819   5.114   4.933   0.198
 1648TIP3   OH2 4820   4.500   4.588   0.226
 1648TIP3    H1 4821   4.479   4.661   0.167
 1648TIP3    H2 4822   4.444   4.516   0.195
 1649TIP3   OH2 4823   1.862   0.069   7.910
 1649TIP3    H1 4824   1.934   0.067   7.973
 1649TIP3    H2 4825   1.894   0.018   7.835
 1650TIP3   OH2 4826   4.126   4.808   0.354
 1650TIP3    H1 4827   4.209   4.788   0.398
 1650TIP3    H2 4828   4.129   4.760   0.272
 1651TIP3   OH2 4829   4.538   5.003   0.182
 1651TIP3    H1 4830   4.632   4.988   0.189
 1651TIP3    H2 4831   4.504   4.922   0.143
 1652TIP3   OH2 4832   5.801   4.977   0.377
 1652TIP3    H1 4833   5.721   5.029   0.371
 1652TIP3    H2 4834   5.834   4.994   0.465
 1653TIP3   OH2 4835   4.483   4.600   0.677
 1653TIP3    H1 4836   4.431   4.635   0.605
 1653TIP3    H2 4837   4.429   4.613   0.755
 1654TIP3   OH2 4838   4.569   5.365   0.461
 1654TIP3    H1 4839   4.511   5.435   0.490
 1654TIP3    H2 4840   4.618   5.402   0.388
 1655TIP3   OH2 4841   5.326   4.711   0.092
 1655TIP3    H1 4842   5.299   4.690   0.181
 1655TIP3    H2 4843   5.388   4.783   0.103
 1656TIP3   OH2 4844   4.370   4.701   0.445
 1656TIP3    H1 4845   4.425   4.776   0.466
 1656TIP3    H2 4846   4.417   4.657   0.374
 1657TIP3   OH2 4847   4.406   5.570   0.547
 1657TIP3    H1 4848   4.404   5.662   0.520
 1657TIP3    H2 4849   4.326   5.559   0.599
 1658TIP3   OH2 4850   0.528   0.659   7.815
 1658TIP3    H1 4851   0.455   0.674   7.755
 1658TIP3    H2 4852   0.549   0.746   7.849
 1659TIP3   OH2 4853   2.029   1.100   8.002
 1659TIP3    H1 4854   1.958   1.161   8.021
 1659TIP3    H2 4855   2.086   1.146   7.941
 1660TIP3   OH2 4856   5.532   4.642   0.444
 1660TIP3    H1 4857   5.451   4.654   0.396
 1660TIP3    H2 4858   5.601   4.660   0.380
 1661TIP3   OH2 4859   4.823   4.287   0.423
 1661TIP3    H1 4860   4.817   4.195   0.450
 1661TIP3    H2 4861   4.745   4.328   0.460
 1662TIP3   OH2 4862   5.446   5.623   0.467
 1662TIP3    H1 4863   5.472   5.546   0.416
 1662TIP3    H2 4864   5.392   5.674   0.407
 1663TIP3   OH2 4865   5.528   5.299   0.143
 1663TIP3    H1 4866   5.475   5.359   0.195
 1663TIP3    H2 4867   5.535   5.341   0.057
 1664TIP3   OH2 4868   5.326   5.176   0.566
 1664TIP3    H1 4869   5.324   5.251   0.625
 1664TIP3    H2 4870   5.244   5.181   0.517
 1665TIP3   OH2 4871   4.341   5.144   0.040
 1665TIP3    H1 4872   4.291   5.080  -0.011
 1665TIP3    H2 4873   4.414   5.095   0.076
 1666TIP3   OH2 4874   4.444   5.545   0.194
 1666TIP3    H1 4875   4.430   5.537   0.099
 1666TIP3    H2 4876   4.533   5.512   0.208
 1667TIP3   OH2 4877   4.431   5.137   0.399
 1667TIP3    H1 4878   4.470   5.102   0.320
 1667TIP3    H2 4879   4.482   5.216   0.419
 1668TIP3   OH2 4880   4.835   5.711   0.281
 1668TIP3    H1 4881   4.875   5.797   0.272
 1668TIP3    H2 4882   4.909   5.652   0.301
 1669TIP3   OH2 4883   4.596   5.643   0.736
 1669TIP3    H1 4884   4.539   5.708   0.777
 1669TIP3    H2 4885   4.539   5.599   0.672
 1670TIP3   OH2 4886   4.378   5.241   0.865
 1670TIP3    H1 4887   4.375   5.336   0.881
 1670TIP3    H2 4888   4.286   5.216   0.854
 1671TIP3   OH2 4889   4.398   5.825   0.802
 1671TIP3    H1 4890   4.388   5.845   0.709
 1671TIP3    H2 4891   4.308   5.825   0.836
 1672TIP3   OH2 4892   0.908   0.350   7.904
 1672TIP3    H1 4893   0.847   0.393   7.843
 1672TIP3    H2 4894   0.870   0.264   7.919
 1673TIP3   OH2 4895   4.002   5.391   0.755
 1673TIP3    H1 4896   3.937   5.365   0.688
 1673TIP3    H2 4897   4.039   5.308   0.784
 1674TIP3   OH2 4898   3.927   5.560   0.404
 1674TIP3    H1 4899   4.007   5.534   0.359
 1674TIP3    H2 4900   3.952   5.634   0.459
 1675TIP3   OH2 4901   5.688   5.979   0.362
 1675TIP3    H1 4902   5.650   5.898   0.330
 1675TIP3    H2 4903   5.619   6.019   0.414
 1676TIP3   OH2 4904   4.806   5.767   0.615
 1676TIP3    H1 4905   4.794   5.860   0.634
 1676TIP3    H2 4906   4.730   5.724   0.653
 1677TIP3   OH2 4907   0.738   1.123   7.935
 1677TIP3    H1 4908   0.796   1.138   8.009
 1677TIP3    H2 4909   0.694   1.040   7.955
 1678TIP3   OH2 4910   5.575   5.120   0.719
 1678TIP3    H1 4911   5.489   5.128   0.678
 1678TIP3    H2 4912   5.593   5.026   0.718
 1679TIP3   OH2 4913   4.191   5.586   0.720
 1679TIP3    H1 4914   4.246   5.576   0.798
 1679TIP3    H2 4915   4.123   5.520   0.730
 1680TIP3   OH2 4916   4.583   4.380   0.538
 1680TIP3    H1 4917   4.499   4.347   0.506
 1680TIP3    H2 4918   4.561   4.462   0.583
 1681TIP3   OH2 4919   5.126   4.503   0.742
 1681TIP3    H1 4920   5.197   4.480   0.802
 1681TIP3    H2 4921   5.046   4.486   0.793
 1682TIP3   OH2 4922   5.347   4.917   0.658
 1682TIP3    H1 4923   5.306   4.912   0.745
 1682TIP3    H2 4924   5.323   5.004   0.626
 1683TIP3   OH2 4925   4.522   4.913   0.534
 1683TIP3    H1 4926   4.482   4.919   0.621
 1683TIP3    H2 4927   4.497   4.994   0.490
 1684TIP3   OH2 4928   4.409   4.788   0.062
 1684TIP3    H1 4929   4.319   4.767   0.086
 1684TIP3    H2 4930   4.417   4.761  -0.029
 1685TIP3   OH2 4931   5.078   5.131   0.868
 1685TIP3    H1 4932   5.047   5.065   0.930
 1685TIP3    H2 4933   5.170   5.144   0.891
 1686TIP3   OH2 4934   1.781   0.301   8.031
 1686TIP3    H1 4935   1.735   0.349   7.962
 1686TIP3    H2 4936   1.805   0.218   7.990
 1687TIP3   OH2 4937   4.361   4.917   0.762
 1687TIP3    H1 4938   4.425   4.966   0.812
 1687TIP3    H2 4939   4.345   4.838   0.813
 1688TIP3   OH2 4940   3.943   4.453   0.356
 1688TIP3    H1 4941   4.020   4.486   0.403
 1688TIP3    H2 4942   3.976   4.431   0.269
 1689TIP3   OH2 4943   7.120   9.043   7.854
 1689TIP3    H1 4944   7.169   9.077   7.779
 1689TIP3    H2 4945   7.057   9.112   7.874
 1690TIP3   OH2 4946   5.062   5.142   0.455
 1690TIP3    H1 4947   5.094   5.075   0.394
 1690TIP3    H2 4948   5.026   5.092   0.528
 1691TIP3   OH2 4949   4.771   4.585   0.130
 1691TIP3    H1 4950   4.691   4.582   0.182
 1691TIP3    H2 4951   4.842   4.580   0.195
 1692TIP3   OH2 4952   4.166   4.672   0.120
 1692TIP3    H1 4953   4.077   4.674   0.084
 1692TIP3    H2 4954   4.194   4.581   0.109
 1693TIP3   OH2 4955   1.174   0.058   7.810
 1693TIP3    H1 4956   1.268   0.056   7.823
 1693TIP3    H2 4957   1.161   0.108   7.729
 1694TIP3   OH2 4958   5.209   4.670   0.339
 1694TIP3    H1 4959   5.188   4.689   0.431
 1694TIP3    H2 4960   5.142   4.608   0.312
 1695TIP3   OH2 4961   5.375   6.358   0.478
 1695TIP3    H1 4962   5.429   6.418   0.427
 1695TIP3    H2 4963   5.396   6.378   0.569
 1696TIP3   OH2 4964   4.346   5.506   0.954
 1696TIP3    H1 4965   4.429   5.521   0.999
 1696TIP3    H2 4966   4.280   5.511   1.023
 1697TIP3   OH2 4967   4.811   4.955   0.227
 1697TIP3    H1 4968   4.891   4.924   0.185
 1697TIP3    H2 4969   4.810   4.912   0.313
 1698TIP3   OH2 4970   4.302   4.425   0.106
 1698TIP3    H1 4971   4.276   4.344   0.150
 1698TIP3    H2 4972   4.321   4.397   0.016
 1699TIP3   OH2 4973   4.789   4.854   0.487
 1699TIP3    H1 4974   4.702   4.885   0.511
 1699TIP3    H2 4975   4.848   4.903   0.545
 1700TIP3   OH2 4976   5.345   5.484   0.224
 1700TIP3    H1 4977   5.301   5.568   0.237
 1700TIP3    H2 4978   5.273   5.422   0.209
 1701TIP3   OH2 4979   4.917   5.496   0.611
 1701TIP3    H1 4980   4.983   5.501   0.679
 1701TIP3    H2 4981   4.872   5.580   0.613
 1702TIP3   OH2 4982   4.197   5.221   0.259
 1702TIP3    H1 4983   4.239   5.206   0.174
 1702TIP3    H2 4984   4.263   5.195   0.323
 1703TIP3   OH2 4985   4.103   5.176   0.897
 1703TIP3    H1 4986   4.128   5.164   0.989
 1703TIP3    H2 4987   4.035   5.111   0.882
 1704TIP3   OH2 4988   4.854   5.297   0.891
 1704TIP3    H1 4989   4.803   5.275   0.813
 1704TIP3    H2 4990   4.938   5.252   0.879
 1705TIP3   OH2 4991   5.053   5.788   0.500
 1705TIP3    H1 4992   4.963   5.764   0.523
 1705TIP3    H2 4993   5.084   5.839   0.575
 1706TIP3   OH2 4994   5.705   5.718   0.495
 1706TIP3    H1 4995   5.613   5.691   0.494
 1706TIP3    H2 4996   5.744   5.674   0.420
 1707TIP3   OH2 4997   5.143   5.309   0.179
 1707TIP3    H1 4998   5.053   5.278   0.180
 1707TIP3    H2 4999   5.191   5.240   0.132
 1708TIP3   OH2 5000   1.111   0.955   7.928
 1708TIP3    H1 5001   1.160   1.027   7.889
 1708TIP3    H2 5002   1.023   0.963   7.893
 1709TIP3   OH2 5003   0.623   0.223   7.655
 1709TIP3    H1 5004   0.664   0.307   7.674
 1709TIP3    H2 5005   0.538   0.227   7.699
 1710TIP3   OH2 5006   1.176   0.694   7.844
 1710TIP3    H1 5007   1.167   0.783   7.877
 1710TIP3    H2 5008   1.143   0.638   7.914
 1711TIP3   OH2 5009   4.618   5.877   0.361
 1711TIP3    H1 5010   4.647   5.950   0.307
 1711TIP3    H2 5011   4.690   5.813   0.355
 1712TIP3   OH2 5012   5.018   5.516   0.344
 1712TIP3    H1 5013   4.996   5.489   0.433
 1712TIP3    H2 5014   5.063   5.441   0.305
 1713TIP3   OH2 5015   5.179   6.148   0.406
 1713TIP3    H1 5016   5.219   6.069   0.369
 1713TIP3    H2 5017   5.222   6.220   0.361
 1714TIP3   OH2 5018   4.315   4.667   0.888
 1714TIP3    H1 5019   4.220   4.675   0.893
 1714TIP3    H2 5020   4.338   4.612   0.963
 1715TIP3   OH2 5021   4.033   5.783   0.546
 1715TIP3    H1 5022   4.092   5.732   0.602
 1715TIP3    H2 5023   4.052   5.874   0.569
 1716TIP3   OH2 5024   0.723   0.474   7.731
 1716TIP3    H1 5025   0.657   0.533   7.769
 1716TIP3    H2 5026   0.773   0.530   7.672
 1717TIP3   OH2 5027   5.147   4.734   0.598
 1717TIP3    H1 5028   5.227   4.778   0.627
 1717TIP3    H2 5029   5.140   4.657   0.653
 1718TIP3   OH2 5030   1.442   0.046   7.874
 1718TIP3    H1 5031   1.520   0.096   7.847
 1718TIP3    H2 5032   1.458   0.027   7.967
 1719TIP3   OH2 5033   4.986   4.963   0.651
 1719TIP3    H1 5034   5.018   5.007   0.730
 1719TIP3    H2 5035   5.039   4.884   0.646
 1720TIP3   OH2 5036   8.150   8.993   7.986
 1720TIP3    H1 5037   8.119   9.074   8.028
 1720TIP3    H2 5038   8.246   9.003   7.985
 1721TIP3   OH2 5039   7.644   9.018   7.834
 1721TIP3    H1 5040   7.639   9.113   7.820
 1721TIP3    H2 5041   7.737   8.998   7.824
 1722TIP3   OH2 5042   5.607   4.848   0.630
 1722TIP3    H1 5043   5.514   4.865   0.645
 1722TIP3    H2 5044   5.609   4.776   0.567
 1723TIP3   OH2 5045   5.273   5.100   0.048
 1723TIP3    H1 5046   5.206   5.034   0.031
 1723TIP3    H2 5047   5.347   5.050   0.082
 1724TIP3   OH2 5048   7.200   9.192   7.638
 1724TIP3    H1 5049   7.192   9.287   7.645
 1724TIP3    H2 5050   7.207   9.175   7.544
 1725TIP3   OH2 5051   4.321   4.295   0.496
 1725TIP3    H1 5052   4.293   4.263   0.410
 1725TIP3    H2 5053   4.312   4.219   0.554
 1726TIP3   OH2 5054   0.540   0.935   7.856
 1726TIP3    H1 5055   0.463   0.988   7.881
 1726TIP3    H2 5056   0.590   0.992   7.797
 1727TIP3   OH2 5057   4.070   6.097   0.960
 1727TIP3    H1 5058   4.143   6.118   1.020
 1727TIP3    H2 5059   4.086   6.005   0.936
 1728TIP3   OH2 5060   4.498   5.969   1.017
 1728TIP3    H1 5061   4.590   5.943   1.026
 1728TIP3    H2 5062   4.469   5.928   0.935
 1729TIP3   OH2 5063   5.127   5.918   0.724
 1729TIP3    H1 5064   5.107   5.848   0.786
 1729TIP3    H2 5065   5.172   5.985   0.776
 1730TIP3   OH2 5066   4.144   5.494   1.148
 1730TIP3    H1 5067   4.172   5.403   1.159
 1730TIP3    H2 5068   4.056   5.487   1.110
 1731TIP3   OH2 5069   4.773   5.568   0.932
 1731TIP3    H1 5070   4.722   5.584   0.853
 1731TIP3    H2 5071   4.818   5.485   0.916
 1732TIP3   OH2 5072   5.209   5.579   0.598
 1732TIP3    H1 5073   5.294   5.611   0.568
 1732TIP3    H2 5074   5.146   5.639   0.558
 1733TIP3   OH2 5075   4.261   5.239   1.143
 1733TIP3    H1 5076   4.339   5.226   1.089
 1733TIP3    H2 5077   4.295   5.251   1.232
 1734TIP3   OH2 5078   4.590   5.082   0.790
 1734TIP3    H1 5079   4.526   5.147   0.819
 1734TIP3    H2 5080   4.649   5.131   0.733
 1735TIP3   OH2 5081   5.112   5.479   0.901
 1735TIP3    H1 5082   5.180   5.441   0.847
 1735TIP3    H2 5083   5.115   5.429   0.983
 1736TIP3   OH2 5084   4.729   4.882   0.919
 1736TIP3    H1 5085   4.739   4.809   0.858
 1736TIP3    H2 5086   4.688   4.951   0.868
 1737TIP3   OH2 5087   4.742   4.684   0.717
 1737TIP3    H1 5088   4.771   4.719   0.633
 1737TIP3    H2 5089   4.651   4.656   0.701
 1738TIP3   OH2 5090   4.751   5.248   0.633
 1738TIP3    H1 5091   4.831   5.295   0.610
 1738TIP3    H2 5092   4.684   5.284   0.576
 1739TIP3   OH2 5093   5.336   5.154   0.983
 1739TIP3    H1 5094   5.393   5.077   0.987
 1739TIP3    H2 5095   5.396   5.229   0.982
 1740TIP3   OH2 5096   5.344   5.396   0.738
 1740TIP3    H1 5097   5.293   5.462   0.690
 1740TIP3    H2 5098   5.435   5.414   0.714
 1741TIP3   OH2 5099   4.615   4.964   1.162
 1741TIP3    H1 5100   4.548   4.898   1.181
 1741TIP3    H2 5101   4.647   4.941   1.075
 1742TIP3   OH2 5102   4.861   4.454   0.822
 1742TIP3    H1 5103   4.822   4.535   0.788
 1742TIP3    H2 5104   4.795   4.387   0.808
 1743TIP3   OH2 5105   4.986   4.925   1.023
 1743TIP3    H1 5106   4.978   4.912   1.118
 1743TIP3    H2 5107   4.899   4.905   0.989
 1744TIP3   OH2 5108   5.230   4.866   0.895
 1744TIP3    H1 5109   5.152   4.873   0.951
 1744TIP3    H2 5110   5.302   4.853   0.955
 1745TIP3   OH2 5111   5.475   4.854   1.037
 1745TIP3    H1 5112   5.487   4.759   1.043
 1745TIP3    H2 5113   5.470   4.884   1.128
 1746TIP3   OH2 5114   4.447   4.748   1.228
 1746TIP3    H1 5115   4.455   4.660   1.190
 1746TIP3    H2 5116   4.487   4.739   1.315
 1747TIP3   OH2 5117   4.927   4.429   1.087
 1747TIP3    H1 5118   4.996   4.364   1.081
 1747TIP3    H2 5119   4.898   4.442   0.996
 1748TIP3   OH2 5120   5.025   4.644   1.230
 1748TIP3    H1 5121   4.994   4.572   1.176
 1748TIP3    H2 5122   4.952   4.706   1.231
 1749TIP3   OH2 5123   0.372   1.187   7.954
 1749TIP3    H1 5124   0.294   1.145   7.918
 1749TIP3    H2 5125   0.374   1.160   8.046
 1750TIP3   OH2 5126   3.677   5.754   0.233
 1750TIP3    H1 5127   3.693   5.661   0.247
 1750TIP3    H2 5128   3.762   5.796   0.246
 1751TIP3   OH2 5129   5.529   6.195   0.223
 1751TIP3    H1 5130   5.485   6.114   0.196
 1751TIP3    H2 5131   5.544   6.183   0.317
 1752TIP3   OH2 5132   5.432   5.781   0.787
 1752TIP3    H1 5133   5.379   5.790   0.867
 1752TIP3    H2 5134   5.522   5.782   0.818
 1753TIP3   OH2 5135   5.322   5.992   0.228
 1753TIP3    H1 5136   5.301   5.905   0.262
 1753TIP3    H2 5137   5.358   5.977   0.141
 1754TIP3   OH2 5138   3.965   5.138   0.532
 1754TIP3    H1 5139   3.955   5.100   0.445
 1754TIP3    H2 5140   4.058   5.128   0.552
 1755TIP3   OH2 5141   5.607   5.442   0.670
 1755TIP3    H1 5142   5.678   5.377   0.667
 1755TIP3    H2 5143   5.599   5.472   0.579
 1756TIP3   OH2 5144   5.806   5.244   0.661
 1756TIP3    H1 5145   5.725   5.195   0.676
 1756TIP3    H2 5146   5.866   5.213   0.729
 1757TIP3   OH2 5147   5.480   4.937   0.138
 1757TIP3    H1 5148   5.547   4.936   0.070
 1757TIP3    H2 5149   5.521   4.978   0.213
 1758TIP3   OH2 5150   5.553   5.112   0.354
 1758TIP3    H1 5151   5.486   5.124   0.422
 1758TIP3    H2 5152   5.534   5.181   0.290
 1759TIP3   OH2 5153   4.185   4.801   1.157
 1759TIP3    H1 5154   4.278   4.798   1.177
 1759TIP3    H2 5155   4.150   4.720   1.194
 1760TIP3   OH2 5156   6.006   4.685   0.922
 1760TIP3    H1 5157   6.076   4.624   0.899
 1760TIP3    H2 5158   5.990   4.734   0.842
 1761TIP3   OH2 5159   4.161   4.521   0.518
 1761TIP3    H1 5160   4.214   4.441   0.522
 1761TIP3    H2 5161   4.224   4.590   0.496
 1762TIP3   OH2 5162   3.944   4.787   0.572
 1762TIP3    H1 5163   3.992   4.778   0.489
 1762TIP3    H2 5164   3.995   4.850   0.622
 1763TIP3   OH2 5165   5.876   4.795   0.703
 1763TIP3    H1 5166   5.793   4.842   0.712
 1763TIP3    H2 5167   5.851   4.710   0.667
 1764TIP3   OH2 5168   3.923   4.320   0.096
 1764TIP3    H1 5169   3.835   4.305   0.129
 1764TIP3    H2 5170   3.910   4.361   0.010
 1765TIP3   OH2 5171   4.158   4.357   0.908
 1765TIP3    H1 5172   4.104   4.346   0.986
 1765TIP3    H2 5173   4.101   4.401   0.845
 1766TIP3   OH2 5174   4.154   5.831   0.948
 1766TIP3    H1 5175   4.066   5.794   0.952
 1766TIP3    H2 5176   4.193   5.810   1.033
 1767TIP3   OH2 5177   4.400   5.846   0.523
 1767TIP3    H1 5178   4.346   5.916   0.485
 1767TIP3    H2 5179   4.486   5.856   0.483
 1768TIP3   OH2 5180   4.764   6.033   0.689
 1768TIP3    H1 5181   4.808   6.038   0.774
 1768TIP3    H2 5182   4.815   6.090   0.632
 1769TIP3   OH2 5183   4.939   6.188   0.539
 1769TIP3    H1 5184   5.032   6.180   0.515
 1769TIP3    H2 5185   4.938   6.242   0.617
 1770TIP3   OH2 5186   5.775   4.546   0.630
 1770TIP3    H1 5187   5.687   4.531   0.595
 1770TIP3    H2 5188   5.816   4.460   0.629
 1771TIP3   OH2 5189   4.048   6.071   0.571
 1771TIP3    H1 5190   3.962   6.108   0.550
 1771TIP3    H2 5191   4.087   6.133   0.632
 1772TIP3   OH2 5192   4.272   6.058   0.407
 1772TIP3    H1 5193   4.191   6.066   0.457
 1772TIP3    H2 5194   4.253   6.098   0.322
 1773TIP3   OH2 5195   4.649   6.078   0.171
 1773TIP3    H1 5196   4.573   6.087   0.115
 1773TIP3    H2 5197   4.663   6.165   0.208
 1774TIP3   OH2 5198   4.888   6.052   0.040
 1774TIP3    H1 5199   4.803   6.042   0.082
 1774TIP3    H2 5200   4.930   6.124   0.086
 1775TIP3   OH2 5201   3.931   5.863   0.293
 1775TIP3    H1 5202   3.957   5.843   0.383
 1775TIP3    H2 5203   4.003   5.829   0.240
 1776TIP3   OH2 5204   4.145   5.751   0.167
 1776TIP3    H1 5205   4.156   5.664   0.206
 1776TIP3    H2 5206   4.232   5.790   0.173
 1777TIP3   OH2 5207   4.410   5.820   0.187
 1777TIP3    H1 5208   4.428   5.726   0.187
 1777TIP3    H2 5209   4.473   5.857   0.249
 1778TIP3   OH2 5210   5.013   4.481   0.256
 1778TIP3    H1 5211   4.976   4.410   0.308
 1778TIP3    H2 5212   5.079   4.440   0.201
 1779TIP3   OH2 5213   5.493   4.435   0.195
 1779TIP3    H1 5214   5.548   4.436   0.117
 1779TIP3    H2 5215   5.403   4.438   0.161
 1780TIP3   OH2 5216   8.932   9.007   7.979
 1780TIP3    H1 5217   9.002   8.943   7.994
 1780TIP3    H2 5218   8.976   9.083   7.941
 1781TIP3   OH2 5219   4.233   4.195   0.253
 1781TIP3    H1 5220   4.146   4.158   0.264
 1781TIP3    H2 5221   4.291   4.118   0.247
 1782TIP3   OH2 5222   7.297   8.726   7.955
 1782TIP3    H1 5223   7.342   8.772   7.884
 1782TIP3    H2 5224   7.268   8.796   8.014
 1783TIP3   OH2 5225   4.724   4.230   0.165
 1783TIP3    H1 5226   4.774   4.283   0.103
 1783TIP3    H2 5227   4.759   4.253   0.251
 1784TIP3   OH2 5228   5.203   4.346   0.105
 1784TIP3    H1 5229   5.265   4.314   0.039
 1784TIP3    H2 5230   5.205   4.280   0.174
 1785TIP3   OH2 5231   7.439   8.841   7.754
 1785TIP3    H1 5232   7.481   8.761   7.722
 1785TIP3    H2 5233   7.511   8.901   7.770
 1786TIP3   OH2 5234   7.921   9.018   7.810
 1786TIP3    H1 5235   7.995   8.980   7.857
 1786TIP3    H2 5236   7.935   9.112   7.814
 1787TIP3   OH2 5237   4.466   4.479   1.135
 1787TIP3    H1 5238   4.432   4.414   1.196
 1787TIP3    H2 5239   4.559   4.488   1.158
 1788TIP3   OH2 5240   4.712   4.483   1.259
 1788TIP3    H1 5241   4.790   4.462   1.208
 1788TIP3    H2 5242   4.708   4.415   1.326
 1789TIP3   OH2 5243   5.526   4.580   1.051
 1789TIP3    H1 5244   5.543   4.551   1.140
 1789TIP3    H2 5245   5.611   4.572   1.006
 1790TIP3   OH2 5246   5.487   6.110   0.486
 1790TIP3    H1 5247   5.427   6.037   0.504
 1790TIP3    H2 5248   5.432   6.188   0.489
 1791TIP3   OH2 5249   6.257   4.715   0.195
 1791TIP3    H1 5250   6.214   4.715   0.110
 1791TIP3    H2 5251   6.189   4.742   0.257
 1792TIP3   OH2 5252   6.115   5.500   0.362
 1792TIP3    H1 5253   6.199   5.545   0.374
 1792TIP3    H2 5254   6.113   5.479   0.268
 1793TIP3   OH2 5255   5.844   5.590   0.290
 1793TIP3    H1 5256   5.806   5.593   0.202
 1793TIP3    H2 5257   5.881   5.502   0.297
 1794TIP3   OH2 5258   6.055   5.755   0.167
 1794TIP3    H1 5259   6.126   5.782   0.225
 1794TIP3    H2 5260   6.006   5.689   0.218
 1795TIP3   OH2 5261   6.943   4.724   0.260
 1795TIP3    H1 5262   7.027   4.686   0.287
 1795TIP3    H2 5263   6.886   4.648   0.249
 1796TIP3   OH2 5264   6.821   5.401   0.452
 1796TIP3    H1 5265   6.804   5.311   0.479
 1796TIP3    H2 5266   6.915   5.404   0.435
 1797TIP3   OH2 5267   6.111   5.201   0.200
 1797TIP3    H1 5268   6.196   5.224   0.237
 1797TIP3    H2 5269   6.108   5.105   0.204
 1798TIP3   OH2 5270   6.183   5.619   0.641
 1798TIP3    H1 5271   6.243   5.692   0.620
 1798TIP3    H2 5272   6.104   5.639   0.591
 1799TIP3   OH2 5273   5.869   5.311   0.315
 1799TIP3    H1 5274   5.952   5.278   0.351
 1799TIP3    H2 5275   5.851   5.253   0.242
 1800TIP3   OH2 5276   6.614   5.456   0.272
 1800TIP3    H1 5277   6.648   5.537   0.233
 1800TIP3    H2 5278   6.684   5.427   0.331
 1801TIP3   OH2 5279   6.059   4.849   0.332
 1801TIP3    H1 5280   5.975   4.885   0.304
 1801TIP3    H2 5281   6.060   4.859   0.427
 1802TIP3   OH2 5282   9.246   9.122   7.994
 1802TIP3    H1 5283   9.319   9.155   7.941
 1802TIP3    H2 5284   9.288   9.062   8.056
 1803TIP3   OH2 5285   5.919   6.280   0.301
 1803TIP3    H1 5286   5.840   6.304   0.349
 1803TIP3    H2 5287   5.888   6.224   0.230
 1804TIP3   OH2 5288   6.308   6.387   0.419
 1804TIP3    H1 5289   6.380   6.386   0.482
 1804TIP3    H2 5290   6.346   6.352   0.339
 1805TIP3   OH2 5291   5.878   5.665   0.746
 1805TIP3    H1 5292   5.883   5.605   0.672
 1805TIP3    H2 5293   5.827   5.739   0.714
 1806TIP3   OH2 5294   6.538   5.853   0.435
 1806TIP3    H1 5295   6.532   5.856   0.339
 1806TIP3    H2 5296   6.591   5.775   0.453
 1807TIP3   OH2 5297   6.020   5.402   0.808
 1807TIP3    H1 5298   5.987   5.441   0.727
 1807TIP3    H2 5299   5.987   5.458   0.878
 1808TIP3   OH2 5300   6.340   5.314   0.293
 1808TIP3    H1 5301   6.305   5.337   0.379
 1808TIP3    H2 5302   6.373   5.397   0.258
 1809TIP3   OH2 5303   7.097   5.746   0.459
 1809TIP3    H1 5304   7.044   5.755   0.380
 1809TIP3    H2 5305   7.040   5.702   0.522
 1810TIP3   OH2 5306   6.549   5.156   0.406
 1810TIP3    H1 5307   6.520   5.069   0.434
 1810TIP3    H2 5308   6.480   5.187   0.349
 1811TIP3   OH2 5309   6.486   4.774   0.341
 1811TIP3    H1 5310   6.515   4.849   0.289
 1811TIP3    H2 5311   6.405   4.746   0.299
 1812TIP3   OH2 5312   7.092   5.417   0.469
 1812TIP3    H1 5313   7.167   5.358   0.466
 1812TIP3    H2 5314   7.120   5.494   0.420
 1813TIP3   OH2 5315   6.528   5.339   0.608
 1813TIP3    H1 5316   6.434   5.326   0.623
 1813TIP3    H2 5317   6.551   5.274   0.541
 1814TIP3   OH2 5318   6.681   4.583   0.290
 1814TIP3    H1 5319   6.658   4.676   0.296
 1814TIP3    H2 5320   6.597   4.538   0.279
 1815TIP3   OH2 5321   6.806   5.137   0.516
 1815TIP3    H1 5322   6.770   5.098   0.596
 1815TIP3    H2 5323   6.737   5.124   0.451
 1816TIP3   OH2 5324   7.046   5.053   0.357
 1816TIP3    H1 5325   6.955   5.079   0.371
 1816TIP3    H2 5326   7.065   4.994   0.430
 1817TIP3   OH2 5327   7.377   5.023   0.534
 1817TIP3    H1 5328   7.362   4.928   0.528
 1817TIP3    H2 5329   7.337   5.048   0.617
 1818TIP3   OH2 5330   6.179   4.922   0.854
 1818TIP3    H1 5331   6.213   4.853   0.797
 1818TIP3    H2 5332   6.249   4.937   0.917
 1819TIP3   OH2 5333   6.734   4.630   0.567
 1819TIP3    H1 5334   6.815   4.579   0.564
 1819TIP3    H2 5335   6.697   4.621   0.480
 1820TIP3   OH2 5336   6.809   4.842   0.733
 1820TIP3    H1 5337   6.802   4.766   0.676
 1820TIP3    H2 5338   6.742   4.903   0.701
 1821TIP3   OH2 5339   5.948   5.082   0.827
 1821TIP3    H1 5340   6.031   5.036   0.842
 1821TIP3    H2 5341   5.883   5.026   0.869
 1822TIP3   OH2 5342   5.843   4.732   0.036
 1822TIP3    H1 5343   5.878   4.645   0.017
 1822TIP3    H2 5344   5.919   4.790   0.037
 1823TIP3   OH2 5345   2.413   0.319   7.953
 1823TIP3    H1 5346   2.469   0.243   7.970
 1823TIP3    H2 5347   2.463   0.394   7.985
 1824TIP3   OH2 5348   5.943   4.561   0.401
 1824TIP3    H1 5349   5.896   4.559   0.485
 1824TIP3    H2 5350   5.886   4.612   0.343
 1825TIP3   OH2 5351   5.944   6.014   0.433
 1825TIP3    H1 5352   5.854   6.008   0.401
 1825TIP3    H2 5353   5.944   6.089   0.493
 1826TIP3   OH2 5354   6.251   4.710   0.661
 1826TIP3    H1 5355   6.228   4.636   0.717
 1826TIP3    H2 5356   6.347   4.715   0.666
 1827TIP3   OH2 5357   6.517   4.699   0.728
 1827TIP3    H1 5358   6.593   4.656   0.689
 1827TIP3    H2 5359   6.501   4.650   0.809
 1828TIP3   OH2 5360   7.342   4.747   0.549
 1828TIP3    H1 5361   7.353   4.727   0.642
 1828TIP3    H2 5362   7.427   4.724   0.510
 1829TIP3   OH2 5363   9.681   5.801   2.276
 1829TIP3    H1 5364   9.653   5.722   2.230
 1829TIP3    H2 5365   9.686   5.776   2.368
 1830TIP3   OH2 5366   0.263   5.771   2.096
 1830TIP3    H1 5367   0.336   5.711   2.080
 1830TIP3    H2 5368   0.249   5.814   2.011
 1831TIP3   OH2 5369   0.112   5.893   1.880
 1831TIP3    H1 5370   0.050   5.956   1.843
 1831TIP3    H2 5371   0.081   5.808   1.849
 1832TIP3   OH2 5372   0.059   5.617   1.797
 1832TIP3    H1 5373  -0.026   5.607   1.755
 1832TIP3    H2 5374   0.101   5.531   1.786
 1833TIP3   OH2 5375   9.612   5.541   2.188
 1833TIP3    H1 5376   9.604   5.528   2.283
 1833TIP3    H2 5377   9.706   5.536   2.171
 1834TIP3   OH2 5378   1.810   6.073   0.918
 1834TIP3    H1 5379   1.836   6.148   0.972
 1834TIP3    H2 5380   1.808   6.107   0.829
 1835TIP3   OH2 5381   1.174   6.301   0.993
 1835TIP3    H1 5382   1.143   6.213   1.011
 1835TIP3    H2 5383   1.201   6.300   0.901
 1836TIP3   OH2 5384   1.886   6.285   1.081
 1836TIP3    H1 5385   1.796   6.316   1.076
 1836TIP3    H2 5386   1.919   6.317   1.164
 1837TIP3   OH2 5387   0.538   5.765   1.376
 1837TIP3    H1 5388   0.454   5.744   1.337
 1837TIP3    H2 5389   0.575   5.680   1.402
 1838TIP3   OH2 5390   1.375   6.051   0.679
 1838TIP3    H1 5391   1.365   5.969   0.726
 1838TIP3    H2 5392   1.445   6.098   0.726
 1839TIP3   OH2 5393   1.591   5.964   1.079
 1839TIP3    H1 5394   1.501   5.976   1.049
 1839TIP3    H2 5395   1.645   5.993   1.006
 1840TIP3   OH2 5396   0.924   5.652   1.081
 1840TIP3    H1 5397   0.897   5.578   1.135
 1840TIP3    H2 5398   0.843   5.700   1.064
 1841TIP3   OH2 5399   1.499   6.987   1.038
 1841TIP3    H1 5400   1.499   6.901   0.996
 1841TIP3    H2 5401   1.536   7.046   0.972
 1842TIP3   OH2 5402   1.728   6.611   0.911
 1842TIP3    H1 5403   1.648   6.663   0.918
 1842TIP3    H2 5404   1.768   6.640   0.829
 1843TIP3   OH2 5405   1.431   6.482   1.226
 1843TIP3    H1 5406   1.442   6.559   1.282
 1843TIP3    H2 5407   1.349   6.498   1.180
 1844TIP3   OH2 5408   1.784   7.331   1.161
 1844TIP3    H1 5409   1.769   7.237   1.163
 1844TIP3    H2 5410   1.697   7.369   1.178
 1845TIP3   OH2 5411   1.655   6.434   1.398
 1845TIP3    H1 5412   1.583   6.424   1.336
 1845TIP3    H2 5413   1.675   6.345   1.426
 1846TIP3   OH2 5414   0.655   5.717   1.128
 1846TIP3    H1 5415   0.677   5.628   1.157
 1846TIP3    H2 5416   0.603   5.753   1.199
 1847TIP3   OH2 5417   1.179   5.810   1.395
 1847TIP3    H1 5418   1.248   5.782   1.454
 1847TIP3    H2 5419   1.099   5.769   1.430
 1848TIP3   OH2 5420   1.388   6.214   1.301
 1848TIP3    H1 5421   1.368   6.224   1.394
 1848TIP3    H2 5422   1.386   6.303   1.267
 1849TIP3   OH2 5423   1.126   6.430   1.540
 1849TIP3    H1 5424   1.108   6.357   1.600
 1849TIP3    H2 5425   1.215   6.456   1.560
 1850TIP3   OH2 5426   1.170   6.531   1.150
 1850TIP3    H1 5427   1.180   6.485   1.067
 1850TIP3    H2 5428   1.130   6.468   1.209
 1851TIP3   OH2 5429   1.312   5.972   1.020
 1851TIP3    H1 5430   1.260   6.008   1.092
 1851TIP3    H2 5431   1.255   5.907   0.979
 1852TIP3   OH2 5432   0.852   6.051   1.298
 1852TIP3    H1 5433   0.807   6.080   1.218
 1852TIP3    H2 5434   0.944   6.043   1.272
 1853TIP3   OH2 5435   1.495   6.755   0.890
 1853TIP3    H1 5436   1.479   6.783   0.799
 1853TIP3    H2 5437   1.430   6.687   0.906
 1854TIP3   OH2 5438   0.886   6.547   1.603
 1854TIP3    H1 5439   0.834   6.574   1.527
 1854TIP3    H2 5440   0.966   6.509   1.565
 1855TIP3   OH2 5441   1.765   7.020   1.129
 1855TIP3    H1 5442   1.671   7.028   1.115
 1855TIP3    H2 5443   1.801   6.999   1.043
 1856TIP3   OH2 5444   0.402   5.916   1.612
 1856TIP3    H1 5445   0.334   5.981   1.592
 1856TIP3    H2 5446   0.357   5.832   1.603
 1857TIP3   OH2 5447   1.164   6.055   1.266
 1857TIP3    H1 5448   1.251   6.095   1.277
 1857TIP3    H2 5449   1.171   5.970   1.310
 1858TIP3   OH2 5450   1.065   6.322   1.293
 1858TIP3    H1 5451   1.081   6.348   1.384
 1858TIP3    H2 5452   1.091   6.230   1.289
 1859TIP3   OH2 5453   1.653   6.142   1.292
 1859TIP3    H1 5454   1.560   6.163   1.302
 1859TIP3    H2 5455   1.655   6.080   1.219
 1860TIP3   OH2 5456   1.288   6.331   0.741
 1860TIP3    H1 5457   1.291   6.360   0.650
 1860TIP3    H2 5458   1.372   6.287   0.755
 1861TIP3   OH2 5459   1.179   7.282   1.479
 1861TIP3    H1 5460   1.205   7.213   1.540
 1861TIP3    H2 5461   1.258   7.335   1.467
 1862TIP3   OH2 5462   0.872   6.848   1.599
 1862TIP3    H1 5463   0.897   6.927   1.551
 1862TIP3    H2 5464   0.954   6.804   1.618
 1863TIP3   OH2 5465   1.374   6.952   1.301
 1863TIP3    H1 5466   1.433   6.975   1.229
 1863TIP3    H2 5467   1.337   7.035   1.330
 1864TIP3   OH2 5468   0.324   6.584   1.814
 1864TIP3    H1 5469   0.340   6.503   1.766
 1864TIP3    H2 5470   0.360   6.567   1.901
 1865TIP3   OH2 5471   1.152   6.783   1.606
 1865TIP3    H1 5472   1.205   6.740   1.539
 1865TIP3    H2 5473   1.166   6.731   1.685
 1866TIP3   OH2 5474   0.691   5.938   1.525
 1866TIP3    H1 5475   0.758   5.983   1.474
 1866TIP3    H2 5476   0.643   5.886   1.461
 1867TIP3   OH2 5477   1.386   6.484   1.629
 1867TIP3    H1 5478   1.399   6.391   1.614
 1867TIP3    H2 5479   1.467   6.525   1.598
 1868TIP3   OH2 5480   1.465   6.711   1.378
 1868TIP3    H1 5481   1.417   6.790   1.353
 1868TIP3    H2 5482   1.553   6.724   1.345
 1869TIP3   OH2 5483   0.923   5.706   1.441
 1869TIP3    H1 5484   0.880   5.764   1.378
 1869TIP3    H2 5485   0.895   5.618   1.415
 1870TIP3   OH2 5486   1.094   6.210   1.701
 1870TIP3    H1 5487   1.126   6.215   1.791
 1870TIP3    H2 5488   1.026   6.143   1.704
 1871TIP3   OH2 5489   1.338   6.217   1.566
 1871TIP3    H1 5490   1.255   6.195   1.608
 1871TIP3    H2 5491   1.404   6.171   1.618
 1872TIP3   OH2 5492   1.536   6.125   1.726
 1872TIP3    H1 5493   1.545   6.030   1.731
 1872TIP3    H2 5494   1.522   6.153   1.817
 1873TIP3   OH2 5495   0.568   6.031   1.840
 1873TIP3    H1 5496   0.480   6.068   1.847
 1873TIP3    H2 5497   0.599   6.024   1.930
 1874TIP3   OH2 5498   0.975   5.732   1.713
 1874TIP3    H1 5499   1.044   5.666   1.716
 1874TIP3    H2 5500   0.942   5.728   1.623
 1875TIP3   OH2 5501   1.023   5.957   1.869
 1875TIP3    H1 5502   1.028   5.887   1.804
 1875TIP3    H2 5503   0.937   5.946   1.909
 1876TIP3   OH2 5504   1.642   7.132   1.441
 1876TIP3    H1 5505   1.578   7.136   1.512
 1876TIP3    H2 5506   1.692   7.214   1.447
 1877TIP3   OH2 5507   1.707   6.783   1.274
 1877TIP3    H1 5508   1.772   6.715   1.257
 1877TIP3    H2 5509   1.733   6.855   1.217
 1878TIP3   OH2 5510   1.864   6.559   1.274
 1878TIP3    H1 5511   1.787   6.520   1.316
 1878TIP3    H2 5512   1.936   6.499   1.296
 1879TIP3   OH2 5513   1.544   6.236   0.809
 1879TIP3    H1 5514   1.626   6.258   0.765
 1879TIP3    H2 5515   1.555   6.267   0.899
 1880TIP3   OH2 5516   1.628   6.387   1.041
 1880TIP3    H1 5517   1.557   6.417   1.097
 1880TIP3    H2 5518   1.659   6.466   0.996
 1881TIP3   OH2 5519   0.302   6.108   1.844
 1881TIP3    H1 5520   0.262   6.164   1.778
 1881TIP3    H2 5521   0.239   6.038   1.858
 1882TIP3   OH2 5522   2.071   6.007   1.582
 1882TIP3    H1 5523   2.137   5.948   1.544
 1882TIP3    H2 5524   2.031   6.050   1.507
 1883TIP3   OH2 5525   1.572   5.777   0.373
 1883TIP3    H1 5526   1.594   5.800   0.464
 1883TIP3    H2 5527   1.533   5.690   0.380
 1884TIP3   OH2 5528   1.917   6.099   1.373
 1884TIP3    H1 5529   1.828   6.135   1.376
 1884TIP3    H2 5530   1.907   6.016   1.326
 1885TIP3   OH2 5531   0.268   5.678   1.615
 1885TIP3    H1 5532   0.205   5.679   1.688
 1885TIP3    H2 5533   0.236   5.609   1.557
 1886TIP3   OH2 5534   1.842   5.843   1.287
 1886TIP3    H1 5535   1.752   5.819   1.264
 1886TIP3    H2 5536   1.890   5.761   1.285
 1887TIP3   OH2 5537   1.132   5.779   0.929
 1887TIP3    H1 5538   1.049   5.765   0.974
 1887TIP3    H2 5539   1.174   5.693   0.928
 1888TIP3   OH2 5540   1.575   5.691   0.816
 1888TIP3    H1 5541   1.618   5.753   0.757
 1888TIP3    H2 5542   1.482   5.696   0.792
 1889TIP3   OH2 5543   1.694   5.832   0.618
 1889TIP3    H1 5544   1.761   5.768   0.592
 1889TIP3    H2 5545   1.721   5.913   0.576
 1890TIP3   OH2 5546   1.324   5.668   0.724
 1890TIP3    H1 5547   1.249   5.701   0.674
 1890TIP3    H2 5548   1.287   5.600   0.780
 1891TIP3   OH2 5549   0.575   5.742   1.796
 1891TIP3    H1 5550   0.512   5.697   1.853
 1891TIP3    H2 5551   0.655   5.747   1.848
 1892TIP3   OH2 5552   0.809   5.775   1.934
 1892TIP3    H1 5553   0.869   5.743   1.867
 1892TIP3    H2 5554   0.807   5.706   2.000
 1893TIP3   OH2 5555   1.581   5.854   1.710
 1893TIP3    H1 5556   1.600   5.825   1.800
 1893TIP3    H2 5557   1.667   5.855   1.667
 1894TIP3   OH2 5558   1.523   7.427   1.199
 1894TIP3    H1 5559   1.440   7.381   1.189
 1894TIP3    H2 5560   1.502   7.519   1.184
 1895TIP3   OH2 5561   9.286   2.121   8.007
 1895TIP3    H1 5562   9.282   2.216   8.001
 1895TIP3    H2 5563   9.221   2.090   7.944
 1896TIP3   OH2 5564   2.773   6.786   0.373
 1896TIP3    H1 5565   2.819   6.766   0.455
 1896TIP3    H2 5566   2.733   6.704   0.347
 1897TIP3   OH2 5567   2.109   6.675   0.741
 1897TIP3    H1 5568   2.130   6.599   0.796
 1897TIP3    H2 5569   2.181   6.736   0.756
 1898TIP3   OH2 5570   2.979   7.098   0.076
 1898TIP3    H1 5571   2.997   7.031   0.141
 1898TIP3    H2 5572   3.027   7.175   0.106
 1899TIP3   OH2 5573   2.078   7.063   0.482
 1899TIP3    H1 5574   2.081   6.967   0.485
 1899TIP3    H2 5575   2.167   7.089   0.459
 1900TIP3   OH2 5576   1.840   6.588   0.447
 1900TIP3    H1 5577   1.894   6.516   0.478
 1900TIP3    H2 5578   1.874   6.608   0.359
 1901TIP3   OH2 5579   2.794   7.523   0.048
 1901TIP3    H1 5580   2.804   7.433   0.016
 1901TIP3    H2 5581   2.723   7.519   0.112
 1902TIP3   OH2 5582   2.592   7.010   0.397
 1902TIP3    H1 5583   2.635   6.931   0.363
 1902TIP3    H2 5584   2.664   7.063   0.432
 1903TIP3   OH2 5585   3.608   6.323   0.409
 1903TIP3    H1 5586   3.613   6.406   0.456
 1903TIP3    H2 5587   3.650   6.340   0.325
 1904TIP3   OH2 5588   2.984   6.488   0.432
 1904TIP3    H1 5589   3.018   6.401   0.452
 1904TIP3    H2 5590   2.954   6.481   0.341
 1905TIP3   OH2 5591   2.356   6.154   0.372
 1905TIP3    H1 5592   2.324   6.221   0.311
 1905TIP3    H2 5593   2.317   6.073   0.339
 1906TIP3   OH2 5594   3.021   6.258   0.035
 1906TIP3    H1 5595   3.087   6.245   0.104
 1906TIP3    H2 5596   3.069   6.303  -0.035
 1907TIP3   OH2 5597   1.980   6.365   0.524
 1907TIP3    H1 5598   2.067   6.341   0.557
 1907TIP3    H2 5599   1.970   6.313   0.444
 1908TIP3   OH2 5600   2.400   6.541   0.314
 1908TIP3    H1 5601   2.494   6.526   0.322
 1908TIP3    H2 5602   2.366   6.460   0.276
 1909TIP3   OH2 5603   3.633   6.525   0.598
 1909TIP3    H1 5604   3.563   6.587   0.573
 1909TIP3    H2 5605   3.700   6.580   0.639
 1910TIP3   OH2 5606   2.324   6.142   0.829
 1910TIP3    H1 5607   2.277   6.184   0.757
 1910TIP3    H2 5608   2.270   6.159   0.906
 1911TIP3   OH2 5609   9.309   2.388   7.919
 1911TIP3    H1 5610   9.360   2.366   7.841
 1911TIP3    H2 5611   9.372   2.427   7.979
 1912TIP3   OH2 5612   2.424   6.932   0.601
 1912TIP3    H1 5613   2.370   7.005   0.633
 1912TIP3    H2 5614   2.473   6.969   0.528
 1913TIP3   OH2 5615   3.201   6.259   0.246
 1913TIP3    H1 5616   3.157   6.240   0.329
 1913TIP3    H2 5617   3.250   6.340   0.263
 1914TIP3   OH2 5618   2.228   6.256   0.596
 1914TIP3    H1 5619   2.281   6.330   0.627
 1914TIP3    H2 5620   2.277   6.220   0.522
 1915TIP3   OH2 5621   2.277   7.143   0.706
 1915TIP3    H1 5622   2.249   7.227   0.670
 1915TIP3    H2 5623   2.203   7.114   0.760
 1916TIP3   OH2 5624   3.077   7.346   0.191
 1916TIP3    H1 5625   2.994   7.331   0.236
 1916TIP3    H2 5626   3.068   7.433   0.153
 1917TIP3   OH2 5627   3.406   6.206   0.564
 1917TIP3    H1 5628   3.322   6.241   0.535
 1917TIP3    H2 5629   3.470   6.240   0.501
 1918TIP3   OH2 5630   2.665   5.853   0.564
 1918TIP3    H1 5631   2.660   5.759   0.584
 1918TIP3    H2 5632   2.584   5.889   0.599
 1919TIP3   OH2 5633   3.295   7.223   0.540
 1919TIP3    H1 5634   3.283   7.149   0.480
 1919TIP3    H2 5635   3.284   7.300   0.484
 1920TIP3   OH2 5636   9.131   2.019   7.794
 1920TIP3    H1 5637   9.062   2.080   7.767
 1920TIP3    H2 5638   9.155   1.972   7.714
 1921TIP3   OH2 5639   3.480   6.862   0.367
 1921TIP3    H1 5640   3.400   6.913   0.370
 1921TIP3    H2 5641   3.517   6.880   0.281
 1922TIP3   OH2 5642   9.479   1.954   7.902
 1922TIP3    H1 5643   9.429   2.030   7.932
 1922TIP3    H2 5644   9.566   1.988   7.883
 1923TIP3   OH2 5645   3.180   6.742   0.724
 1923TIP3    H1 5646   3.177   6.828   0.766
 1923TIP3    H2 5647   3.100   6.737   0.673
 1924TIP3   OH2 5648   2.192   6.692   0.223
 1924TIP3    H1 5649   2.120   6.633   0.203
 1924TIP3    H2 5650   2.264   6.635   0.249
 1925TIP3   OH2 5651   2.331   7.119   0.368
 1925TIP3    H1 5652   2.336   7.213   0.351
 1925TIP3    H2 5653   2.422   7.089   0.362
 1926TIP3   OH2 5654   2.349   6.672   0.556
 1926TIP3    H1 5655   2.374   6.644   0.467
 1926TIP3    H2 5656   2.377   6.763   0.561
 1927TIP3   OH2 5657   2.851   7.314   0.330
 1927TIP3    H1 5658   2.818   7.397   0.366
 1927TIP3    H2 5659   2.828   7.249   0.397
 1928TIP3   OH2 5660   2.466   7.232   0.884
 1928TIP3    H1 5661   2.404   7.292   0.925
 1928TIP3    H2 5662   2.414   7.185   0.820
 1929TIP3   OH2 5663   2.226   6.781   1.001
 1929TIP3    H1 5664   2.227   6.872   1.031
 1929TIP3    H2 5665   2.135   6.753   1.010
 1930TIP3   OH2 5666   2.257   7.395   0.952
 1930TIP3    H1 5667   2.219   7.412   0.866
 1930TIP3    H2 5668   2.182   7.369   1.006
 1931TIP3   OH2 5669   1.882   6.903   0.906
 1931TIP3    H1 5670   1.848   6.870   0.823
 1931TIP3    H2 5671   1.916   6.825   0.951
 1932TIP3   OH2 5672   3.519   7.589   0.606
 1932TIP3    H1 5673   3.525   7.493   0.604
 1932TIP3    H2 5674   3.433   7.607   0.644
 1933TIP3   OH2 5675   2.657   7.374   0.751
 1933TIP3    H1 5676   2.653   7.465   0.779
 1933TIP3    H2 5677   2.590   7.329   0.803
 1934TIP3   OH2 5678   3.416   6.705   0.902
 1934TIP3    H1 5679   3.342   6.720   0.844
 1934TIP3    H2 5680   3.437   6.612   0.891
 1935TIP3   OH2 5681   2.072   7.098   0.884
 1935TIP3    H1 5682   2.119   7.093   0.967
 1935TIP3    H2 5683   2.006   7.029   0.890
 1936TIP3   OH2 5684   2.416   5.926   0.677
 1936TIP3    H1 5685   2.333   5.889   0.649
 1936TIP3    H2 5686   2.392   6.005   0.727
 1937TIP3   OH2 5687   2.968   6.063   0.892
 1937TIP3    H1 5688   3.035   6.033   0.952
 1937TIP3    H2 5689   2.885   6.046   0.937
 1938TIP3   OH2 5690   3.186   6.477   0.826
 1938TIP3    H1 5691   3.150   6.474   0.915
 1938TIP3    H2 5692   3.170   6.566   0.796
 1939TIP3   OH2 5693   9.116   1.356   7.673
 1939TIP3    H1 5694   9.025   1.385   7.673
 1939TIP3    H2 5695   9.136   1.338   7.582
 1940TIP3   OH2 5696   2.379   6.455   0.711
 1940TIP3    H1 5697   2.329   6.469   0.791
 1940TIP3    H2 5698   2.367   6.535   0.661
 1941TIP3   OH2 5699   2.245   6.336   0.200
 1941TIP3    H1 5700   2.152   6.318   0.215
 1941TIP3    H2 5701   2.255   6.327   0.105
 1942TIP3   OH2 5702   9.253   1.806   7.929
 1942TIP3    H1 5703   9.196   1.873   7.891
 1942TIP3    H2 5704   9.341   1.835   7.907
 1943TIP3   OH2 5705   2.923   6.691   1.005
 1943TIP3    H1 5706   2.889   6.635   1.074
 1943TIP3    H2 5707   3.012   6.713   1.033
 1944TIP3   OH2 5708   2.889   6.460   0.177
 1944TIP3    H1 5709   2.836   6.510   0.115
 1944TIP3    H2 5710   2.923   6.387   0.127
 1945TIP3   OH2 5711   2.202   6.480   0.921
 1945TIP3    H1 5712   2.206   6.542   0.994
 1945TIP3    H2 5713   2.187   6.395   0.963
 1946TIP3   OH2 5714   8.790   1.384   7.617
 1946TIP3    H1 5715   8.787   1.297   7.656
 1946TIP3    H2 5716   8.740   1.376   7.536
 1947TIP3   OH2 5717   1.790   6.020   0.443
 1947TIP3    H1 5718   1.865   6.049   0.496
 1947TIP3    H2 5719   1.828   5.959   0.380
 1948TIP3   OH2 5720   2.931   6.697   0.594
 1948TIP3    H1 5721   2.956   6.627   0.533
 1948TIP3    H2 5722   2.880   6.652   0.662
 1949TIP3   OH2 5723   2.634   6.142   0.289
 1949TIP3    H1 5724   2.553   6.154   0.338
 1949TIP3    H2 5725   2.702   6.134   0.356
 1950TIP3   OH2 5726   1.987   6.239   0.258
 1950TIP3    H1 5727   1.901   6.279   0.267
 1950TIP3    H2 5728   1.971   6.159   0.209
 1951TIP3   OH2 5729   8.851   1.655   7.934
 1951TIP3    H1 5730   8.935   1.639   7.976
 1951TIP3    H2 5731   8.873   1.666   7.841
 1952TIP3   OH2 5732   3.060   6.227   0.487
 1952TIP3    H1 5733   3.038   6.248   0.577
 1952TIP3    H2 5734   2.995   6.161   0.461
 1953TIP3   OH2 5735   3.258   7.937   0.696
 1953TIP3    H1 5736   3.253   7.957   0.603
 1953TIP3    H2 5737   3.336   7.983   0.727
 1954TIP3   OH2 5738   2.205   7.030   1.122
 1954TIP3    H1 5739   2.286   7.056   1.167
 1954TIP3    H2 5740   2.135   7.058   1.180
 1955TIP3   OH2 5741   2.667   6.497   0.369
 1955TIP3    H1 5742   2.743   6.462   0.322
 1955TIP3    H2 5743   2.672   6.456   0.455
 1956TIP3   OH2 5744   2.640   6.401   0.637
 1956TIP3    H1 5745   2.553   6.432   0.661
 1956TIP3    H2 5746   2.700   6.455   0.688
 1957TIP3   OH2 5747   3.248   7.015   0.364
 1957TIP3    H1 5748   3.286   7.058   0.288
 1957TIP3    H2 5749   3.166   6.978   0.332
 1958TIP3   OH2 5750   2.774   7.099   0.791
 1958TIP3    H1 5751   2.830   7.092   0.868
 1958TIP3    H2 5752   2.740   7.189   0.794
 1959TIP3   OH2 5753   2.094   6.791   0.465
 1959TIP3    H1 5754   2.125   6.749   0.385
 1959TIP3    H2 5755   2.129   6.736   0.535
 1960TIP3   OH2 5756   1.968   6.681   1.045
 1960TIP3    H1 5757   1.964   6.660   1.139
 1960TIP3    H2 5758   1.895   6.633   1.007
 1961TIP3   OH2 5759   2.686   6.846   1.059
 1961TIP3    H1 5760   2.616   6.790   1.026
 1961TIP3    H2 5761   2.766   6.812   1.019
 1962TIP3   OH2 5762   2.920   7.396   0.663
 1962TIP3    H1 5763   2.826   7.384   0.669
 1962TIP3    H2 5764   2.945   7.435   0.747
 1963TIP3   OH2 5765   3.537   7.304   0.634
 1963TIP3    H1 5766   3.443   7.290   0.632
 1963TIP3    H2 5767   3.568   7.274   0.549
 1964TIP3   OH2 5768   3.018   6.893   0.264
 1964TIP3    H1 5769   2.930   6.869   0.294
 1964TIP3    H2 5770   3.055   6.811   0.231
 1965TIP3   OH2 5771   2.347   6.834   0.026
 1965TIP3    H1 5772   2.341   6.914   0.079
 1965TIP3    H2 5773   2.301   6.768   0.076
 1966TIP3   OH2 5774   2.456   7.469   0.573
 1966TIP3    H1 5775   2.495   7.541   0.524
 1966TIP3    H2 5776   2.529   7.429   0.619
 1967TIP3   OH2 5777   2.821   7.108   0.517
 1967TIP3    H1 5778   2.805   7.102   0.612
 1967TIP3    H2 5779   2.911   7.075   0.507
 1968TIP3   OH2 5780   3.050   7.614   0.543
 1968TIP3    H1 5781   2.988   7.544   0.559
 1968TIP3    H2 5782   3.019   7.657   0.463
 1969TIP3   OH2 5783   2.158   6.226   1.038
 1969TIP3    H1 5784   2.063   6.235   1.044
 1969TIP3    H2 5785   2.183   6.177   1.116
 1970TIP3   OH2 5786   1.904   7.283   0.768
 1970TIP3    H1 5787   1.961   7.219   0.809
 1970TIP3    H2 5788   1.963   7.341   0.721
 1971TIP3   OH2 5789   2.997   6.295   0.745
 1971TIP3    H1 5790   3.075   6.339   0.778
 1971TIP3    H2 5791   2.988   6.217   0.800
 1972TIP3   OH2 5792   9.421   1.429   7.911
 1972TIP3    H1 5793   9.376   1.464   7.834
 1972TIP3    H2 5794   9.464   1.504   7.950
 1973TIP3   OH2 5795   2.568   6.230   0.035
 1973TIP3    H1 5796   2.627   6.297  -0.001
 1973TIP3    H2 5797   2.599   6.215   0.124
 1974TIP3   OH2 5798   2.834   6.527   0.789
 1974TIP3    H1 5799   2.864   6.576   0.866
 1974TIP3    H2 5800   2.890   6.449   0.787
 1975TIP3   OH2 5801   2.750   5.941   0.122
 1975TIP3    H1 5802   2.727   6.020   0.171
 1975TIP3    H2 5803   2.796   5.973   0.044
 1976TIP3   OH2 5804   2.273   5.883   0.055
 1976TIP3    H1 5805   2.188   5.897   0.015
 1976TIP3    H2 5806   2.333   5.938   0.006
 1977TIP3   OH2 5807   3.460   6.447   0.812
 1977TIP3    H1 5808   3.366   6.436   0.796
 1977TIP3    H2 5809   3.499   6.454   0.725
 1978TIP3   OH2 5810   3.118   6.641   0.188
 1978TIP3    H1 5811   3.043   6.582   0.179
 1978TIP3    H2 5812   3.181   6.592   0.240
 1979TIP3   OH2 5813   3.106   7.610   0.081
 1979TIP3    H1 5814   3.106   7.562  -0.002
 1979TIP3    H2 5815   3.194   7.646   0.088
 1980TIP3   OH2 5816   2.162   5.821   0.626
 1980TIP3    H1 5817   2.144   5.764   0.551
 1980TIP3    H2 5818   2.153   5.764   0.702
 1981TIP3   OH2 5819   1.888   7.605   1.131
 1981TIP3    H1 5820   1.969   7.608   1.182
 1981TIP3    H2 5821   1.860   7.514   1.137
 1982TIP3   OH2 5822   2.359   7.542   1.165
 1982TIP3    H1 5823   2.452   7.518   1.170
 1982TIP3    H2 5824   2.328   7.499   1.085
 1983TIP3   OH2 5825   2.979   7.499   0.910
 1983TIP3    H1 5826   2.992   7.427   0.972
 1983TIP3    H2 5827   3.054   7.557   0.925
 1984TIP3   OH2 5828   1.986   7.041   1.298
 1984TIP3    H1 5829   2.010   6.949   1.307
 1984TIP3    H2 5830   1.904   7.040   1.249
 1985TIP3   OH2 5831   2.622   7.125   1.083
 1985TIP3    H1 5832   2.576   7.149   1.003
 1985TIP3    H2 5833   2.657   7.038   1.065
 1986TIP3   OH2 5834   3.073   7.165   0.686
 1986TIP3    H1 5835   3.152   7.191   0.639
 1986TIP3    H2 5836   3.014   7.240   0.677
 1987TIP3   OH2 5837   2.113   6.789   1.309
 1987TIP3    H1 5838   2.191   6.794   1.254
 1987TIP3    H2 5839   2.143   6.811   1.397
 1988TIP3   OH2 5840   2.481   6.673   0.954
 1988TIP3    H1 5841   2.396   6.715   0.963
 1988TIP3    H2 5842   2.517   6.709   0.873
 1989TIP3   OH2 5843   2.956   7.043   1.031
 1989TIP3    H1 5844   3.028   7.007   0.979
 1989TIP3    H2 5845   2.956   6.991   1.112
 1990TIP3   OH2 5846   2.569   6.439   1.065
 1990TIP3    H1 5847   2.573   6.369   1.001
 1990TIP3    H2 5848   2.539   6.515   1.016
 1991TIP3   OH2 5849   2.582   6.236   0.867
 1991TIP3    H1 5850   2.610   6.274   0.784
 1991TIP3    H2 5851   2.492   6.207   0.851
 1992TIP3   OH2 5852   2.611   6.799   0.751
 1992TIP3    H1 5853   2.689   6.854   0.744
 1992TIP3    H2 5854   2.546   6.844   0.697
 1993TIP3   OH2 5855   3.183   6.751   1.107
 1993TIP3    H1 5856   3.251   6.686   1.088
 1993TIP3    H2 5857   3.229   6.834   1.109
 1994TIP3   OH2 5858   3.203   6.992   0.849
 1994TIP3    H1 5859   3.149   7.053   0.798
 1994TIP3    H2 5860   3.292   7.008   0.818
 1995TIP3   OH2 5861   2.462   6.516   1.313
 1995TIP3    H1 5862   2.393   6.453   1.333
 1995TIP3    H2 5863   2.488   6.496   1.223
 1996TIP3   OH2 5864   2.705   6.009   0.970
 1996TIP3    H1 5865   2.664   6.089   0.937
 1996TIP3    H2 5866   2.638   5.941   0.956
 1997TIP3   OH2 5867   2.821   6.494   1.167
 1997TIP3    H1 5868   2.808   6.477   1.261
 1997TIP3    H2 5869   2.737   6.473   1.127
 1998TIP3   OH2 5870   3.073   6.424   1.075
 1998TIP3    H1 5871   2.984   6.451   1.096
 1998TIP3    H2 5872   3.100   6.370   1.150
 1999TIP3   OH2 5873   3.343   6.312   1.281
 1999TIP3    H1 5874   3.347   6.341   1.190
 1999TIP3    H2 5875   3.324   6.391   1.331
 2000TIP3   OH2 5876   2.293   6.302   1.383
 2000TIP3    H1 5877   2.299   6.214   1.346
 2000TIP3    H2 5878   2.334   6.295   1.469
 2001TIP3   OH2 5879   2.767   5.986   1.237
 2001TIP3    H1 5880   2.832   5.916   1.231
 2001TIP3    H2 5881   2.737   5.999   1.147
 2002TIP3   OH2 5882   2.869   6.195   1.386
 2002TIP3    H1 5883   2.836   6.123   1.333
 2002TIP3    H2 5884   2.799   6.260   1.386
 2003TIP3   OH2 5885   3.348   7.725   0.096
 2003TIP3    H1 5886   3.385   7.708   0.182
 2003TIP3    H2 5887   3.372   7.816   0.078
 2004TIP3   OH2 5888   3.374   7.691   0.373
 2004TIP3    H1 5889   3.331   7.605   0.372
 2004TIP3    H2 5890   3.454   7.678   0.423
 2005TIP3   OH2 5891   3.431   7.376   0.954
 2005TIP3    H1 5892   3.361   7.387   1.018
 2005TIP3    H2 5893   3.478   7.459   0.956
 2006TIP3   OH2 5894   3.423   7.121   0.186
 2006TIP3    H1 5895   3.483   7.058   0.144
 2006TIP3    H2 5896   3.436   7.202   0.137
 2007TIP3   OH2 5897   3.235   7.449   0.397
 2007TIP3    H1 5898   3.165   7.495   0.444
 2007TIP3    H2 5899   3.191   7.410   0.321
 2008TIP3   OH2 5900   9.749   2.007   7.925
 2008TIP3    H1 5901   9.758   1.912   7.918
 2008TIP3    H2 5902   9.733   2.022   8.018
 2009TIP3   OH2 5903   1.846   6.713   0.689
 2009TIP3    H1 5904   1.832   6.671   0.604
 2009TIP3    H2 5905   1.941   6.711   0.701
 2010TIP3   OH2 5906   3.466   7.031   0.763
 2010TIP3    H1 5907   3.531   6.962   0.750
 2010TIP3    H2 5908   3.486   7.096   0.696
 2011TIP3   OH2 5909   3.635   6.810   0.765
 2011TIP3    H1 5910   3.565   6.773   0.818
 2011TIP3    H2 5911   3.712   6.758   0.788
 2012TIP3   OH2 5912   9.733   1.737   7.849
 2012TIP3    H1 5913   9.767   1.647   7.846
 2012TIP3    H2 5914   9.738   1.767   7.758
 2013TIP3   OH2 5915   3.322   6.499   0.322
 2013TIP3    H1 5916   3.403   6.516   0.273
 2013TIP3    H2 5917   3.335   6.543   0.406
 2014TIP3   OH2 5918   3.396   6.662   0.542
 2014TIP3    H1 5919   3.323   6.698   0.593
 2014TIP3    H2 5920   3.421   6.733   0.484
 2015TIP3   OH2 5921   2.029   6.347   1.319
 2015TIP3    H1 5922   2.122   6.345   1.342
 2015TIP3    H2 5923   1.995   6.264   1.352
 2016TIP3   OH2 5924   3.848   6.201   1.082
 2016TIP3    H1 5925   3.925   6.166   1.036
 2016TIP3    H2 5926   3.825   6.279   1.032
 2017TIP3   OH2 5927   0.010   1.476   7.857
 2017TIP3    H1 5928   0.079   1.459   7.921
 2017TIP3    H2 5929  -0.040   1.394   7.854
 2018TIP3   OH2 5930   2.015   6.059   0.598
 2018TIP3    H1 5931   2.061   5.977   0.617
 2018TIP3    H2 5932   2.082   6.127   0.610
 2019TIP3   OH2 5933   1.795   6.323   0.735
 2019TIP3    H1 5934   1.852   6.329   0.658
 2019TIP3    H2 5935   1.813   6.403   0.784
 2020TIP3   OH2 5936   3.715   6.369   0.903
 2020TIP3    H1 5937   3.635   6.412   0.933
 2020TIP3    H2 5938   3.686   6.306   0.837
 2021TIP3   OH2 5939   1.794   5.843   0.221
 2021TIP3    H1 5940   1.723   5.805   0.271
 2021TIP3    H2 5941   1.754   5.916   0.174
 2022TIP3   OH2 5942   1.988   5.901   1.048
 2022TIP3    H1 5943   1.934   5.885   1.125
 2022TIP3    H2 5944   1.931   5.950   0.989
 2023TIP3   OH2 5945   2.060   7.331   1.133
 2023TIP3    H1 5946   1.964   7.325   1.133
 2023TIP3    H2 5947   2.081   7.363   1.221
 2024TIP3   OH2 5948   2.199   7.417   0.672
 2024TIP3    H1 5949   2.143   7.481   0.628
 2024TIP3    H2 5950   2.288   7.440   0.645
 2025TIP3   OH2 5951   2.651   7.644   0.811
 2025TIP3    H1 5952   2.685   7.640   0.901
 2025TIP3    H2 5953   2.716   7.694   0.763
 2026TIP3   OH2 5954   2.864   7.785   0.694
 2026TIP3    H1 5955   2.933   7.730   0.658
 2026TIP3    H2 5956   2.911   7.848   0.749
 2027TIP3   OH2 5957   3.612   6.152   0.753
 2027TIP3    H1 5958   3.535   6.170   0.699
 2027TIP3    H2 5959   3.631   6.060   0.738
 2028TIP3   OH2 5960   2.533   7.687   0.417
 2028TIP3    H1 5961   2.494   7.716   0.334
 2028TIP3    H2 5962   2.581   7.764   0.449
 2029TIP3   OH2 5963   2.787   7.570   0.406
 2029TIP3    H1 5964   2.697   7.602   0.401
 2029TIP3    H2 5965   2.839   7.635   0.361
 2030TIP3   OH2 5966   2.982   7.737   0.301
 2030TIP3    H1 5967   2.983   7.830   0.279
 2030TIP3    H2 5968   3.021   7.694   0.225
 2031TIP3   OH2 5969   2.337   7.399   0.337
 2031TIP3    H1 5970   2.404   7.435   0.279
 2031TIP3    H2 5971   2.364   7.425   0.425
 2032TIP3   OH2 5972   2.857   6.035   0.429
 2032TIP3    H1 5973   2.803   5.965   0.467
 2032TIP3    H2 5974   2.927   5.989   0.383
 2033TIP3   OH2 5975   3.391   5.984   0.293
 2033TIP3    H1 5976   3.406   6.039   0.216
 2033TIP3    H2 5977   3.298   5.992   0.312
 2034TIP3   OH2 5978   3.479   6.026   0.035
 2034TIP3    H1 5979   3.539   5.966  -0.010
 2034TIP3    H2 5980   3.522   6.112   0.028
 2035TIP3   OH2 5981   1.899   5.642   0.063
 2035TIP3    H1 5982   1.870   5.685  -0.017
 2035TIP3    H2 5983   1.883   5.707   0.132
 2036TIP3   OH2 5984   2.519   5.841   0.228
 2036TIP3    H1 5985   2.595   5.881   0.187
 2036TIP3    H2 5986   2.528   5.860   0.321
 2037TIP3   OH2 5987   3.103   5.941   0.299
 2037TIP3    H1 5988   3.078   5.926   0.208
 2037TIP3    H2 5989   3.095   5.856   0.341
 2038TIP3   OH2 5990   9.662   1.245   7.878
 2038TIP3    H1 5991   9.579   1.290   7.865
 2038TIP3    H2 5992   9.638   1.156   7.905
 2039TIP3   OH2 5993   8.752   1.127   7.773
 2039TIP3    H1 5994   8.709   1.043   7.787
 2039TIP3    H2 5995   8.693   1.191   7.814
 2040TIP3   OH2 5996   9.030   1.366   7.938
 2040TIP3    H1 5997   9.083   1.348   7.861
 2040TIP3    H2 5998   9.059   1.452   7.968
 2041TIP3   OH2 5999   2.305   6.034   1.293
 2041TIP3    H1 6000   2.270   5.965   1.350
 2041TIP3    H2 6001   2.397   6.041   1.316
 2042TIP3   OH2 6002   2.553   6.039   1.416
 2042TIP3    H1 6003   2.629   6.015   1.363
 2042TIP3    H2 6004   2.544   5.969   1.480
 2043TIP3   OH2 6005   3.402   6.027   1.209
 2043TIP3    H1 6006   3.449   5.952   1.244
 2043TIP3    H2 6007   3.461   6.064   1.143
 2044TIP3   OH2 6008   3.274   7.661   0.703
 2044TIP3    H1 6009   3.198   7.637   0.650
 2044TIP3    H2 6010   3.270   7.756   0.709
 2045TIP3   OH2 6011   3.868   6.919   0.248
 2045TIP3    H1 6012   3.873   6.889   0.338
 2045TIP3    H2 6013   3.932   6.990   0.242
 2046TIP3   OH2 6014   0.432   1.946   7.984
 2046TIP3    H1 6015   0.525   1.924   7.990
 2046TIP3    H2 6016   0.427   2.007   7.911
 2047TIP3   OH2 6017   4.091   6.415   0.331
 2047TIP3    H1 6018   4.069   6.498   0.289
 2047TIP3    H2 6019   4.042   6.416   0.413
 2048TIP3   OH2 6020   3.959   6.489   0.023
 2048TIP3    H1 6021   3.990   6.553   0.087
 2048TIP3    H2 6022   4.033   6.476  -0.036
 2049TIP3   OH2 6023   4.027   7.420   0.293
 2049TIP3    H1 6024   4.072   7.337   0.284
 2049TIP3    H2 6025   3.945   7.399   0.338
 2050TIP3   OH2 6026   4.405   6.059   0.039
 2050TIP3    H1 6027   4.397   5.972   0.079
 2050TIP3    H2 6028   4.334   6.110   0.079
 2051TIP3   OH2 6029   4.213   7.571   0.438
 2051TIP3    H1 6030   4.219   7.659   0.401
 2051TIP3    H2 6031   4.149   7.526   0.384
 2052TIP3   OH2 6032   3.905   7.104   0.499
 2052TIP3    H1 6033   3.927   7.138   0.586
 2052TIP3    H2 6034   3.827   7.051   0.513
 2053TIP3   OH2 6035   3.909   7.661   0.329
 2053TIP3    H1 6036   3.951   7.579   0.302
 2053TIP3    H2 6037   3.891   7.649   0.423
 2054TIP3   OH2 6038   3.597   7.187   0.395
 2054TIP3    H1 6039   3.537   7.170   0.323
 2054TIP3    H2 6040   3.626   7.101   0.425
 2055TIP3   OH2 6041   3.506   7.348   0.063
 2055TIP3    H1 6042   3.517   7.399  -0.018
 2055TIP3    H2 6043   3.542   7.405   0.131
 2056TIP3   OH2 6044   5.205   6.927   0.358
 2056TIP3    H1 6045   5.134   6.897   0.300
 2056TIP3    H2 6046   5.285   6.915   0.306
 2057TIP3   OH2 6047   3.794   7.372   0.422
 2057TIP3    H1 6048   3.826   7.339   0.505
 2057TIP3    H2 6049   3.725   7.311   0.396
 2058TIP3   OH2 6050   4.196   6.192   0.176
 2058TIP3    H1 6051   4.108   6.163   0.154
 2058TIP3    H2 6052   4.184   6.277   0.218
 2059TIP3   OH2 6053   4.758   6.276   0.353
 2059TIP3    H1 6054   4.820   6.257   0.423
 2059TIP3    H2 6055   4.674   6.246   0.388
 2060TIP3   OH2 6056   4.996   6.811   0.227
 2060TIP3    H1 6057   4.994   6.719   0.256
 2060TIP3    H2 6058   4.905   6.833   0.212
 2061TIP3   OH2 6059   4.034   6.658   0.219
 2061TIP3    H1 6060   3.973   6.713   0.268
 2061TIP3    H2 6061   4.099   6.720   0.185
 2062TIP3   OH2 6062   4.604   6.965   0.640
 2062TIP3    H1 6063   4.593   6.874   0.668
 2062TIP3    H2 6064   4.688   6.966   0.596
 2063TIP3   OH2 6065   3.892   6.719   0.470
 2063TIP3    H1 6066   3.972   6.772   0.481
 2063TIP3    H2 6067   3.914   6.634   0.507
 2064TIP3   OH2 6068   3.624   6.250   0.003
 2064TIP3    H1 6069   3.673   6.287   0.077
 2064TIP3    H2 6070   3.643   6.310  -0.070
 2065TIP3   OH2 6071   3.933   7.328   0.681
 2065TIP3    H1 6072   4.009   7.316   0.737
 2065TIP3    H2 6073   3.858   7.320   0.740
 2066TIP3   OH2 6074   4.463   6.618   0.166
 2066TIP3    H1 6075   4.469   6.633   0.072
 2066TIP3    H2 6076   4.552   6.598   0.194
 2067TIP3   OH2 6077   4.569   7.453   0.166
 2067TIP3    H1 6078   4.535   7.464   0.255
 2067TIP3    H2 6079   4.628   7.527   0.153
 2068TIP3   OH2 6080   3.676   6.960   0.536
 2068TIP3    H1 6081   3.690   6.910   0.616
 2068TIP3    H2 6082   3.619   6.905   0.482
 2069TIP3   OH2 6083   4.380   7.096   0.576
 2069TIP3    H1 6084   4.362   7.111   0.484
 2069TIP3    H2 6085   4.457   7.040   0.577
 2070TIP3   OH2 6086   3.954   6.455   0.570
 2070TIP3    H1 6087   3.869   6.411   0.574
 2070TIP3    H2 6088   4.008   6.407   0.634
 2071TIP3   OH2 6089   3.625   7.518   0.240
 2071TIP3    H1 6090   3.692   7.498   0.306
 2071TIP3    H2 6091   3.657   7.597   0.196
 2072TIP3   OH2 6092   4.699   6.532   0.276
 2072TIP3    H1 6093   4.781   6.569   0.244
 2072TIP3    H2 6094   4.720   6.441   0.296
 2073TIP3   OH2 6095   4.542   6.872   0.288
 2073TIP3    H1 6096   4.619   6.885   0.344
 2073TIP3    H2 6097   4.577   6.835   0.207
 2074TIP3   OH2 6098   3.937   6.104   0.153
 2074TIP3    H1 6099   3.910   6.077   0.065
 2074TIP3    H2 6100   3.934   6.023   0.204
 2075TIP3   OH2 6101   3.640   7.849   0.632
 2075TIP3    H1 6102   3.711   7.842   0.696
 2075TIP3    H2 6103   3.600   7.762   0.631
 2076TIP3   OH2 6104   4.090   7.832   0.667
 2076TIP3    H1 6105   4.176   7.873   0.662
 2076TIP3    H2 6106   4.050   7.849   0.582
 2077TIP3   OH2 6107   4.796   7.873   0.372
 2077TIP3    H1 6108   4.856   7.807   0.338
 2077TIP3    H2 6109   4.851   7.949   0.389
 2078TIP3   OH2 6110   3.722   7.282   0.844
 2078TIP3    H1 6111   3.735   7.187   0.842
 2078TIP3    H2 6112   3.645   7.296   0.789
 2079TIP3   OH2 6113   4.392   7.438   0.646
 2079TIP3    H1 6114   4.414   7.420   0.555
 2079TIP3    H2 6115   4.456   7.387   0.696
 2080TIP3   OH2 6116   3.897   7.047   0.804
 2080TIP3    H1 6117   3.980   7.029   0.760
 2080TIP3    H2 6118   3.922   7.078   0.891
 2081TIP3   OH2 6119   4.109   6.886   0.447
 2081TIP3    H1 6120   4.102   6.938   0.527
 2081TIP3    H2 6121   4.172   6.934   0.393
 2082TIP3   OH2 6122   4.863   7.284   0.727
 2082TIP3    H1 6123   4.891   7.318   0.642
 2082TIP3    H2 6124   4.786   7.335   0.749
 2083TIP3   OH2 6125   4.306   6.564   0.642
 2083TIP3    H1 6126   4.373   6.496   0.635
 2083TIP3    H2 6127   4.301   6.602   0.554
 2084TIP3   OH2 6128   4.361   6.413   0.312
 2084TIP3    H1 6129   4.385   6.500   0.279
 2084TIP3    H2 6130   4.268   6.420   0.333
 2085TIP3   OH2 6131   4.308   7.008   0.306
 2085TIP3    H1 6132   4.390   6.960   0.308
 2085TIP3    H2 6133   4.314   7.063   0.228
 2086TIP3   OH2 6134   4.896   6.998   0.721
 2086TIP3    H1 6135   4.987   6.968   0.724
 2086TIP3    H2 6136   4.900   7.083   0.678
 2087TIP3   OH2 6137   5.045   7.154   0.248
 2087TIP3    H1 6138   4.975   7.212   0.278
 2087TIP3    H2 6139   5.125   7.190   0.288
 2088TIP3   OH2 6140   4.222   6.769   0.806
 2088TIP3    H1 6141   4.152   6.724   0.853
 2088TIP3    H2 6142   4.253   6.705   0.743
 2089TIP3   OH2 6143   4.505   6.221   0.431
 2089TIP3    H1 6144   4.452   6.285   0.384
 2089TIP3    H2 6145   4.448   6.146   0.444
 2090TIP3   OH2 6146   4.562   6.721   0.739
 2090TIP3    H1 6147   4.502   6.678   0.800
 2090TIP3    H2 6148   4.549   6.674   0.656
 2091TIP3   OH2 6149   4.825   6.575   0.606
 2091TIP3    H1 6150   4.821   6.632   0.683
 2091TIP3    H2 6151   4.896   6.611   0.553
 2092TIP3   OH2 6152   5.125   6.629   0.743
 2092TIP3    H1 6153   5.142   6.535   0.740
 2092TIP3    H2 6154   5.104   6.647   0.835
 2093TIP3   OH2 6155   4.078   6.551   0.901
 2093TIP3    H1 6156   4.113   6.486   0.840
 2093TIP3    H2 6157   4.118   6.530   0.985
 2094TIP3   OH2 6158   4.512   6.160   0.744
 2094TIP3    H1 6159   4.583   6.095   0.736
 2094TIP3    H2 6160   4.547   6.238   0.701
 2095TIP3   OH2 6161   4.593   6.434   0.899
 2095TIP3    H1 6162   4.591   6.417   0.805
 2095TIP3    H2 6163   4.520   6.495   0.914
 2096TIP3   OH2 6164   5.099   7.674   0.376
 2096TIP3    H1 6165   5.133   7.664   0.465
 2096TIP3    H2 6166   5.164   7.728   0.331
 2097TIP3   OH2 6167   3.623   6.936   0.130
 2097TIP3    H1 6168   3.643   6.971   0.044
 2097TIP3    H2 6169   3.708   6.925   0.173
 2098TIP3   OH2 6170   3.820   6.614   0.822
 2098TIP3    H1 6171   3.913   6.608   0.840
 2098TIP3    H2 6172   3.783   6.531   0.853
 2099TIP3   OH2 6173   5.711   6.376   0.445
 2099TIP3    H1 6174   5.771   6.428   0.498
 2099TIP3    H2 6175   5.646   6.438   0.413
 2100TIP3   OH2 6176   3.797   6.335   0.201
 2100TIP3    H1 6177   3.852   6.257   0.197
 2100TIP3    H2 6178   3.846   6.402   0.153
 2101TIP3   OH2 6179   3.563   6.584   0.223
 2101TIP3    H1 6180   3.604   6.568   0.138
 2101TIP3    H2 6181   3.593   6.671   0.248
 2102TIP3   OH2 6182   5.523   6.556   0.367
 2102TIP3    H1 6183   5.437   6.595   0.383
 2102TIP3    H2 6184   5.580   6.631   0.350
 2103TIP3   OH2 6185   3.803   6.194   0.550
 2103TIP3    H1 6186   3.751   6.187   0.631
 2103TIP3    H2 6187   3.744   6.233   0.486
 2104TIP3   OH2 6188   3.732   7.607   0.777
 2104TIP3    H1 6189   3.655   7.589   0.723
 2104TIP3    H2 6190   3.805   7.614   0.714
 2105TIP3   OH2 6191   5.272   6.302   0.178
 2105TIP3    H1 6192   5.281   6.397   0.168
 2105TIP3    H2 6193   5.362   6.270   0.179
 2106TIP3   OH2 6194   3.647   8.028   0.112
 2106TIP3    H1 6195   3.558   8.042   0.081
 2106TIP3    H2 6196   3.637   7.995   0.202
 2107TIP3   OH2 6197   0.593   1.359   7.926
 2107TIP3    H1 6198   0.508   1.318   7.917
 2107TIP3    H2 6199   0.656   1.289   7.909
 2108TIP3   OH2 6200   4.097   6.284   0.754
 2108TIP3    H1 6201   4.062   6.226   0.822
 2108TIP3    H2 6202   4.189   6.297   0.780
 2109TIP3   OH2 6203   4.327   6.288   0.905
 2109TIP3    H1 6204   4.397   6.250   0.852
 2109TIP3    H2 6205   4.322   6.231   0.981
 2110TIP3   OH2 6206   5.175   6.358   0.721
 2110TIP3    H1 6207   5.151   6.330   0.810
 2110TIP3    H2 6208   5.271   6.359   0.722
 2111TIP3   OH2 6209   6.064   6.537   0.379
 2111TIP3    H1 6210   6.118   6.560   0.303
 2111TIP3    H2 6211   6.116   6.473   0.428
 2112TIP3   OH2 6212   1.709   7.799   1.211
 2112TIP3    H1 6213   1.776   7.749   1.164
 2112TIP3    H2 6214   1.626   7.771   1.172
 2113TIP3   OH2 6215   3.199   8.360   0.233
 2113TIP3    H1 6216   3.208   8.383   0.141
 2113TIP3    H2 6217   3.281   8.389   0.273
 2114TIP3   OH2 6218   2.996   8.009   0.244
 2114TIP3    H1 6219   2.926   8.054   0.292
 2114TIP3    H2 6220   3.022   8.072   0.176
 2115TIP3   OH2 6221   3.073   8.537   0.572
 2115TIP3    H1 6222   3.016   8.535   0.494
 2115TIP3    H2 6223   3.107   8.448   0.579
 2116TIP3   OH2 6224   2.665   7.890   0.538
 2116TIP3    H1 6225   2.738   7.854   0.589
 2116TIP3    H2 6226   2.616   7.944   0.601
 2117TIP3   OH2 6227   2.839   8.385   0.439
 2117TIP3    H1 6228   2.783   8.351   0.510
 2117TIP3    H2 6229   2.777   8.409   0.370
 2118TIP3   OH2 6230   2.611   8.555   0.743
 2118TIP3    H1 6231   2.570   8.469   0.756
 2118TIP3    H2 6232   2.705   8.535   0.739
 2119TIP3   OH2 6233   2.752   8.096   0.375
 2119TIP3    H1 6234   2.755   8.150   0.454
 2119TIP3    H2 6235   2.715   8.013   0.404
 2120TIP3   OH2 6236   3.085   8.265   0.463
 2120TIP3    H1 6237   2.994   8.294   0.458
 2120TIP3    H2 6238   3.122   8.288   0.378
 2121TIP3   OH2 6239   2.879   8.496   0.769
 2121TIP3    H1 6240   2.906   8.408   0.794
 2121TIP3    H2 6241   2.945   8.524   0.705
 2122TIP3   OH2 6242   2.377   7.791   0.641
 2122TIP3    H1 6243   2.369   7.873   0.592
 2122TIP3    H2 6244   2.436   7.738   0.588
 2123TIP3   OH2 6245   2.513   8.303   0.810
 2123TIP3    H1 6246   2.551   8.298   0.897
 2123TIP3    H2 6247   2.420   8.286   0.823
 2124TIP3   OH2 6248   2.722   8.224   0.636
 2124TIP3    H1 6249   2.644   8.246   0.687
 2124TIP3    H2 6250   2.793   8.220   0.700
 2125TIP3   OH2 6251   2.936   8.223   0.833
 2125TIP3    H1 6252   2.956   8.130   0.837
 2125TIP3    H2 6253   2.928   8.250   0.925
 2126TIP3   OH2 6254   2.028   8.248   1.082
 2126TIP3    H1 6255   1.982   8.204   1.011
 2126TIP3    H2 6256   2.045   8.178   1.146
 2127TIP3   OH2 6257   2.401   7.784   0.911
 2127TIP3    H1 6258   2.472   7.720   0.910
 2127TIP3    H2 6259   2.374   7.792   0.820
 2128TIP3   OH2 6260   2.499   8.017   1.020
 2128TIP3    H1 6261   2.467   7.936   0.978
 2128TIP3    H2 6262   2.426   8.079   1.011
 2129TIP3   OH2 6263   3.250   8.702   0.417
 2129TIP3    H1 6264   3.214   8.649   0.489
 2129TIP3    H2 6265   3.342   8.715   0.440
 2130TIP3   OH2 6266   3.042   8.585   0.281
 2130TIP3    H1 6267   3.090   8.504   0.264
 2130TIP3    H2 6268   3.109   8.646   0.313
 2131TIP3   OH2 6269   3.509   8.075   0.716
 2131TIP3    H1 6270   3.561   8.006   0.676
 2131TIP3    H2 6271   3.471   8.122   0.642
 2132TIP3   OH2 6272   3.344   8.178   0.521
 2132TIP3    H1 6273   3.258   8.218   0.534
 2132TIP3    H2 6274   3.327   8.104   0.462
 2133TIP3   OH2 6275   3.261   7.948   0.394
 2133TIP3    H1 6276   3.171   7.942   0.359
 2133TIP3    H2 6277   3.296   7.860   0.384
 2134TIP3   OH2 6278   1.954   7.746   0.903
 2134TIP3    H1 6279   1.935   7.695   0.982
 2134TIP3    H2 6280   2.015   7.813   0.932
 2135TIP3   OH2 6281   2.178   7.852   1.086
 2135TIP3    H1 6282   2.253   7.830   1.031
 2135TIP3    H2 6283   2.165   7.775   1.141
 2136TIP3   OH2 6284   3.022   7.960   0.843
 2136TIP3    H1 6285   3.039   7.928   0.932
 2136TIP3    H2 6286   3.107   7.952   0.799
 2137TIP3   OH2 6287   3.518   8.763   0.492
 2137TIP3    H1 6288   3.598   8.720   0.462
 2137TIP3    H2 6289   3.520   8.849   0.450
 2138TIP3   OH2 6290   3.770   8.672   0.407
 2138TIP3    H1 6291   3.740   8.587   0.438
 2138TIP3    H2 6292   3.866   8.664   0.405
 2139TIP3   OH2 6293   3.656   8.439   0.528
 2139TIP3    H1 6294   3.664   8.355   0.483
 2139TIP3    H2 6295   3.665   8.417   0.621
 2140TIP3   OH2 6296   4.232   8.346   0.471
 2140TIP3    H1 6297   4.177   8.274   0.500
 2140TIP3    H2 6298   4.199   8.367   0.383
 2141TIP3   OH2 6299   3.411   8.418   0.396
 2141TIP3    H1 6300   3.487   8.461   0.434
 2141TIP3    H2 6301   3.402   8.336   0.445
 2142TIP3   OH2 6302   3.367   8.011   0.127
 2142TIP3    H1 6303   3.334   8.014   0.216
 2142TIP3    H2 6304   3.319   8.080   0.081
 2143TIP3   OH2 6305   3.666   7.925   0.365
 2143TIP3    H1 6306   3.661   7.882   0.450
 2143TIP3    H2 6307   3.676   8.018   0.385
 2144TIP3   OH2 6308   3.865   8.099   0.632
 2144TIP3    H1 6309   3.955   8.121   0.655
 2144TIP3    H2 6310   3.845   8.020   0.682
 2145TIP3   OH2 6311   8.002   9.091   4.791
 2145TIP3    H1 6312   7.940   9.100   4.718
 2145TIP3    H2 6313   8.012   9.180   4.825
 2146TIP3   OH2 6314   1.767   0.349   4.797
 2146TIP3    H1 6315   1.826   0.325   4.868
 2146TIP3    H2 6316   1.681   0.357   4.838
 2147TIP3   OH2 6317   1.489   0.662   4.962
 2147TIP3    H1 6318   1.496   0.722   4.888
 2147TIP3    H2 6319   1.568   0.678   5.014
 2148TIP3   OH2 6320   1.785   0.035   4.871
 2148TIP3    H1 6321   1.724   0.021   4.943
 2148TIP3    H2 6322   1.731   0.031   4.792
 2149TIP3   OH2 6323   1.279   0.332   4.801
 2149TIP3    H1 6324   1.229   0.250   4.806
 2149TIP3    H2 6325   1.292   0.346   4.707
 2150TIP3   OH2 6326   1.250   0.133   5.010
 2150TIP3    H1 6327   1.162   0.100   5.027
 2150TIP3    H2 6328   1.283   0.159   5.097
 2151TIP3   OH2 6329   1.646   0.524   4.245
 2151TIP3    H1 6330   1.676   0.497   4.332
 2151TIP3    H2 6331   1.680   0.457   4.186
 2152TIP3   OH2 6332   1.730   0.462   4.505
 2152TIP3    H1 6333   1.654   0.430   4.554
 2152TIP3    H2 6334   1.797   0.394   4.518
 2153TIP3   OH2 6335   1.673  -0.005   5.123
 2153TIP3    H1 6336   1.586  -0.038   5.145
 2153TIP3    H2 6337   1.664   0.090   5.127
 2154TIP3   OH2 6338   1.421   0.165   4.589
 2154TIP3    H1 6339   1.337   0.125   4.610
 2154TIP3    H2 6340   1.427   0.159   4.494
 2155TIP3   OH2 6341   8.297   8.904   5.052
 2155TIP3    H1 6342   8.315   8.814   5.024
 2155TIP3    H2 6343   8.277   8.950   4.971
 2156TIP3   OH2 6344   8.391   8.660   5.007
 2156TIP3    H1 6345   8.369   8.603   5.081
 2156TIP3    H2 6346   8.478   8.630   4.979
 2157TIP3   OH2 6347   1.129   0.553   4.828
 2157TIP3    H1 6348   1.197   0.485   4.829
 2157TIP3    H2 6349   1.177   0.635   4.839
 2158TIP3   OH2 6350   1.206   0.381   4.510
 2158TIP3    H1 6351   1.178   0.472   4.524
 2158TIP3    H2 6352   1.221   0.375   4.416
 2159TIP3   OH2 6353   1.519   0.384   4.919
 2159TIP3    H1 6354   1.441   0.374   4.864
 2159TIP3    H2 6355   1.522   0.478   4.939
 2160TIP3   OH2 6356   9.417   8.952   3.731
 2160TIP3    H1 6357   9.392   9.043   3.717
 2160TIP3    H2 6358   9.333   8.907   3.744
 2161TIP3   OH2 6359   9.411   8.960   4.106
 2161TIP3    H1 6360   9.450   8.946   4.192
 2161TIP3    H2 6361   9.373   8.875   4.082
 2162TIP3   OH2 6362   8.698   8.846   4.398
 2162TIP3    H1 6363   8.699   8.784   4.471
 2162TIP3    H2 6364   8.788   8.879   4.393
 2163TIP3   OH2 6365   3.174   0.028   3.798
 2163TIP3    H1 6366   3.143  -0.032   3.866
 2163TIP3    H2 6367   3.179   0.113   3.841
 2164TIP3   OH2 6368   2.150   0.134   4.161
 2164TIP3    H1 6369   2.157   0.041   4.138
 2164TIP3    H2 6370   2.230   0.152   4.210
 2165TIP3   OH2 6371   2.792   0.458   3.801
 2165TIP3    H1 6372   2.823   0.391   3.740
 2165TIP3    H2 6373   2.774   0.410   3.882
 2166TIP3   OH2 6374   9.247   9.192   4.116
 2166TIP3    H1 6375   9.292   9.114   4.085
 2166TIP3    H2 6376   9.316   9.244   4.157
 2167TIP3   OH2 6377   9.637   8.674   4.154
 2167TIP3    H1 6378   9.673   8.608   4.213
 2167TIP3    H2 6379   9.595   8.623   4.084
 2168TIP3   OH2 6380   0.376   8.648   4.263
 2168TIP3    H1 6381   0.311   8.715   4.284
 2168TIP3    H2 6382   0.437   8.650   4.336
 2169TIP3   OH2 6383   9.310   9.198   3.667
 2169TIP3    H1 6384   9.387   9.237   3.628
 2169TIP3    H2 6385   9.240   9.262   3.653
 2170TIP3   OH2 6386   9.105   9.119   4.337
 2170TIP3    H1 6387   9.049   9.192   4.363
 2170TIP3    H2 6388   9.154   9.152   4.262
 2171TIP3   OH2 6389   2.363   0.075   4.372
 2171TIP3    H1 6390   2.370   0.170   4.378
 2171TIP3    H2 6391   2.340   0.047   4.460
 2172TIP3   OH2 6392   3.176   0.275   3.928
 2172TIP3    H1 6393   3.094   0.265   3.975
 2172TIP3    H2 6394   3.169   0.360   3.884
 2173TIP3   OH2 6395   2.885   0.300   3.592
 2173TIP3    H1 6396   2.930   0.216   3.586
 2173TIP3    H2 6397   2.950   0.365   3.565
 2174TIP3   OH2 6398   3.015   0.063   3.574
 2174TIP3    H1 6399   3.054   0.023   3.495
 2174TIP3    H2 6400   3.079   0.045   3.643
 2175TIP3   OH2 6401   3.405   0.169   4.273
 2175TIP3    H1 6402   3.392   0.095   4.214
 2175TIP3    H2 6403   3.389   0.246   4.219
 2176TIP3   OH2 6404   0.315   9.064   4.155
 2176TIP3    H1 6405   0.237   9.118   4.141
 2176TIP3    H2 6406   0.357   9.060   4.069
 2177TIP3   OH2 6407   9.612   8.948   3.531
 2177TIP3    H1 6408   9.543   8.949   3.597
 2177TIP3    H2 6409   9.688   8.911   3.576
 2178TIP3   OH2 6410   9.797   8.943   4.445
 2178TIP3    H1 6411   9.808   9.026   4.492
 2178TIP3    H2 6412   9.710   8.949   4.406
 2179TIP3   OH2 6413   2.463   0.072   4.033
 2179TIP3    H1 6414   2.432   0.007   3.969
 2179TIP3    H2 6415   2.550   0.042   4.058
 2180TIP3   OH2 6416   8.946   8.912   4.247
 2180TIP3    H1 6417   8.952   8.905   4.152
 2180TIP3    H2 6418   9.013   8.976   4.270
 2181TIP3   OH2 6419   2.956   0.262   4.085
 2181TIP3    H1 6420   2.934   0.346   4.124
 2181TIP3    H2 6421   2.935   0.198   4.153
 2182TIP3   OH2 6422   2.584   0.150   4.577
 2182TIP3    H1 6423   2.536   0.216   4.626
 2182TIP3    H2 6424   2.561   0.067   4.619
 2183TIP3   OH2 6425   8.910   8.944   4.661
 2183TIP3    H1 6426   8.912   9.028   4.615
 2183TIP3    H2 6427   8.828   8.946   4.710
 2184TIP3   OH2 6428   2.629   0.195   3.606
 2184TIP3    H1 6429   2.715   0.237   3.604
 2184TIP3    H2 6430   2.571   0.258   3.563
 2185TIP3   OH2 6431   2.402   0.357   4.662
 2185TIP3    H1 6432   2.397   0.361   4.566
 2185TIP3    H2 6433   2.312   0.365   4.691
 2186TIP3   OH2 6434   3.249   0.175   2.977
 2186TIP3    H1 6435   3.241   0.247   2.915
 2186TIP3    H2 6436   3.325   0.126   2.947
 2187TIP3   OH2 6437   8.449   9.185   4.591
 2187TIP3    H1 6438   8.467   9.192   4.498
 2187TIP3    H2 6439   8.359   9.153   4.596
 2188TIP3   OH2 6440   8.269   9.190   4.242
 2188TIP3    H1 6441   8.361   9.182   4.267
 2188TIP3    H2 6442   8.243   9.276   4.275
 2189TIP3   OH2 6443   3.637   0.509   4.352
 2189TIP3    H1 6444   3.643   0.415   4.368
 2189TIP3    H2 6445   3.559   0.537   4.400
 2190TIP3   OH2 6446   2.746   0.337   4.437
 2190TIP3    H1 6447   2.732   0.417   4.488
 2190TIP3    H2 6448   2.704   0.268   4.489
 2191TIP3   OH2 6449   2.505   0.407   3.454
 2191TIP3    H1 6450   2.432   0.375   3.401
 2191TIP3    H2 6451   2.482   0.497   3.476
 2192TIP3   OH2 6452   2.767   0.423   3.362
 2192TIP3    H1 6453   2.675   0.408   3.385
 2192TIP3    H2 6454   2.816   0.366   3.421
 2193TIP3   OH2 6455   0.269   8.868   4.639
 2193TIP3    H1 6456   0.189   8.878   4.690
 2193TIP3    H2 6457   0.251   8.794   4.580
 2194TIP3   OH2 6458   2.083   0.097   4.807
 2194TIP3    H1 6459   2.176   0.075   4.815
 2194TIP3    H2 6460   2.052   0.045   4.733
 2195TIP3   OH2 6461   9.784   8.727   4.612
 2195TIP3    H1 6462   9.804   8.768   4.697
 2195TIP3    H2 6463   9.793   8.797   4.548
 2196TIP3   OH2 6464   8.893   8.574   4.294
 2196TIP3    H1 6465   8.907   8.639   4.363
 2196TIP3    H2 6466   8.926   8.616   4.215
 2197TIP3   OH2 6467   9.591   8.957   4.706
 2197TIP3    H1 6468   9.599   8.900   4.783
 2197TIP3    H2 6469   9.676   9.000   4.699
 2198TIP3   OH2 6470   9.532   8.616   3.886
 2198TIP3    H1 6471   9.542   8.703   3.846
 2198TIP3    H2 6472   9.586   8.559   3.831
 2199TIP3   OH2 6473   8.666   8.664   4.602
 2199TIP3    H1 6474   8.621   8.691   4.682
 2199TIP3    H2 6475   8.722   8.591   4.630
 2200TIP3   OH2 6476   9.551   8.871   4.331
 2200TIP3    H1 6477   9.585   8.807   4.269
 2200TIP3    H2 6478   9.526   8.820   4.408
 2201TIP3   OH2 6479   3.357   0.861   4.441
 2201TIP3    H1 6480   3.355   0.872   4.346
 2201TIP3    H2 6481   3.436   0.907   4.469
 2202TIP3   OH2 6482   2.354   0.031   4.882
 2202TIP3    H1 6483   2.441   0.070   4.893
 2202TIP3    H2 6484   2.342  -0.023   4.960
 2203TIP3   OH2 6485   9.334   8.685   4.062
 2203TIP3    H1 6486   9.396   8.652   3.997
 2203TIP3    H2 6487   9.362   8.643   4.144
 2204TIP3   OH2 6488   9.391   8.584   4.313
 2204TIP3    H1 6489   9.307   8.628   4.329
 2204TIP3    H2 6490   9.446   8.611   4.387
 2205TIP3   OH2 6491   0.093   9.211   4.086
 2205TIP3    H1 6492   0.125   9.253   4.006
 2205TIP3    H2 6493   0.008   9.175   4.062
 2206TIP3   OH2 6494   2.842   0.051   4.540
 2206TIP3    H1 6495   2.881   0.086   4.620
 2206TIP3    H2 6496   2.750   0.075   4.546
 2207TIP3   OH2 6497   8.490   8.835   4.771
 2207TIP3    H1 6498   8.427   8.901   4.798
 2207TIP3    H2 6499   8.437   8.766   4.731
 2208TIP3   OH2 6500   9.356   9.001   4.846
 2208TIP3    H1 6501   9.286   9.057   4.811
 2208TIP3    H2 6502   9.432   9.021   4.791
 2209TIP3   OH2 6503   3.021   0.330   4.397
 2209TIP3    H1 6504   2.925   0.321   4.396
 2209TIP3    H2 6505   3.041   0.354   4.488
 2210TIP3   OH2 6506   3.654   0.227   4.369
 2210TIP3    H1 6507   3.560   0.219   4.356
 2210TIP3    H2 6508   3.692   0.203   4.284
 2211TIP3   OH2 6509   3.150   0.182   3.235
 2211TIP3    H1 6510   3.129   0.096   3.273
 2211TIP3    H2 6511   3.175   0.163   3.145
 2212TIP3   OH2 6512   9.655   9.083   4.003
 2212TIP3    H1 6513   9.565   9.066   4.031
 2212TIP3    H2 6514   9.687   8.999   3.971
 2213TIP3   OH2 6515   2.581   0.391   4.227
 2213TIP3    H1 6516   2.618   0.467   4.183
 2213TIP3    H2 6517   2.649   0.364   4.289
 2214TIP3   OH2 6518   2.922   0.049   4.275
 2214TIP3    H1 6519   2.887   0.054   4.364
 2214TIP3    H2 6520   3.015   0.032   4.287
 2215TIP3   OH2 6521   3.173   0.533   4.284
 2215TIP3    H1 6522   3.109   0.467   4.311
 2215TIP3    H2 6523   3.128   0.583   4.216
 2216TIP3   OH2 6524   3.242   0.437   2.868
 2216TIP3    H1 6525   3.303   0.510   2.882
 2216TIP3    H2 6526   3.166   0.459   2.921
 2217TIP3   OH2 6527   9.656   9.161   3.359
 2217TIP3    H1 6528   9.624   9.084   3.405
 2217TIP3    H2 6529   9.742   9.135   3.326
 2218TIP3   OH2 6530   1.998   0.384   4.361
 2218TIP3    H1 6531   2.059   0.323   4.402
 2218TIP3    H2 6532   2.014   0.467   4.406
 2219TIP3   OH2 6533   9.528   8.668   4.535
 2219TIP3    H1 6534   9.470   8.700   4.604
 2219TIP3    H2 6535   9.616   8.679   4.570
 2220TIP3   OH2 6536   9.748   8.824   3.947
 2220TIP3    H1 6537   9.691   8.790   4.016
 2220TIP3    H2 6538   9.835   8.794   3.970
 2221TIP3   OH2 6539   3.195   0.543   3.847
 2221TIP3    H1 6540   3.154   0.593   3.777
 2221TIP3    H2 6541   3.289   0.556   3.835
 2222TIP3   OH2 6542   2.043   0.594   4.880
 2222TIP3    H1 6543   2.120   0.602   4.936
 2222TIP3    H2 6544   2.056   0.512   4.832
 2223TIP3   OH2 6545   2.477   0.519   4.881
 2223TIP3    H1 6546   2.567   0.498   4.907
 2223TIP3    H2 6547   2.460   0.463   4.806
 2224TIP3   OH2 6548   3.069   0.393   4.655
 2224TIP3    H1 6549   3.029   0.326   4.711
 2224TIP3    H2 6550   3.147   0.421   4.703
 2225TIP3   OH2 6551   8.623   9.262   5.115
 2225TIP3    H1 6552   8.616   9.245   5.021
 2225TIP3    H2 6553   8.553   9.209   5.154
 2226TIP3   OH2 6554   3.177   0.094   4.411
 2226TIP3    H1 6555   3.257   0.127   4.370
 2226TIP3    H2 6556   3.119   0.171   4.414
 2227TIP3   OH2 6557   8.758   8.919   4.915
 2227TIP3    H1 6558   8.811   8.906   4.993
 2227TIP3    H2 6559   8.678   8.960   4.946
 2228TIP3   OH2 6560   9.146   9.100   4.687
 2228TIP3    H1 6561   9.078   9.034   4.699
 2228TIP3    H2 6562   9.200   9.066   4.616
 2229TIP3   OH2 6563   9.089   8.562   4.792
 2229TIP3    H1 6564   9.134   8.541   4.710
 2229TIP3    H2 6565   9.098   8.657   4.800
 2230TIP3   OH2 6566   9.293   8.971   4.495
 2230TIP3    H1 6567   9.379   9.012   4.481
 2230TIP3    H2 6568   9.237   9.010   4.428
 2231TIP3   OH2 6569   0.064   8.900   4.821
 2231TIP3    H1 6570   0.023   8.865   4.900
 2231TIP3    H2 6571   0.095   8.987   4.846
 2232TIP3   OH2 6572   0.048   9.173   4.588
 2232TIP3    H1 6573  -0.013   9.233   4.544
 2232TIP3    H2 6574   0.134   9.194   4.551
 2233TIP3   OH2 6575   9.069   8.666   5.088
 2233TIP3    H1 6576   9.029   8.580   5.095
 2233TIP3    H2 6577   9.064   8.687   4.995
 2234TIP3   OH2 6578   9.605   8.816   4.948
 2234TIP3    H1 6579   9.514   8.822   4.977
 2234TIP3    H2 6580   9.627   8.724   4.957
 2235TIP3   OH2 6581   3.466   0.595   3.847
 2235TIP3    H1 6582   3.489   0.615   3.938
 2235TIP3    H2 6583   3.520   0.654   3.795
 2236TIP3   OH2 6584   3.497   0.612   4.127
 2236TIP3    H1 6585   3.445   0.532   4.120
 2236TIP3    H2 6586   3.563   0.592   4.193
 2237TIP3   OH2 6587   3.516   0.324   4.719
 2237TIP3    H1 6588   3.447   0.329   4.784
 2237TIP3    H2 6589   3.563   0.407   4.727
 2238TIP3   OH2 6590   0.113   9.082   3.299
 2238TIP3    H1 6591   0.174   9.150   3.270
 2238TIP3    H2 6592   0.156   9.042   3.374
 2239TIP3   OH2 6593   0.227   8.954   3.524
 2239TIP3    H1 6594   0.153   8.936   3.582
 2239TIP3    H2 6595   0.289   9.002   3.578
 2240TIP3   OH2 6596   3.558   0.080   3.906
 2240TIP3    H1 6597   3.567   0.030   3.825
 2240TIP3    H2 6598   3.555   0.171   3.877
 2241TIP3   OH2 6599   3.342   0.386   4.121
 2241TIP3    H1 6600   3.276   0.430   4.175
 2241TIP3    H2 6601   3.292   0.346   4.050
 2242TIP3   OH2 6602   0.023   8.832   3.680
 2242TIP3    H1 6603   0.049   8.740   3.677
 2242TIP3    H2 6604  -0.007   8.845   3.770
 2243TIP3   OH2 6605   0.303   9.222   4.492
 2243TIP3    H1 6606   0.369   9.153   4.488
 2243TIP3    H2 6607   0.336   9.290   4.433
 2244TIP3   OH2 6608   0.478   9.019   4.548
 2244TIP3    H1 6609   0.401   8.976   4.587
 2244TIP3    H2 6610   0.536   9.035   4.622
 2245TIP3   OH2 6611   0.167   8.709   4.053
 2245TIP3    H1 6612   0.226   8.635   4.062
 2245TIP3    H2 6613   0.172   8.755   4.137
 2246TIP3   OH2 6614   0.201   8.852   4.288
 2246TIP3    H1 6615   0.130   8.885   4.344
 2246TIP3    H2 6616   0.242   8.931   4.254
 2247TIP3   OH2 6617   3.058   0.484   3.501
 2247TIP3    H1 6618   3.105   0.480   3.418
 2247TIP3    H2 6619   3.088   0.564   3.542
 2248TIP3   OH2 6620   2.135   0.362   4.751
 2248TIP3    H1 6621   2.073   0.290   4.764
 2248TIP3    H2 6622   2.187   0.363   4.831
 2249TIP3   OH2 6623   2.366   0.356   4.389
 2249TIP3    H1 6624   2.312   0.430   4.361
 2249TIP3    H2 6625   2.445   0.363   4.335
 2250TIP3   OH2 6626   2.721   0.584   4.564
 2250TIP3    H1 6627   2.759   0.564   4.649
 2250TIP3    H2 6628   2.788   0.636   4.519
 2251TIP3   OH2 6629   2.917   0.728   4.435
 2251TIP3    H1 6630   2.974   0.669   4.385
 2251TIP3    H2 6631   2.978   0.783   4.484
 2252TIP3   OH2 6632   2.022   0.641   4.454
 2252TIP3    H1 6633   1.941   0.676   4.417
 2252TIP3    H2 6634   2.034   0.691   4.535
 2253TIP3   OH2 6635   2.244   0.586   4.302
 2253TIP3    H1 6636   2.168   0.609   4.354
 2253TIP3    H2 6637   2.221   0.613   4.213
 2254TIP3   OH2 6638   2.654   0.614   4.086
 2254TIP3    H1 6639   2.579   0.626   4.027
 2254TIP3    H2 6640   2.660   0.697   4.134
 2255TIP3   OH2 6641   2.911   0.533   4.142
 2255TIP3    H1 6642   2.821   0.556   4.120
 2255TIP3    H2 6643   2.964   0.598   4.096
 2256TIP3   OH2 6644   3.116   0.705   4.054
 2256TIP3    H1 6645   3.111   0.791   4.012
 2256TIP3    H2 6646   3.142   0.646   3.984
 2257TIP3   OH2 6647   1.879   0.365   4.126
 2257TIP3    H1 6648   1.927   0.377   4.208
 2257TIP3    H2 6649   1.947   0.353   4.060
 2258TIP3   OH2 6650   2.116   0.345   3.995
 2258TIP3    H1 6651   2.119   0.262   4.042
 2258TIP3    H2 6652   2.208   0.370   3.984
 2259TIP3   OH2 6653   2.398   0.346   4.026
 2259TIP3    H1 6654   2.408   0.253   4.009
 2259TIP3    H2 6655   2.455   0.363   4.101
 2260TIP3   OH2 6656   3.186   0.453   3.253
 2260TIP3    H1 6657   3.174   0.358   3.254
 2260TIP3    H2 6658   3.140   0.482   3.174
 2261TIP3   OH2 6659   3.391   0.585   4.453
 2261TIP3    H1 6660   3.316   0.556   4.401
 2261TIP3    H2 6661   3.378   0.679   4.464
 2262TIP3   OH2 6662   4.672  -0.001   3.201
 2262TIP3    H1 6663   4.643   0.088   3.178
 2262TIP3    H2 6664   4.608  -0.058   3.158
 2263TIP3   OH2 6665   1.381   9.229   3.590
 2263TIP3    H1 6666   1.433   9.207   3.667
 2263TIP3    H2 6667   1.334   9.149   3.569
 2264TIP3   OH2 6668   4.947   0.282   3.285
 2264TIP3    H1 6669   4.919   0.226   3.358
 2264TIP3    H2 6670   4.962   0.367   3.326
 2265TIP3   OH2 6671   3.956   0.270   3.637
 2265TIP3    H1 6672   3.934   0.178   3.648
 2265TIP3    H2 6673   4.051   0.272   3.627
 2266TIP3   OH2 6674   0.304   8.735   3.381
 2266TIP3    H1 6675   0.279   8.814   3.429
 2266TIP3    H2 6676   0.227   8.711   3.330
 2267TIP3   OH2 6677   0.438   9.060   3.674
 2267TIP3    H1 6678   0.486   9.003   3.735
 2267TIP3    H2 6679   0.501   9.128   3.651
 2268TIP3   OH2 6680   4.603   0.702   3.299
 2268TIP3    H1 6681   4.625   0.640   3.229
 2268TIP3    H2 6682   4.616   0.652   3.380
 2269TIP3   OH2 6683   4.469   0.208   3.616
 2269TIP3    H1 6684   4.513   0.129   3.584
 2269TIP3    H2 6685   4.541   0.264   3.647
 2270TIP3   OH2 6686   1.716   8.956   3.697
 2270TIP3    H1 6687   1.722   8.861   3.686
 2270TIP3    H2 6688   1.764   8.992   3.622
 2271TIP3   OH2 6689   0.571   8.846   3.820
 2271TIP3    H1 6690   0.569   8.810   3.731
 2271TIP3    H2 6691   0.515   8.788   3.870
 2272TIP3   OH2 6692   1.004   9.080   3.538
 2272TIP3    H1 6693   1.093   9.045   3.545
 2272TIP3    H2 6694   0.949   9.003   3.532
 2273TIP3   OH2 6695   2.201   8.888   3.777
 2273TIP3    H1 6696   2.200   8.983   3.784
 2273TIP3    H2 6697   2.289   8.863   3.806
 2274TIP3   OH2 6698   4.534   0.196   3.067
 2274TIP3    H1 6699   4.512   0.178   2.976
 2274TIP3    H2 6700   4.491   0.279   3.086
 2275TIP3   OH2 6701   4.315   0.136   3.836
 2275TIP3    H1 6702   4.253   0.205   3.863
 2275TIP3    H2 6703   4.355   0.171   3.757
 2276TIP3   OH2 6704   0.811   8.714   3.741
 2276TIP3    H1 6705   0.896   8.716   3.698
 2276TIP3    H2 6706   0.752   8.677   3.674
 2277TIP3   OH2 6707   4.145   0.331   3.928
 2277TIP3    H1 6708   4.132   0.421   3.899
 2277TIP3    H2 6709   4.064   0.309   3.975
 2278TIP3   OH2 6710   3.546   0.044   3.201
 2278TIP3    H1 6711   3.503   0.065   3.118
 2278TIP3    H2 6712   3.565   0.130   3.240
 2279TIP3   OH2 6713   4.972   0.531   3.421
 2279TIP3    H1 6714   4.883   0.526   3.456
 2279TIP3    H2 6715   4.974   0.614   3.373
 2280TIP3   OH2 6716   4.681   0.556   3.076
 2280TIP3    H1 6717   4.733   0.476   3.066
 2280TIP3    H2 6718   4.742   0.627   3.052
 2281TIP3   OH2 6719   4.840   0.342   3.036
 2281TIP3    H1 6720   4.844   0.268   2.976
 2281TIP3    H2 6721   4.881   0.310   3.116
 2282TIP3   OH2 6722   5.236   0.428   3.757
 2282TIP3    H1 6723   5.210   0.359   3.696
 2282TIP3    H2 6724   5.220   0.509   3.709
 2283TIP3   OH2 6725   1.245   9.081   3.035
 2283TIP3    H1 6726   1.155   9.113   3.029
 2283TIP3    H2 6727   1.281   9.094   2.948
 2284TIP3   OH2 6728   1.187   8.899   2.755
 2284TIP3    H1 6729   1.267   8.946   2.779
 2284TIP3    H2 6730   1.195   8.814   2.798
 2285TIP3   OH2 6731   5.391   0.122   3.614
 2285TIP3    H1 6732   5.302   0.157   3.612
 2285TIP3    H2 6733   5.427   0.140   3.527
 2286TIP3   OH2 6734   1.592   9.163   2.996
 2286TIP3    H1 6735   1.546   9.184   3.077
 2286TIP3    H2 6736   1.673   9.120   3.024
 2287TIP3   OH2 6737   4.920   0.184   3.992
 2287TIP3    H1 6738   4.944   0.241   3.919
 2287TIP3    H2 6739   4.834   0.216   4.020
 2288TIP3   OH2 6740   0.790   9.181   3.393
 2288TIP3    H1 6741   0.754   9.108   3.342
 2288TIP3    H2 6742   0.868   9.146   3.434
 2289TIP3   OH2 6743   4.218   0.313   3.545
 2289TIP3    H1 6744   4.197   0.301   3.453
 2289TIP3    H2 6745   4.306   0.276   3.554
 2290TIP3   OH2 6746   0.902   9.151   3.780
 2290TIP3    H1 6747   0.942   9.136   3.694
 2290TIP3    H2 6748   0.949   9.227   3.814
 2291TIP3   OH2 6749   4.724   0.536   3.538
 2291TIP3    H1 6750   4.715   0.616   3.589
 2291TIP3    H2 6751   4.702   0.466   3.600
 2292TIP3   OH2 6752   4.347   0.426   4.092
 2292TIP3    H1 6753   4.285   0.483   4.139
 2292TIP3    H2 6754   4.292   0.372   4.035
 2293TIP3   OH2 6755   1.423   9.029   2.824
 2293TIP3    H1 6756   1.486   9.072   2.883
 2293TIP3    H2 6757   1.447   9.059   2.737
 2294TIP3   OH2 6758   4.071   0.000   4.185
 2294TIP3    H1 6759   4.084   0.089   4.218
 2294TIP3    H2 6760   3.990  -0.030   4.227
 2295TIP3   OH2 6761   4.426   0.451   3.086
 2295TIP3    H1 6762   4.513   0.491   3.090
 2295TIP3    H2 6763   4.372   0.514   3.038
 2296TIP3   OH2 6764   4.139   0.583   4.181
 2296TIP3    H1 6765   4.117   0.596   4.089
 2296TIP3    H2 6766   4.055   0.571   4.224
 2297TIP3   OH2 6767   0.676   8.997   3.213
 2297TIP3    H1 6768   0.610   9.054   3.174
 2297TIP3    H2 6769   0.632   8.914   3.226
 2298TIP3   OH2 6770   5.027   0.373   2.450
 2298TIP3    H1 6771   5.019   0.465   2.424
 2298TIP3    H2 6772   5.117   0.350   2.428
 2299TIP3   OH2 6773   3.735   0.124   4.127
 2299TIP3    H1 6774   3.675   0.101   4.056
 2299TIP3    H2 6775   3.762   0.041   4.165
 2300TIP3   OH2 6776   3.579   0.341   3.807
 2300TIP3    H1 6777   3.667   0.373   3.828
 2300TIP3    H2 6778   3.522   0.416   3.826
 2301TIP3   OH2 6779   5.448   0.824   3.836
 2301TIP3    H1 6780   5.458   0.728   3.840
 2301TIP3    H2 6781   5.365   0.841   3.881
 2302TIP3   OH2 6782   4.538   0.572   3.960
 2302TIP3    H1 6783   4.531   0.663   3.989
 2302TIP3    H2 6784   4.468   0.526   4.006
 2303TIP3   OH2 6785   4.318   0.660   2.918
 2303TIP3    H1 6786   4.275   0.642   2.835
 2303TIP3    H2 6787   4.282   0.744   2.946
 2304TIP3   OH2 6788   3.762   0.526   3.293
 2304TIP3    H1 6789   3.808   0.521   3.377
 2304TIP3    H2 6790   3.713   0.444   3.287
 2305TIP3   OH2 6791   4.520   0.613   2.559
 2305TIP3    H1 6792   4.566   0.536   2.527
 2305TIP3    H2 6793   4.556   0.628   2.646
 2306TIP3   OH2 6794   4.576   0.650   2.826
 2306TIP3    H1 6795   4.489   0.649   2.865
 2306TIP3    H2 6796   4.632   0.610   2.892
 2307TIP3   OH2 6797   2.100   9.167   4.066
 2307TIP3    H1 6798   2.024   9.225   4.076
 2307TIP3    H2 6799   2.084   9.121   3.984
 2308TIP3   OH2 6800   3.920   0.329   4.092
 2308TIP3    H1 6801   3.972   0.319   4.171
 2308TIP3    H2 6802   3.854   0.260   4.097
 2309TIP3   OH2 6803   1.791   8.915   3.963
 2309TIP3    H1 6804   1.885   8.904   3.976
 2309TIP3    H2 6805   1.783   8.948   3.874
 2310TIP3   OH2 6806   1.494   9.084   2.571
 2310TIP3    H1 6807   1.444   9.070   2.490
 2310TIP3    H2 6808   1.574   9.127   2.543
 2311TIP3   OH2 6809   0.942   8.910   3.909
 2311TIP3    H1 6810   0.992   8.922   3.989
 2311TIP3    H2 6811   0.940   8.997   3.869
 2312TIP3   OH2 6812   0.805   8.897   3.507
 2312TIP3    H1 6813   0.730   8.840   3.524
 2312TIP3    H2 6814   0.858   8.848   3.444
 2313TIP3   OH2 6815   1.448   8.935   3.144
 2313TIP3    H1 6816   1.378   8.975   3.092
 2313TIP3    H2 6817   1.449   8.843   3.117
 2314TIP3   OH2 6818   4.774   0.054   4.205
 2314TIP3    H1 6819   4.781  -0.001   4.283
 2314TIP3    H2 6820   4.864   0.057   4.170
 2315TIP3   OH2 6821   1.486   9.044   3.386
 2315TIP3    H1 6822   1.453   9.133   3.372
 2315TIP3    H2 6823   1.484   9.004   3.299
 2316TIP3   OH2 6824   0.707   8.978   4.047
 2316TIP3    H1 6825   0.732   9.069   4.062
 2316TIP3    H2 6826   0.689   8.943   4.134
 2317TIP3   OH2 6827   1.537   9.138   3.798
 2317TIP3    H1 6828   1.590   9.066   3.763
 2317TIP3    H2 6829   1.505   9.107   3.883
 2318TIP3   OH2 6830   0.565   8.746   3.565
 2318TIP3    H1 6831   0.505   8.800   3.514
 2318TIP3    H2 6832   0.542   8.656   3.542
 2319TIP3   OH2 6833   0.910   8.590   3.184
 2319TIP3    H1 6834   1.002   8.614   3.183
 2319TIP3    H2 6835   0.867   8.655   3.129
 2320TIP3   OH2 6836   0.759   8.758   3.029
 2320TIP3    H1 6837   0.668   8.775   3.052
 2320TIP3    H2 6838   0.754   8.705   2.950
 2321TIP3   OH2 6839   5.151   1.129   3.923
 2321TIP3    H1 6840   5.147   1.145   3.829
 2321TIP3    H2 6841   5.229   1.176   3.952
 2322TIP3   OH2 6842   4.073   0.249   4.321
 2322TIP3    H1 6843   4.156   0.265   4.367
 2322TIP3    H2 6844   4.007   0.253   4.390
 2323TIP3   OH2 6845   1.252   8.971   3.582
 2323TIP3    H1 6846   1.283   8.899   3.526
 2323TIP3    H2 6847   1.258   8.936   3.671
 2324TIP3   OH2 6848   1.273   8.863   3.832
 2324TIP3    H1 6849   1.220   8.790   3.863
 2324TIP3    H2 6850   1.361   8.844   3.863
 2325TIP3   OH2 6851   1.001   9.197   2.980
 2325TIP3    H1 6852   0.924   9.144   2.959
 2325TIP3    H2 6853   0.974   9.248   3.056
 2326TIP3   OH2 6854   5.150   0.247   3.575
 2326TIP3    H1 6855   5.183   0.294   3.499
 2326TIP3    H2 6856   5.061   0.221   3.551
 2327TIP3   OH2 6857   4.688   0.333   4.007
 2327TIP3    H1 6858   4.628   0.259   4.010
 2327TIP3    H2 6859   4.633   0.410   4.014
 2328TIP3   OH2 6860   1.451   8.755   2.859
 2328TIP3    H1 6861   1.533   8.747   2.908
 2328TIP3    H2 6862   1.449   8.847   2.833
 2329TIP3   OH2 6863   0.665   9.226   3.639
 2329TIP3    H1 6864   0.699   9.214   3.551
 2329TIP3    H2 6865   0.736   9.196   3.696
 2330TIP3   OH2 6866   4.418   0.114   2.817
 2330TIP3    H1 6867   4.371   0.198   2.815
 2330TIP3    H2 6868   4.365   0.059   2.874
 2331TIP3   OH2 6869   0.567   9.153   4.292
 2331TIP3    H1 6870   0.615   9.144   4.375
 2331TIP3    H2 6871   0.499   9.086   4.296
 2332TIP3   OH2 6872   4.513   0.076   4.302
 2332TIP3    H1 6873   4.443   0.013   4.281
 2332TIP3    H2 6874   4.577   0.065   4.233
 2333TIP3   OH2 6875   4.811   0.603   3.879
 2333TIP3    H1 6876   4.717   0.587   3.884
 2333TIP3    H2 6877   4.836   0.630   3.968
 2334TIP3   OH2 6878   1.990   8.829   2.865
 2334TIP3    H1 6879   1.982   8.750   2.812
 2334TIP3    H2 6880   1.927   8.890   2.827
 2335TIP3   OH2 6881   5.471   0.551   3.845
 2335TIP3    H1 6882   5.381   0.521   3.856
 2335TIP3    H2 6883   5.499   0.511   3.763
 2336TIP3   OH2 6884   4.939   0.442   2.706
 2336TIP3    H1 6885   4.917   0.366   2.760
 2336TIP3    H2 6886   4.967   0.405   2.623
 2337TIP3   OH2 6887   4.901   0.123   3.514
 2337TIP3    H1 6888   4.812   0.091   3.528
 2337TIP3    H2 6889   4.957   0.046   3.529
 2338TIP3   OH2 6890   4.082   0.329   3.301
 2338TIP3    H1 6891   4.073   0.404   3.242
 2338TIP3    H2 6892   3.993   0.311   3.332
 2339TIP3   OH2 6893   0.440   8.875   2.979
 2339TIP3    H1 6894   0.445   8.968   2.999
 2339TIP3    H2 6895   0.451   8.831   3.063
 2340TIP3   OH2 6896   4.154   0.093   3.182
 2340TIP3    H1 6897   4.150   0.182   3.216
 2340TIP3    H2 6898   4.120   0.039   3.254
 2341TIP3   OH2 6899   4.361   0.640   3.750
 2341TIP3    H1 6900   4.395   0.715   3.701
 2341TIP3    H2 6901   4.435   0.609   3.802
 2342TIP3   OH2 6902   3.992   0.540   3.143
 2342TIP3    H1 6903   3.906   0.547   3.185
 2342TIP3    H2 6904   4.029   0.628   3.151
 2343TIP3   OH2 6905   4.699   0.324   3.724
 2343TIP3    H1 6906   4.693   0.328   3.819
 2343TIP3    H2 6907   4.792   0.306   3.707
 2344TIP3   OH2 6908   4.704   0.175   2.621
 2344TIP3    H1 6909   4.754   0.166   2.702
 2344TIP3    H2 6910   4.624   0.125   2.636
 2345TIP3   OH2 6911   4.971   0.799   3.760
 2345TIP3    H1 6912   4.900   0.739   3.783
 2345TIP3    H2 6913   4.934   0.853   3.689
 2346TIP3   OH2 6914   5.011   0.642   2.402
 2346TIP3    H1 6915   5.017   0.696   2.323
 2346TIP3    H2 6916   4.943   0.685   2.454
 2347TIP3   OH2 6917   4.876   0.144   2.834
 2347TIP3    H1 6918   4.864   0.066   2.888
 2347TIP3    H2 6919   4.969   0.146   2.813
 2348TIP3   OH2 6920   3.786   0.527   3.918
 2348TIP3    H1 6921   3.835   0.467   3.973
 2348TIP3    H2 6922   3.802   0.613   3.956
 2349TIP3   OH2 6923   4.057   0.138   2.606
 2349TIP3    H1 6924   4.068   0.047   2.578
 2349TIP3    H2 6925   4.042   0.133   2.700
 2350TIP3   OH2 6926   4.005   0.162   2.881
 2350TIP3    H1 6927   4.058   0.129   2.953
 2350TIP3    H2 6928   4.009   0.257   2.890
 2351TIP3   OH2 6929   0.476   9.132   3.085
 2351TIP3    H1 6930   0.411   9.177   3.139
 2351TIP3    H2 6931   0.490   9.191   3.010
 2352TIP3   OH2 6932   4.273   0.343   2.818
 2352TIP3    H1 6933   4.190   0.367   2.860
 2352TIP3    H2 6934   4.296   0.419   2.765
 2353TIP3   OH2 6935   1.182   8.591   3.205
 2353TIP3    H1 6936   1.213   8.675   3.240
 2353TIP3    H2 6937   1.224   8.525   3.260
 2354TIP3   OH2 6938   1.453   9.073   4.052
 2354TIP3    H1 6939   1.463   9.155   4.101
 2354TIP3    H2 6940   1.505   9.010   4.103
 2355TIP3   OH2 6941   4.020   0.435   2.893
 2355TIP3    H1 6942   4.004   0.510   2.836
 2355TIP3    H2 6943   4.010   0.470   2.982
 2356TIP3   OH2 6944   1.753   9.035   3.356
 2356TIP3    H1 6945   1.659   9.047   3.374
 2356TIP3    H2 6946   1.796   9.095   3.417
 2357TIP3   OH2 6947   3.749   0.055   2.858
 2357TIP3    H1 6948   3.824   0.113   2.870
 2357TIP3    H2 6949   3.780  -0.011   2.796
 2358TIP3   OH2 6950   4.997   0.795   3.335
 2358TIP3    H1 6951   4.954   0.849   3.268
 2358TIP3    H2 6952   5.091   0.808   3.321
 2359TIP3   OH2 6953   3.588   0.309   3.282
 2359TIP3    H1 6954   3.542   0.347   3.357
 2359TIP3    H2 6955   3.544   0.347   3.206
 2360TIP3   OH2 6956   3.795   0.838   4.340
 2360TIP3    H1 6957   3.875   0.849   4.393
 2360TIP3    H2 6958   3.791   0.745   4.321
 2361TIP3   OH2 6959   4.251   0.743   4.376
 2361TIP3    H1 6960   4.342   0.715   4.385
 2361TIP3    H2 6961   4.216   0.690   4.304
 2362TIP3   OH2 6962   4.218   0.339   2.505
 2362TIP3    H1 6963   4.171   0.268   2.549
 2362TIP3    H2 6964   4.293   0.296   2.463
 2363TIP3   OH2 6965   4.873   0.688   4.132
 2363TIP3    H1 6966   4.884   0.623   4.202
 2363TIP3    H2 6967   4.945   0.749   4.144
 2364TIP3   OH2 6968   4.637   0.389   2.463
 2364TIP3    H1 6969   4.675   0.324   2.523
 2364TIP3    H2 6970   4.699   0.394   2.391
 2365TIP3   OH2 6971   3.889   0.264   4.529
 2365TIP3    H1 6972   3.914   0.194   4.589
 2365TIP3    H2 6973   3.803   0.238   4.497
 2366TIP3   OH2 6974   0.631   9.114   2.720
 2366TIP3    H1 6975   0.676   9.089   2.801
 2366TIP3    H2 6976   0.697   9.105   2.652
 2367TIP3   OH2 6977   4.500   0.349   4.305
 2367TIP3    H1 6978   4.455   0.369   4.223
 2367TIP3    H2 6979   4.514   0.255   4.303
 2368TIP3   OH2 6980   4.441   0.034   2.558
 2368TIP3    H1 6981   4.424   0.057   2.649
 2368TIP3    H2 6982   4.416  -0.058   2.551
 2369TIP3   OH2 6983   4.964   0.381   3.811
 2369TIP3    H1 6984   5.055   0.411   3.803
 2369TIP3    H2 6985   4.914   0.459   3.832
 2370TIP3   OH2 6986   0.747   9.152   4.506
 2370TIP3    H1 6987   0.772   9.069   4.546
 2370TIP3    H2 6988   0.760   9.217   4.575
 2371TIP3   OH2 6989   0.779   9.041   2.941
 2371TIP3    H1 6990   0.754   9.006   3.027
 2371TIP3    H2 6991   0.815   8.965   2.894
 2372TIP3   OH2 6992   1.053   9.129   4.216
 2372TIP3    H1 6993   0.967   9.168   4.206
 2372TIP3    H2 6994   1.088   9.123   4.127
 2373TIP3   OH2 6995   0.915   8.865   2.782
 2373TIP3    H1 6996   0.908   8.802   2.711
 2373TIP3    H2 6997   1.007   8.893   2.780
 2374TIP3   OH2 6998   4.913   0.263   4.332
 2374TIP3    H1 6999   4.844   0.227   4.277
 2374TIP3    H2 7000   4.914   0.207   4.410
 2375TIP3   OH2 7001   1.722   9.149   2.432
 2375TIP3    H1 7002   1.713   9.102   2.349
 2375TIP3    H2 7003   1.689   9.237   2.413
 2376TIP3   OH2 7004   1.082   8.851   4.145
 2376TIP3    H1 7005   1.173   8.823   4.136
 2376TIP3    H2 7006   1.086   8.932   4.195
 2377TIP3   OH2 7007   4.554   0.104   3.970
 2377TIP3    H1 7008   4.602   0.046   3.910
 2377TIP3    H2 7009   4.463   0.101   3.938
 2378TIP3   OH2 7010   1.832   9.117   4.554
 2378TIP3    H1 7011   1.755   9.061   4.562
 2378TIP3    H2 7012   1.825   9.155   4.466
 2379TIP3   OH2 7013   5.167   0.113   4.069
 2379TIP3    H1 7014   5.079   0.150   4.063
 2379TIP3    H2 7015   5.225   0.182   4.035
 2380TIP3   OH2 7016   1.505   9.112   4.408
 2380TIP3    H1 7017   1.419   9.121   4.449
 2380TIP3    H2 7018   1.545   9.038   4.453
 2381TIP3   OH2 7019   4.007   0.636   2.707
 2381TIP3    H1 7020   4.098   0.620   2.682
 2381TIP3    H2 7021   3.972   0.691   2.638
 2382TIP3   OH2 7022   3.482   0.039   2.921
 2382TIP3    H1 7023   3.572   0.057   2.893
 2382TIP3    H2 7024   3.470  -0.055   2.906
 2383TIP3   OH2 7025   3.382   0.615   3.356
 2383TIP3    H1 7026   3.318   0.560   3.310
 2383TIP3    H2 7027   3.425   0.556   3.418
 2384TIP3   OH2 7028   3.523   0.448   3.527
 2384TIP3    H1 7029   3.510   0.378   3.591
 2384TIP3    H2 7030   3.580   0.511   3.571
 2385TIP3   OH2 7031   5.267   0.847   3.326
 2385TIP3    H1 7032   5.288   0.879   3.414
 2385TIP3    H2 7033   5.324   0.898   3.268
 2386TIP3   OH2 7034   5.284   0.884   3.606
 2386TIP3    H1 7035   5.242   0.798   3.603
 2386TIP3    H2 7036   5.356   0.873   3.669
 2387TIP3   OH2 7037   5.330   0.594   4.164
 2387TIP3    H1 7038   5.265   0.602   4.234
 2387TIP3    H2 7039   5.381   0.675   4.170
 2388TIP3   OH2 7040   5.144   0.143   2.787
 2388TIP3    H1 7041   5.210   0.206   2.757
 2388TIP3    H2 7042   5.184   0.101   2.863
 2389TIP3   OH2 7043   1.988   9.251   2.998
 2389TIP3    H1 7044   1.932   9.187   3.043
 2389TIP3    H2 7045   2.055   9.273   3.062
 2390TIP3   OH2 7046   5.343   0.374   3.419
 2390TIP3    H1 7047   5.395   0.309   3.372
 2390TIP3    H2 7048   5.343   0.450   3.362
 2391TIP3   OH2 7049   5.146   0.642   3.613
 2391TIP3    H1 7050   5.079   0.691   3.661
 2391TIP3    H2 7051   5.098   0.601   3.541
 2392TIP3   OH2 7052   1.924   9.181   2.607
 2392TIP3    H1 7053   1.858   9.182   2.538
 2392TIP3    H2 7054   1.903   9.258   2.661
 2393TIP3   OH2 7055   1.843   8.773   2.476
 2393TIP3    H1 7056   1.751   8.799   2.475
 2393TIP3    H2 7057   1.861   8.750   2.567
 2394TIP3   OH2 7058   1.827   9.043   3.099
 2394TIP3    H1 7059   1.872   8.959   3.092
 2394TIP3    H2 7060   1.800   9.049   3.190
 2395TIP3   OH2 7061   5.359   0.260   3.941
 2395TIP3    H1 7062   5.432   0.213   3.899
 2395TIP3    H2 7063   5.325   0.316   3.872
 2396TIP3   OH2 7064   5.581   0.073   3.968
 2396TIP3    H1 7065   5.515   0.037   4.026
 2396TIP3    H2 7066   5.638   0.125   4.026
 2397TIP3   OH2 7067   1.681   8.731   2.991
 2397TIP3    H1 7068   1.738   8.658   3.014
 2397TIP3    H2 7069   1.739   8.796   2.954
 2398TIP3   OH2 7070   2.014   8.954   3.552
 2398TIP3    H1 7071   2.069   8.995   3.486
 2398TIP3    H2 7072   2.073   8.937   3.625
 2399TIP3   OH2 7073   2.090   9.140   3.777
 2399TIP3    H1 7074   1.999   9.160   3.796
 2399TIP3    H2 7075   2.118   9.209   3.717
 2400TIP3   OH2 7076   4.825   0.763   2.980
 2400TIP3    H1 7077   4.878   0.749   2.902
 2400TIP3    H2 7078   4.869   0.835   3.026
 2401TIP3   OH2 7079   3.907   0.563   4.337
 2401TIP3    H1 7080   3.816   0.534   4.335
 2401TIP3    H2 7081   3.936   0.543   4.426
 2402TIP3   OH2 7082   4.132   0.607   3.900
 2402TIP3    H1 7083   4.082   0.682   3.869
 2402TIP3    H2 7084   4.216   0.613   3.855
 2403TIP3   OH2 7085   4.527   0.836   4.041
 2403TIP3    H1 7086   4.565   0.830   4.128
 2403TIP3    H2 7087   4.588   0.890   3.991
 2404TIP3   OH2 7088   4.718   0.989   3.915
 2404TIP3    H1 7089   4.779   0.937   3.862
 2404TIP3    H2 7090   4.775   1.045   3.968
 2405TIP3   OH2 7091   3.791   0.836   3.952
 2405TIP3    H1 7092   3.700   0.852   3.929
 2405TIP3    H2 7093   3.812   0.904   4.016
 2406TIP3   OH2 7094   4.021   0.837   3.800
 2406TIP3    H1 7095   3.938   0.838   3.847
 2406TIP3    H2 7096   3.999   0.859   3.710
 2407TIP3   OH2 7097   4.433   0.855   3.591
 2407TIP3    H1 7098   4.360   0.864   3.529
 2407TIP3    H2 7099   4.441   0.941   3.631
 2408TIP3   OH2 7100   4.696   0.791   3.637
 2408TIP3    H1 7101   4.605   0.812   3.617
 2408TIP3    H2 7102   4.747   0.856   3.590
 2409TIP3   OH2 7103   4.899   0.955   3.537
 2409TIP3    H1 7104   4.902   1.043   3.498
 2409TIP3    H2 7105   4.930   0.898   3.467
 2410TIP3   OH2 7106   3.703   0.619   3.667
 2410TIP3    H1 7107   3.727   0.593   3.756
 2410TIP3    H2 7108   3.776   0.588   3.613
 2411TIP3   OH2 7109   3.909   0.513   3.525
 2411TIP3    H1 7110   3.918   0.428   3.568
 2411TIP3    H2 7111   3.996   0.551   3.529
 2412TIP3   OH2 7112   4.176   0.590   3.548
 2412TIP3    H1 7113   4.193   0.497   3.533
 2412TIP3    H2 7114   4.232   0.613   3.622
 2413TIP3   OH2 7115   3.476   0.410   3.054
 2413TIP3    H1 7116   3.393   0.367   3.030
 2413TIP3    H2 7117   3.467   0.499   3.019
 2414TIP3   OH2 7118   4.265   0.569   2.647
 2414TIP3    H1 7119   4.349   0.600   2.613
 2414TIP3    H2 7120   4.243   0.495   2.591
 2415TIP3   OH2 7121   4.970   0.710   2.750
 2415TIP3    H1 7122   4.964   0.614   2.741
 2415TIP3    H2 7123   4.928   0.744   2.671
 2416TIP3   OH2 7124   3.579   0.393   2.703
 2416TIP3    H1 7125   3.574   0.391   2.799
 2416TIP3    H2 7126   3.663   0.352   2.682
 2417TIP3   OH2 7127   5.188   0.856   3.928
 2417TIP3    H1 7128   5.116   0.825   3.874
 2417TIP3    H2 7129   5.174   0.951   3.936
 2418TIP3   OH2 7130   6.445   0.249   3.030
 2418TIP3    H1 7131   6.471   0.228   3.120
 2418TIP3    H2 7132   6.457   0.167   2.982
 2419TIP3   OH2 7133   5.782   0.144   3.402
 2419TIP3    H1 7134   5.817   0.074   3.457
 2419TIP3    H2 7135   5.840   0.219   3.418
 2420TIP3   OH2 7136   5.752   0.542   3.150
 2420TIP3    H1 7137   5.731   0.448   3.153
 2420TIP3    H2 7138   5.846   0.545   3.130
 2421TIP3   OH2 7139   2.131   9.004   3.033
 2421TIP3    H1 7140   2.117   9.094   3.001
 2421TIP3    H2 7141   2.093   8.949   2.965
 2422TIP3   OH2 7142   5.510   0.042   3.119
 2422TIP3    H1 7143   5.565  -0.033   3.144
 2422TIP3    H2 7144   5.565   0.092   3.058
 2423TIP3   OH2 7145   6.370   0.918   2.778
 2423TIP3    H1 7146   6.441   0.864   2.812
 2423TIP3    H2 7147   6.318   0.942   2.855
 2424TIP3   OH2 7148   6.261   0.452   3.097
 2424TIP3    H1 7149   6.300   0.376   3.054
 2424TIP3    H2 7150   6.335   0.508   3.121
 2425TIP3   OH2 7151   6.712   0.001   3.127
 2425TIP3    H1 7152   6.798   0.001   3.170
 2425TIP3    H2 7153   6.725   0.054   3.048
 2426TIP3   OH2 7154   2.384   9.062   3.231
 2426TIP3    H1 7155   2.458   9.030   3.282
 2426TIP3    H2 7156   2.388   9.014   3.148
 2427TIP3   OH2 7157   6.046   0.113   2.972
 2427TIP3    H1 7158   6.093   0.085   2.894
 2427TIP3    H2 7159   5.982   0.043   2.988
 2428TIP3   OH2 7160   4.023   9.136   3.285
 2428TIP3    H1 7161   4.044   9.229   3.294
 2428TIP3    H2 7162   4.106   9.091   3.294
 2429TIP3   OH2 7163   6.399   0.525   2.464
 2429TIP3    H1 7164   6.364   0.444   2.502
 2429TIP3    H2 7165   6.352   0.595   2.508
 2430TIP3   OH2 7166   6.105   0.380   3.316
 2430TIP3    H1 7167   6.047   0.450   3.347
 2430TIP3    H2 7168   6.146   0.416   3.238
 2431TIP3   OH2 7169   5.948   0.584   3.414
 2431TIP3    H1 7170   5.938   0.671   3.376
 2431TIP3    H2 7171   5.870   0.571   3.467
 2432TIP3   OH2 7172   5.339   0.301   2.673
 2432TIP3    H1 7173   5.309   0.316   2.583
 2432TIP3    H2 7174   5.360   0.388   2.706
 2433TIP3   OH2 7175   6.785   0.808   2.940
 2433TIP3    H1 7176   6.694   0.779   2.946
 2433TIP3    H2 7177   6.782   0.884   2.883
 2434TIP3   OH2 7178   7.016   0.673   3.259
 2434TIP3    H1 7179   6.997   0.608   3.191
 2434TIP3    H2 7180   7.001   0.757   3.216
 2435TIP3   OH2 7181   2.915   9.212   2.248
 2435TIP3    H1 7182   2.939   9.279   2.312
 2435TIP3    H2 7183   2.988   9.150   2.250
 2436TIP3   OH2 7184   7.191   0.354   3.105
 2436TIP3    H1 7185   7.100   0.384   3.105
 2436TIP3    H2 7186   7.220   0.365   3.015
 2437TIP3   OH2 7187   6.673   0.178   2.496
 2437TIP3    H1 7188   6.614   0.136   2.559
 2437TIP3    H2 7189   6.761   0.153   2.525
 2438TIP3   OH2 7190   6.804   0.304   3.366
 2438TIP3    H1 7191   6.804   0.399   3.359
 2438TIP3    H2 7192   6.725   0.276   3.320
 2439TIP3   OH2 7193   5.802   0.208   2.889
 2439TIP3    H1 7194   5.783   0.144   2.821
 2439TIP3    H2 7195   5.896   0.199   2.905
 2440TIP3   OH2 7196   6.010   0.574   3.042
 2440TIP3    H1 7197   5.979   0.562   2.952
 2440TIP3    H2 7198   6.096   0.531   3.043
 2441TIP3   OH2 7199   6.078   0.117   3.237
 2441TIP3    H1 7200   6.059   0.136   3.145
 2441TIP3    H2 7201   6.081   0.203   3.279
 2442TIP3   OH2 7202   6.515   0.776   2.999
 2442TIP3    H1 7203   6.511   0.854   3.054
 2442TIP3    H2 7204   6.506   0.703   3.060
 2443TIP3   OH2 7205   6.148   0.685   3.576
 2443TIP3    H1 7206   6.087   0.744   3.620
 2443TIP3    H2 7207   6.093   0.632   3.519
 2444TIP3   OH2 7208   6.510   0.151   2.270
 2444TIP3    H1 7209   6.580   0.146   2.335
 2444TIP3    H2 7210   6.429   0.144   2.320
 2445TIP3   OH2 7211   5.893   0.269   3.683
 2445TIP3    H1 7212   5.899   0.354   3.727
 2445TIP3    H2 7213   5.802   0.243   3.694
 2446TIP3   OH2 7214   6.274   0.744   2.574
 2446TIP3    H1 7215   6.304   0.804   2.643
 2446TIP3    H2 7216   6.207   0.793   2.527
 2447TIP3   OH2 7217   5.943   0.841   3.667
 2447TIP3    H1 7218   5.914   0.851   3.576
 2447TIP3    H2 7219   5.862   0.823   3.716
 2448TIP3   OH2 7220   5.755   0.022   2.692
 2448TIP3    H1 7221   5.677   0.060   2.651
 2448TIP3    H2 7222   5.750  -0.072   2.671
 2449TIP3   OH2 7223   6.774   0.639   1.938
 2449TIP3    H1 7224   6.787   0.732   1.919
 2449TIP3    H2 7225   6.786   0.595   1.854
 2450TIP3   OH2 7226   5.538   0.416   3.618
 2450TIP3    H1 7227   5.469   0.400   3.553
 2450TIP3    H2 7228   5.572   0.329   3.637
 2451TIP3   OH2 7229   5.387   0.599   3.269
 2451TIP3    H1 7230   5.479   0.621   3.278
 2451TIP3    H2 7231   5.340   0.678   3.297
 2452TIP3   OH2 7232   7.237   1.064   3.322
 2452TIP3    H1 7233   7.245   0.969   3.328
 2452TIP3    H2 7234   7.155   1.084   3.366
 2453TIP3   OH2 7235   6.343   0.820   3.439
 2453TIP3    H1 7236   6.340   0.911   3.469
 2453TIP3    H2 7237   6.274   0.776   3.488
 2454TIP3   OH2 7238   6.133   0.925   2.411
 2454TIP3    H1 7239   6.093   0.899   2.327
 2454TIP3    H2 7240   6.093   1.010   2.431
 2455TIP3   OH2 7241   5.556   0.780   2.778
 2455TIP3    H1 7242   5.604   0.770   2.860
 2455TIP3    H2 7243   5.510   0.697   2.767
 2456TIP3   OH2 7244   6.321   0.855   2.037
 2456TIP3    H1 7245   6.365   0.778   2.003
 2456TIP3    H2 7246   6.358   0.867   2.124
 2457TIP3   OH2 7247   6.387   0.890   2.301
 2457TIP3    H1 7248   6.306   0.887   2.353
 2457TIP3    H2 7249   6.456   0.901   2.366
 2458TIP3   OH2 7250   7.145   0.231   3.594
 2458TIP3    H1 7251   7.051   0.232   3.608
 2458TIP3    H2 7252   7.155   0.197   3.505
 2459TIP3   OH2 7253   5.733   0.606   3.584
 2459TIP3    H1 7254   5.782   0.598   3.666
 2459TIP3    H2 7255   5.663   0.542   3.592
 2460TIP3   OH2 7256   6.844   0.167   3.605
 2460TIP3    H1 7257   6.844   0.074   3.585
 2460TIP3    H2 7258   6.840   0.210   3.519
 2461TIP3   OH2 7259   2.596   9.150   2.996
 2461TIP3    H1 7260   2.533   9.078   3.002
 2461TIP3    H2 7261   2.646   9.132   2.916
 2462TIP3   OH2 7262   6.492   0.016   2.620
 2462TIP3    H1 7263   6.420   0.063   2.578
 2462TIP3    H2 7264   6.524  -0.043   2.552
 2463TIP3   OH2 7265   6.602   0.273   3.710
 2463TIP3    H1 7266   6.581   0.187   3.747
 2463TIP3    H2 7267   6.680   0.257   3.656
 2464TIP3   OH2 7268   6.534   0.017   2.885
 2464TIP3    H1 7269   6.524   0.045   2.794
 2464TIP3    H2 7270   6.612  -0.038   2.886
 2465TIP3   OH2 7271   2.616   9.220   3.599
 2465TIP3    H1 7272   2.628   9.295   3.658
 2465TIP3    H2 7273   2.560   9.160   3.647
 2466TIP3   OH2 7274   6.569   0.185   3.269
 2466TIP3    H1 7275   6.614   0.116   3.220
 2466TIP3    H2 7276   6.551   0.146   3.354
 2467TIP3   OH2 7277   2.415   8.943   2.987
 2467TIP3    H1 7278   2.353   8.984   2.926
 2467TIP3    H2 7279   2.458   8.875   2.935
 2468TIP3   OH2 7280   2.706   8.888   2.641
 2468TIP3    H1 7281   2.795   8.908   2.610
 2468TIP3    H2 7282   2.651   8.955   2.601
 2469TIP3   OH2 7283   2.470   9.012   2.550
 2469TIP3    H1 7284   2.476   8.935   2.494
 2469TIP3    H2 7285   2.479   9.087   2.490
 2470TIP3   OH2 7286   6.945   1.384   3.410
 2470TIP3    H1 7287   6.941   1.400   3.315
 2470TIP3    H2 7288   7.025   1.429   3.437
 2471TIP3   OH2 7289   5.889   0.513   3.818
 2471TIP3    H1 7290   5.971   0.531   3.865
 2471TIP3    H2 7291   5.821   0.527   3.884
 2472TIP3   OH2 7292   3.049   9.194   3.084
 2472TIP3    H1 7293   3.039   9.193   2.988
 2472TIP3    H2 7294   3.134   9.154   3.099
 2473TIP3   OH2 7295   6.945   0.486   3.077
 2473TIP3    H1 7296   6.972   0.534   2.998
 2473TIP3    H2 7297   6.862   0.446   3.053
 2474TIP3   OH2 7298   6.463   0.549   3.460
 2474TIP3    H1 7299   6.518   0.556   3.537
 2474TIP3    H2 7300   6.417   0.633   3.455
 2475TIP3   OH2 7301   3.338   9.082   2.441
 2475TIP3    H1 7302   3.419   9.075   2.392
 2475TIP3    H2 7303   3.270   9.052   2.380
 2476TIP3   OH2 7304   5.727   0.266   3.145
 2476TIP3    H1 7305   5.754   0.245   3.056
 2476TIP3    H2 7306   5.767   0.197   3.199
 2477TIP3   OH2 7307   6.223   0.378   2.255
 2477TIP3    H1 7308   6.171   0.451   2.290
 2477TIP3    H2 7309   6.230   0.316   2.328
 2478TIP3   OH2 7310   5.638   0.174   3.722
 2478TIP3    H1 7311   5.639   0.141   3.812
 2478TIP3    H2 7312   5.561   0.133   3.682
 2479TIP3   OH2 7313   6.340   0.343   3.765
 2479TIP3    H1 7314   6.274   0.284   3.730
 2479TIP3    H2 7315   6.420   0.321   3.718
 2480TIP3   OH2 7316   6.616   0.824   3.366
 2480TIP3    H1 7317   6.521   0.821   3.369
 2480TIP3    H2 7318   6.641   0.868   3.448
 2481TIP3   OH2 7319   7.259   0.790   3.339
 2481TIP3    H1 7320   7.169   0.761   3.351
 2481TIP3    H2 7321   7.285   0.753   3.255
 2482TIP3   OH2 7322   6.720   0.649   2.211
 2482TIP3    H1 7323   6.792   0.600   2.250
 2482TIP3    H2 7324   6.738   0.650   2.117
 2483TIP3   OH2 7325   6.704   0.358   3.009
 2483TIP3    H1 7326   6.610   0.340   3.004
 2483TIP3    H2 7327   6.744   0.295   2.950
 2484TIP3   OH2 7328   5.886   0.580   2.798
 2484TIP3    H1 7329   5.868   0.653   2.739
 2484TIP3    H2 7330   5.824   0.512   2.772
 2485TIP3   OH2 7331   2.170   9.112   2.529
 2485TIP3    H1 7332   2.217   9.196   2.527
 2485TIP3    H2 7333   2.081   9.136   2.555
 2486TIP3   OH2 7334   6.160   0.899   3.234
 2486TIP3    H1 7335   6.197   0.970   3.183
 2486TIP3    H2 7336   6.235   0.865   3.284
 2487TIP3   OH2 7337   5.793   0.792   2.637
 2487TIP3    H1 7338   5.705   0.800   2.676
 2487TIP3    H2 7339   5.829   0.881   2.641
 2488TIP3   OH2 7340   6.508   0.557   3.180
 2488TIP3    H1 7341   6.504   0.548   3.276
 2488TIP3    H2 7342   6.586   0.507   3.155
 2489TIP3   OH2 7343   6.479   0.426   2.167
 2489TIP3    H1 7344   6.512   0.338   2.184
 2489TIP3    H2 7345   6.383   0.417   2.169
 2490TIP3   OH2 7346   6.751   1.062   3.261
 2490TIP3    H1 7347   6.684   0.994   3.264
 2490TIP3    H2 7348   6.728   1.114   3.184
 2491TIP3   OH2 7349   6.809   0.905   1.883
 2491TIP3    H1 7350   6.814   0.958   1.803
 2491TIP3    H2 7351   6.741   0.948   1.935
 2492TIP3   OH2 7352   6.668   0.419   2.383
 2492TIP3    H1 7353   6.664   0.336   2.430
 2492TIP3    H2 7354   6.758   0.424   2.350
 2493TIP3   OH2 7355   5.584   0.802   3.404
 2493TIP3    H1 7356   5.641   0.745   3.456
 2493TIP3    H2 7357   5.600   0.890   3.438
 2494TIP3   OH2 7358   5.847   0.415   2.106
 2494TIP3    H1 7359   5.864   0.327   2.074
 2494TIP3    H2 7360   5.834   0.405   2.200
 2495TIP3   OH2 7361   5.799   0.421   2.379
 2495TIP3    H1 7362   5.878   0.398   2.426
 2495TIP3    H2 7363   5.797   0.517   2.380
 2496TIP3   OH2 7364   5.533   0.128   2.571
 2496TIP3    H1 7365   5.471   0.178   2.624
 2496TIP3    H2 7366   5.548   0.183   2.494
 2497TIP3   OH2 7367   6.074   0.598   2.323
 2497TIP3    H1 7368   5.990   0.627   2.357
 2497TIP3    H2 7369   6.099   0.665   2.259
 2498TIP3   OH2 7370   2.966   8.849   2.822
 2498TIP3    H1 7371   2.986   8.812   2.736
 2498TIP3    H2 7372   3.009   8.934   2.823
 2499TIP3   OH2 7373   6.555   0.060   3.507
 2499TIP3    H1 7374   6.502   0.075   3.585
 2499TIP3    H2 7375   6.634   0.016   3.540
 2500TIP3   OH2 7376   5.822   0.693   2.384
 2500TIP3    H1 7377   5.801   0.764   2.324
 2500TIP3    H2 7378   5.810   0.731   2.471
 2501TIP3   OH2 7379   6.824   0.118   2.872
 2501TIP3    H1 7380   6.817   0.022   2.870
 2501TIP3    H2 7381   6.887   0.136   2.942
 2502TIP3   OH2 7382   5.556   0.294   2.348
 2502TIP3    H1 7383   5.631   0.352   2.363
 2502TIP3    H2 7384   5.586   0.232   2.282
 2503TIP3   OH2 7385   2.185   8.830   2.519
 2503TIP3    H1 7386   2.192   8.925   2.528
 2503TIP3    H2 7387   2.147   8.800   2.601
 2504TIP3   OH2 7388   6.789   1.058   2.821
 2504TIP3    H1 7389   6.743   1.095   2.746
 2504TIP3    H2 7390   6.882   1.071   2.802
 2505TIP3   OH2 7391   5.377   0.565   2.752
 2505TIP3    H1 7392   5.337   0.603   2.830
 2505TIP3    H2 7393   5.331   0.607   2.679
 2506TIP3   OH2 7394   5.573   1.092   3.827
 2506TIP3    H1 7395   5.656   1.088   3.875
 2506TIP3    H2 7396   5.542   1.001   3.826
 2507TIP3   OH2 7397   6.043   1.000   3.868
 2507TIP3    H1 7398   6.135   0.975   3.882
 2507TIP3    H2 7399   6.015   0.947   3.793
 2508TIP3   OH2 7400   6.013   0.612   2.011
 2508TIP3    H1 7401   5.962   0.540   2.048
 2508TIP3    H2 7402   6.082   0.570   1.961
 2509TIP3   OH2 7403   6.671   0.944   3.606
 2509TIP3    H1 7404   6.678   0.882   3.679
 2509TIP3    H2 7405   6.741   1.007   3.621
 2510TIP3   OH2 7406   6.446   0.633   1.940
 2510TIP3    H1 7407   6.501   0.573   1.991
 2510TIP3    H2 7408   6.493   0.645   1.858
 2511TIP3   OH2 7409   5.687   0.516   4.011
 2511TIP3    H1 7410   5.703   0.422   4.013
 2511TIP3    H2 7411   5.605   0.526   3.963
 2512TIP3   OH2 7412   5.675   0.105   2.190
 2512TIP3    H1 7413   5.715   0.055   2.261
 2512TIP3    H2 7414   5.747   0.119   2.128
 2513TIP3   OH2 7415   6.300   0.612   3.790
 2513TIP3    H1 7416   6.255   0.633   3.708
 2513TIP3    H2 7417   6.325   0.520   3.780
 2514TIP3   OH2 7418   6.188   0.305   1.995
 2514TIP3    H1 7419   6.192   0.319   2.089
 2514TIP3    H2 7420   6.173   0.211   1.985
 2515TIP3   OH2 7421   6.775   0.591   3.375
 2515TIP3    H1 7422   6.856   0.625   3.336
 2515TIP3    H2 7423   6.712   0.662   3.367
 2516TIP3   OH2 7424   5.788   0.256   4.017
 2516TIP3    H1 7425   5.859   0.208   3.977
 2516TIP3    H2 7426   5.824   0.287   4.101
 2517TIP3   OH2 7427   2.549   9.227   2.397
 2517TIP3    H1 7428   2.581   9.272   2.475
 2517TIP3    H2 7429   2.627   9.185   2.360
 2518TIP3   OH2 7430   6.150   0.180   3.651
 2518TIP3    H1 7431   6.061   0.213   3.658
 2518TIP3    H2 7432   6.182   0.213   3.567
 2519TIP3   OH2 7433   2.728   9.011   2.228
 2519TIP3    H1 7434   2.769   8.953   2.163
 2519TIP3    H2 7435   2.787   9.086   2.233
 2520TIP3   OH2 7436   6.669   0.532   3.758
 2520TIP3    H1 7437   6.754   0.526   3.715
 2520TIP3    H2 7438   6.634   0.443   3.755
 2521TIP3   OH2 7439   2.966   9.163   3.639
 2521TIP3    H1 7440   2.915   9.116   3.705
 2521TIP3    H2 7441   2.935   9.253   3.643
 2522TIP3   OH2 7442   6.316   0.260   3.442
 2522TIP3    H1 7443   6.394   0.313   3.431
 2522TIP3    H2 7444   6.248   0.306   3.394
 2523TIP3   OH2 7445   6.897   0.505   3.607
 2523TIP3    H1 7446   6.839   0.535   3.537
 2523TIP3    H2 7447   6.982   0.495   3.566
 2524TIP3   OH2 7448   6.024   0.113   3.978
 2524TIP3    H1 7449   6.016   0.046   4.046
 2524TIP3    H2 7450   6.107   0.156   3.996
 2525TIP3   OH2 7451   3.285   9.258   3.786
 2525TIP3    H1 7452   3.274   9.230   3.877
 2525TIP3    H2 7453   3.323   9.181   3.742
 2526TIP3   OH2 7454   5.809   0.903   2.206
 2526TIP3    H1 7455   5.901   0.889   2.185
 2526TIP3    H2 7456   5.774   0.949   2.129
 2527TIP3   OH2 7457   5.286   0.290   2.396
 2527TIP3    H1 7458   5.378   0.310   2.379
 2527TIP3    H2 7459   5.273   0.202   2.361
 2528TIP3   OH2 7460   5.177   0.865   2.839
 2528TIP3    H1 7461   5.113   0.810   2.795
 2528TIP3    H2 7462   5.224   0.804   2.898
 2529TIP3   OH2 7463   5.325   0.698   3.004
 2529TIP3    H1 7464   5.319   0.629   3.070
 2529TIP3    H2 7465   5.379   0.766   3.044
 2530TIP3   OH2 7466   7.062   1.101   2.814
 2530TIP3    H1 7467   7.083   1.131   2.903
 2530TIP3    H2 7468   7.121   1.151   2.757
 2531TIP3   OH2 7469   7.082   1.144   3.094
 2531TIP3    H1 7470   7.037   1.059   3.097
 2531TIP3    H2 7471   7.155   1.134   3.155
 2532TIP3   OH2 7472   7.113   0.853   3.655
 2532TIP3    H1 7473   7.046   0.857   3.723
 2532TIP3    H2 7474   7.164   0.933   3.668
 2533TIP3   OH2 7475   6.917   0.452   2.290
 2533TIP3    H1 7476   6.989   0.490   2.239
 2533TIP3    H2 7477   6.958   0.386   2.345
 2534TIP3   OH2 7478   7.039   0.276   2.458
 2534TIP3    H1 7479   7.000   0.204   2.508
 2534TIP3    H2 7480   7.126   0.288   2.498
 2535TIP3   OH2 7481   7.130   0.618   2.909
 2535TIP3    H1 7482   7.175   0.549   2.860
 2535TIP3    H2 7483   7.131   0.693   2.850
 2536TIP3   OH2 7484   6.946   0.906   3.133
 2536TIP3    H1 7485   6.877   0.951   3.182
 2536TIP3    H2 7486   6.901   0.866   3.059
 2537TIP3   OH2 7487   6.904   0.085   2.608
 2537TIP3    H1 7488   6.905  -0.010   2.597
 2537TIP3    H2 7489   6.879   0.098   2.699
 2538TIP3   OH2 7490   5.510   0.159   3.367
 2538TIP3    H1 7491   5.500   0.137   3.274
 2538TIP3    H2 7492   5.605   0.165   3.380
 2539TIP3   OH2 7493   7.124   0.509   3.454
 2539TIP3    H1 7494   7.194   0.452   3.422
 2539TIP3    H2 7495   7.095   0.557   3.377
 2540TIP3   OH2 7496   7.365   0.362   3.477
 2540TIP3    H1 7497   7.313   0.328   3.549
 2540TIP3    H2 7498   7.443   0.400   3.518
 2541TIP3   OH2 7499   3.852   9.193   3.066
 2541TIP3    H1 7500   3.903   9.239   2.999
 2541TIP3    H2 7501   3.917   9.161   3.129
 2542TIP3   OH2 7502   7.179   0.170   3.317
 2542TIP3    H1 7503   7.100   0.119   3.297
 2542TIP3    H2 7504   7.190   0.228   3.243
 2543TIP3   OH2 7505   2.197   9.129   3.423
 2543TIP3    H1 7506   2.251   9.103   3.348
 2543TIP3    H2 7507   2.193   9.224   3.417
 2544TIP3   OH2 7508   6.590   0.964   2.465
 2544TIP3    H1 7509   6.661   0.963   2.402
 2544TIP3    H2 7510   6.615   1.031   2.529
 2545TIP3   OH2 7511   5.728   0.803   3.839
 2545TIP3    H1 7512   5.633   0.805   3.830
 2545TIP3    H2 7513   5.744   0.807   3.934
 2546TIP3   OH2 7514   5.932   0.861   3.384
 2546TIP3    H1 7515   5.881   0.936   3.353
 2546TIP3    H2 7516   6.017   0.870   3.340
 2547TIP3   OH2 7517   6.332   1.085   3.525
 2547TIP3    H1 7518   6.368   1.079   3.613
 2547TIP3    H2 7519   6.395   1.139   3.477
 2548TIP3   OH2 7520   6.525   1.238   3.399
 2548TIP3    H1 7521   6.593   1.185   3.357
 2548TIP3    H2 7522   6.574   1.299   3.454
 2549TIP3   OH2 7523   5.593   1.091   3.442
 2549TIP3    H1 7524   5.502   1.109   3.418
 2549TIP3    H2 7525   5.615   1.157   3.507
 2550TIP3   OH2 7526   5.821   1.092   3.286
 2550TIP3    H1 7527   5.738   1.094   3.334
 2550TIP3    H2 7528   5.797   1.114   3.196
 2551TIP3   OH2 7529   6.236   1.105   3.062
 2551TIP3    H1 7530   6.157   1.118   3.010
 2551TIP3    H2 7531   6.251   1.189   3.106
 2552TIP3   OH2 7532   6.496   1.028   3.114
 2552TIP3    H1 7533   6.406   1.055   3.095
 2552TIP3    H2 7534   6.550   1.097   3.076
 2553TIP3   OH2 7535   6.694   1.208   3.029
 2553TIP3    H1 7536   6.696   1.297   2.993
 2553TIP3    H2 7537   6.727   1.153   2.958
 2554TIP3   OH2 7538   5.497   0.878   3.152
 2554TIP3    H1 7539   5.525   0.857   3.241
 2554TIP3    H2 7540   5.569   0.847   3.096
 2555TIP3   OH2 7541   5.702   0.772   3.012
 2555TIP3    H1 7542   5.713   0.688   3.057
 2555TIP3    H2 7543   5.790   0.810   3.010
 2556TIP3   OH2 7544   5.973   0.851   3.033
 2556TIP3    H1 7545   5.986   0.758   3.019
 2556TIP3    H2 7546   6.027   0.872   3.109
 2557TIP3   OH2 7547   5.257   0.678   2.532
 2557TIP3    H1 7548   5.174   0.647   2.495
 2557TIP3    H2 7549   5.264   0.769   2.503
 2558TIP3   OH2 7550   6.070   0.836   2.150
 2558TIP3    H1 7551   6.151   0.864   2.108
 2558TIP3    H2 7552   6.038   0.764   2.096
 2559TIP3   OH2 7553   6.760   0.939   2.244
 2559TIP3    H1 7554   6.749   0.845   2.231
 2559TIP3    H2 7555   6.719   0.979   2.167
 2560TIP3   OH2 7556   5.366   0.626   2.211
 2560TIP3    H1 7557   5.377   0.655   2.302
 2560TIP3    H2 7558   5.454   0.599   2.183
 2561TIP3   OH2 7559   6.981   1.112   3.416
 2561TIP3    H1 7560   6.904   1.081   3.369
 2561TIP3    H2 7561   6.968   1.206   3.424
 2562TIP3   OH2 7562   8.175   0.487   2.554
 2562TIP3    H1 7563   8.248   0.470   2.614
 2562TIP3    H2 7564   8.212   0.469   2.467
 2563TIP3   OH2 7565   7.552   0.440   2.902
 2563TIP3    H1 7566   7.586   0.367   2.955
 2563TIP3    H2 7567   7.608   0.514   2.924
 2564TIP3   OH2 7568   7.543   0.774   2.620
 2564TIP3    H1 7569   7.526   0.680   2.616
 2564TIP3    H2 7570   7.636   0.782   2.600
 2565TIP3   OH2 7571   7.295   0.316   2.585
 2565TIP3    H1 7572   7.335   0.229   2.589
 2565TIP3    H2 7573   7.367   0.374   2.562
 2566TIP3   OH2 7574   8.163   1.257   2.265
 2566TIP3    H1 7575   8.198   1.183   2.216
 2566TIP3    H2 7576   8.140   1.221   2.351
 2567TIP3   OH2 7577   8.042   0.722   2.603
 2567TIP3    H1 7578   8.072   0.637   2.571
 2567TIP3    H2 7579   8.123   0.772   2.619
 2568TIP3   OH2 7580   7.388   0.061   2.649
 2568TIP3    H1 7581   7.477   0.043   2.677
 2568TIP3    H2 7582   7.369  -0.006   2.583
 2569TIP3   OH2 7583   7.910   0.650   2.831
 2569TIP3    H1 7584   7.844   0.715   2.856
 2569TIP3    H2 7585   7.951   0.685   2.752
 2570TIP3   OH2 7586   7.636  -0.003   2.737
 2570TIP3    H1 7587   7.687   0.059   2.789
 2570TIP3    H2 7588   7.699  -0.039   2.675
 2571TIP3   OH2 7589   7.733   0.844   2.907
 2571TIP3    H1 7590   7.726   0.932   2.869
 2571TIP3    H2 7591   7.653   0.833   2.958
 2572TIP3   OH2 7592   7.126   0.571   2.167
 2572TIP3    H1 7593   7.190   0.554   2.099
 2572TIP3    H2 7594   7.152   0.656   2.203
 2573TIP3   OH2 7595   8.572   1.072   2.441
 2573TIP3    H1 7596   8.480   1.048   2.451
 2573TIP3    H2 7597   8.570   1.156   2.395
 2574TIP3   OH2 7598   8.260   1.054   2.109
 2574TIP3    H1 7599   8.311   0.982   2.147
 2574TIP3    H2 7600   8.323   1.103   2.056
 2575TIP3   OH2 7601   8.588   0.535   2.888
 2575TIP3    H1 7602   8.589   0.630   2.872
 2575TIP3    H2 7603   8.523   0.502   2.826
 2576TIP3   OH2 7604   7.677   0.379   2.384
 2576TIP3    H1 7605   7.611   0.347   2.324
 2576TIP3    H2 7606   7.748   0.315   2.380
 2577TIP3   OH2 7607   7.798   0.828   2.517
 2577TIP3    H1 7608   7.782   0.808   2.424
 2577TIP3    H2 7609   7.884   0.789   2.535
 2578TIP3   OH2 7610   7.819   0.418   2.715
 2578TIP3    H1 7611   7.868   0.421   2.633
 2578TIP3    H2 7612   7.851   0.494   2.765
 2579TIP3   OH2 7613   8.307   1.035   2.500
 2579TIP3    H1 7614   8.296   1.112   2.555
 2579TIP3    H2 7615   8.296   0.961   2.560
 2580TIP3   OH2 7616   7.938   0.941   3.067
 2580TIP3    H1 7617   7.877   1.000   3.111
 2580TIP3    H2 7618   7.882   0.886   3.011
 2581TIP3   OH2 7619   7.678   0.528   3.187
 2581TIP3    H1 7620   7.685   0.617   3.221
 2581TIP3    H2 7621   7.586   0.504   3.200
 2582TIP3   OH2 7622   7.944   1.028   2.129
 2582TIP3    H1 7623   8.039   1.028   2.127
 2582TIP3    H2 7624   7.918   1.072   2.048
 2583TIP3   OH2 7625   7.734   1.102   3.154
 2583TIP3    H1 7626   7.708   1.111   3.062
 2583TIP3    H2 7627   7.652   1.085   3.200
 2584TIP3   OH2 7628   7.324   0.667   3.104
 2584TIP3    H1 7629   7.255   0.649   3.041
 2584TIP3    H2 7630   7.358   0.581   3.128
 2585TIP3   OH2 7631   7.178   0.847   2.759
 2585TIP3    H1 7632   7.271   0.867   2.769
 2585TIP3    H2 7633   7.133   0.926   2.790
 2586TIP3   OH2 7634   8.133   1.077   2.932
 2586TIP3    H1 7635   8.123   1.168   2.962
 2586TIP3    H2 7636   8.065   1.029   2.979
 2587TIP3   OH2 7637   7.868   1.166   1.890
 2587TIP3    H1 7638   7.792   1.145   1.836
 2587TIP3    H2 7639   7.849   1.253   1.924
 2588TIP3   OH2 7640   7.355   1.042   2.273
 2588TIP3    H1 7641   7.404   1.031   2.355
 2588TIP3    H2 7642   7.306   0.959   2.264
 2589TIP3   OH2 7643   8.129   1.146   1.802
 2589TIP3    H1 7644   8.037   1.139   1.828
 2589TIP3    H2 7645   8.166   1.060   1.822
 2590TIP3   OH2 7646   7.516   0.862   3.074
 2590TIP3    H1 7647   7.566   0.852   3.155
 2590TIP3    H2 7648   7.446   0.796   3.081
 2591TIP3   OH2 7649   7.797   0.184   2.857
 2591TIP3    H1 7650   7.755   0.211   2.939
 2591TIP3    H2 7651   7.801   0.264   2.805
 2592TIP3   OH2 7652   8.400   0.551   3.154
 2592TIP3    H1 7653   8.380   0.488   3.222
 2592TIP3    H2 7654   8.494   0.539   3.136
 2593TIP3   OH2 7655   7.669   0.265   3.084
 2593TIP3    H1 7656   7.677   0.340   3.143
 2593TIP3    H2 7657   7.622   0.199   3.136
 2594TIP3   OH2 7658   8.380   0.419   2.733
 2594TIP3    H1 7659   8.393   0.341   2.680
 2594TIP3    H2 7660   8.351   0.386   2.818
 2595TIP3   OH2 7661   8.720   1.650   2.889
 2595TIP3    H1 7662   8.706   1.655   2.794
 2595TIP3    H2 7663   8.785   1.717   2.907
 2596TIP3   OH2 7664   7.672   0.778   3.304
 2596TIP3    H1 7665   7.756   0.792   3.349
 2596TIP3    H2 7666   7.607   0.782   3.374
 2597TIP3   OH2 7667   8.126   0.103   2.829
 2597TIP3    H1 7668   8.051   0.047   2.849
 2597TIP3    H2 7669   8.185   0.092   2.904
 2598TIP3   OH2 7670   8.312   0.842   2.943
 2598TIP3    H1 7671   8.265   0.763   2.970
 2598TIP3    H2 7672   8.253   0.914   2.967
 2599TIP3   OH2 7673   7.534   0.484   2.605
 2599TIP3    H1 7674   7.593   0.455   2.535
 2599TIP3    H2 7675   7.578   0.457   2.686
 2600TIP3   OH2 7676   7.424   0.434   3.221
 2600TIP3    H1 7677   7.417   0.410   3.314
 2600TIP3    H2 7678   7.353   0.387   3.179
 2601TIP3   OH2 7679   8.137   0.606   3.258
 2601TIP3    H1 7680   8.065   0.544   3.244
 2601TIP3    H2 7681   8.190   0.599   3.178
 2602TIP3   OH2 7682   8.397   1.127   2.854
 2602TIP3    H1 7683   8.305   1.100   2.858
 2602TIP3    H2 7684   8.422   1.143   2.945
 2603TIP3   OH2 7685   7.702   0.834   2.249
 2603TIP3    H1 7686   7.759   0.897   2.204
 2603TIP3    H2 7687   7.614   0.857   2.219
 2604TIP3   OH2 7688   7.839   0.598   2.304
 2604TIP3    H1 7689   7.788   0.670   2.267
 2604TIP3    H2 7690   7.774   0.532   2.327
 2605TIP3   OH2 7691   7.956   1.153   2.723
 2605TIP3    H1 7692   7.992   1.225   2.672
 2605TIP3    H2 7693   8.030   1.118   2.772
 2606TIP3   OH2 7694   7.556   1.046   2.089
 2606TIP3    H1 7695   7.481   1.052   2.148
 2606TIP3    H2 7696   7.606   1.126   2.106
 2607TIP3   OH2 7697   8.297   0.815   2.670
 2607TIP3    H1 7698   8.304   0.828   2.765
 2607TIP3    H2 7699   8.374   0.762   2.648
 2608TIP3   OH2 7700   8.564   1.309   2.744
 2608TIP3    H1 7701   8.499   1.242   2.766
 2608TIP3    H2 7702   8.531   1.348   2.663
 2609TIP3   OH2 7703   7.378   1.055   2.894
 2609TIP3    H1 7704   7.428   0.996   2.950
 2609TIP3    H2 7705   7.396   1.142   2.929
 2610TIP3   OH2 7706   8.312   0.349   2.990
 2610TIP3    H1 7707   8.336   0.428   3.040
 2610TIP3    H2 7708   8.378   0.285   3.013
 2611TIP3   OH2 7709   7.449   0.999   1.835
 2611TIP3    H1 7710   7.518   1.048   1.789
 2611TIP3    H2 7711   7.478   0.996   1.926
 2612TIP3   OH2 7712   8.593   1.315   2.304
 2612TIP3    H1 7713   8.537   1.358   2.239
 2612TIP3    H2 7714   8.664   1.275   2.253
 2613TIP3   OH2 7715   7.182   0.828   2.253
 2613TIP3    H1 7716   7.142   0.860   2.333
 2613TIP3    H2 7717   7.128   0.865   2.182
 2614TIP3   OH2 7718   7.379   1.347   3.312
 2614TIP3    H1 7719   7.462   1.348   3.360
 2614TIP3    H2 7720   7.357   1.254   3.303
 2615TIP3   OH2 7721   7.842   1.261   3.350
 2615TIP3    H1 7722   7.932   1.232   3.362
 2615TIP3    H2 7723   7.809   1.209   3.277
 2616TIP3   OH2 7724   8.456   1.198   3.113
 2616TIP3    H1 7725   8.468   1.131   3.180
 2616TIP3    H2 7726   8.531   1.256   3.124
 2617TIP3   OH2 7727   7.479   0.763   3.503
 2617TIP3    H1 7728   7.500   0.670   3.508
 2617TIP3    H2 7729   7.395   0.766   3.457
 2618TIP3   OH2 7730   8.096   0.874   3.278
 2618TIP3    H1 7731   8.050   0.889   3.195
 2618TIP3    H2 7732   8.125   0.782   3.272
 2619TIP3   OH2 7733   8.582   0.824   2.862
 2619TIP3    H1 7734   8.618   0.893   2.806
 2619TIP3    H2 7735   8.495   0.856   2.887
 2620TIP3   OH2 7736   7.597   0.509   3.513
 2620TIP3    H1 7737   7.678   0.473   3.476
 2620TIP3    H2 7738   7.623   0.539   3.601
 2621TIP3   OH2 7739   7.933   0.427   3.217
 2621TIP3    H1 7740   7.848   0.466   3.195
 2621TIP3    H2 7741   7.963   0.388   3.135
 2622TIP3   OH2 7742   8.499   0.773   3.306
 2622TIP3    H1 7743   8.557   0.762   3.230
 2622TIP3    H2 7744   8.432   0.705   3.296
 2623TIP3   OH2 7745   7.957   0.083   3.147
 2623TIP3    H1 7746   8.042   0.052   3.116
 2623TIP3    H2 7747   7.934   0.153   3.085
 2624TIP3   OH2 7748   8.152   0.616   2.965
 2624TIP3    H1 7749   8.188   0.540   2.921
 2624TIP3    H2 7750   8.063   0.624   2.931
 2625TIP3   OH2 7751   8.770   0.452   3.452
 2625TIP3    H1 7752   8.699   0.430   3.392
 2625TIP3    H2 7753   8.741   0.531   3.497
 2626TIP3   OH2 7754   8.682   0.735   3.101
 2626TIP3    H1 7755   8.651   0.777   3.021
 2626TIP3    H2 7756   8.726   0.655   3.072
 2627TIP3   OH2 7757   7.854   0.401   3.485
 2627TIP3    H1 7758   7.845   0.307   3.504
 2627TIP3    H2 7759   7.893   0.404   3.398
 2628TIP3   OH2 7760   8.328   0.341   3.312
 2628TIP3    H1 7761   8.353   0.305   3.396
 2628TIP3    H2 7762   8.270   0.275   3.273
 2629TIP3   OH2 7763   7.635   1.172   1.709
 2629TIP3    H1 7764   7.621   1.266   1.721
 2629TIP3    H2 7765   7.610   1.156   1.618
 2630TIP3   OH2 7766   6.971   1.107   2.321
 2630TIP3    H1 7767   6.905   1.051   2.280
 2630TIP3    H2 7768   7.016   1.049   2.383
 2631TIP3   OH2 7769   7.118   0.953   2.498
 2631TIP3    H1 7770   7.113   0.885   2.566
 2631TIP3    H2 7771   7.171   1.022   2.537
 2632TIP3   OH2 7772   8.669   1.031   2.697
 2632TIP3    H1 7773   8.658   1.122   2.723
 2632TIP3    H2 7774   8.649   1.030   2.603
 2633TIP3   OH2 7775   7.286   0.393   2.847
 2633TIP3    H1 7776   7.280   0.376   2.753
 2633TIP3    H2 7777   7.379   0.413   2.861
 2634TIP3   OH2 7778   7.212   0.115   2.850
 2634TIP3    H1 7779   7.275   0.101   2.779
 2634TIP3    H2 7780   7.216   0.209   2.867
 2635TIP3   OH2 7781   8.442   1.211   1.976
 2635TIP3    H1 7782   8.468   1.226   1.885
 2635TIP3    H2 7783   8.448   1.297   2.018
 2636TIP3   OH2 7784   7.515   1.070   3.324
 2636TIP3    H1 7785   7.420   1.056   3.318
 2636TIP3    H2 7786   7.535   1.061   3.417
 2637TIP3   OH2 7787   7.726   1.119   2.871
 2637TIP3    H1 7788   7.677   1.195   2.840
 2637TIP3    H2 7789   7.811   1.126   2.828
 2638TIP3   OH2 7790   8.116   1.344   3.012
 2638TIP3    H1 7791   8.155   1.339   3.100
 2638TIP3    H2 7792   8.180   1.392   2.960
 2639TIP3   OH2 7793   8.311   1.488   2.879
 2639TIP3    H1 7794   8.371   1.428   2.835
 2639TIP3    H2 7795   8.367   1.541   2.936
 2640TIP3   OH2 7796   7.389   1.347   2.929
 2640TIP3    H1 7797   7.299   1.367   2.904
 2640TIP3    H2 7798   7.412   1.415   2.993
 2641TIP3   OH2 7799   7.617   1.352   2.774
 2641TIP3    H1 7800   7.534   1.352   2.822
 2641TIP3    H2 7801   7.593   1.372   2.684
 2642TIP3   OH2 7802   8.021   1.369   2.556
 2642TIP3    H1 7803   7.943   1.376   2.501
 2642TIP3    H2 7804   8.029   1.454   2.598
 2643TIP3   OH2 7805   8.275   1.285   2.609
 2643TIP3    H1 7806   8.188   1.319   2.585
 2643TIP3    H2 7807   8.336   1.347   2.571
 2644TIP3   OH2 7808   8.480   1.446   2.517
 2644TIP3    H1 7809   8.477   1.537   2.490
 2644TIP3    H2 7810   8.521   1.400   2.444
 2645TIP3   OH2 7811   7.294   1.131   2.642
 2645TIP3    H1 7812   7.321   1.109   2.731
 2645TIP3    H2 7813   7.365   1.098   2.587
 2646TIP3   OH2 7814   7.500   1.020   2.506
 2646TIP3    H1 7815   7.509   0.933   2.544
 2646TIP3    H2 7816   7.588   1.058   2.508
 2647TIP3   OH2 7817   7.768   1.104   2.524
 2647TIP3    H1 7818   7.783   1.012   2.505
 2647TIP3    H2 7819   7.826   1.123   2.597
 2648TIP3   OH2 7820   7.038   0.933   2.046
 2648TIP3    H1 7821   6.962   0.900   1.997
 2648TIP3    H2 7822   7.054   1.020   2.009
 2649TIP3   OH2 7823   7.186   0.977   1.733
 2649TIP3    H1 7824   7.139   1.026   1.800
 2649TIP3    H2 7825   7.273   0.963   1.770
 2650TIP3   OH2 7826   8.752   1.377   2.932
 2650TIP3    H1 7827   8.694   1.341   2.865
 2650TIP3    H2 7828   8.750   1.471   2.918
 2651TIP3   OH2 7829   0.971   1.592   3.961
 2651TIP3    H1 7830   0.966   1.525   4.028
 2651TIP3    H2 7831   0.998   1.671   4.007
 2652TIP3   OH2 7832   0.617   2.019   3.945
 2652TIP3    H1 7833   0.671   1.956   3.897
 2652TIP3    H2 7834   0.608   1.981   4.032
 2653TIP3   OH2 7835   0.531   1.502   4.310
 2653TIP3    H1 7836   0.565   1.427   4.261
 2653TIP3    H2 7837   0.609   1.552   4.335
 2654TIP3   OH2 7838   1.508   0.836   4.230
 2654TIP3    H1 7839   1.544   0.901   4.291
 2654TIP3    H2 7840   1.575   0.826   4.162
 2655TIP3   OH2 7841   1.577   1.024   4.426
 2655TIP3    H1 7842   1.520   1.098   4.406
 2655TIP3    H2 7843   1.650   1.063   4.474
 2656TIP3   OH2 7844   0.373   1.432   4.526
 2656TIP3    H1 7845   0.303   1.496   4.540
 2656TIP3    H2 7846   0.417   1.463   4.446
 2657TIP3   OH2 7847   0.187   1.626   4.602
 2657TIP3    H1 7848   0.166   1.716   4.575
 2657TIP3    H2 7849   0.118   1.604   4.665
 2658TIP3   OH2 7850   1.019   1.838   4.086
 2658TIP3    H1 7851   0.932   1.829   4.125
 2658TIP3    H2 7852   1.015   1.923   4.040
 2659TIP3   OH2 7853   1.286   0.850   4.403
 2659TIP3    H1 7854   1.205   0.899   4.388
 2659TIP3    H2 7855   1.345   0.881   4.335
 2660TIP3   OH2 7856   0.788   1.853   3.808
 2660TIP3    H1 7857   0.824   1.768   3.834
 2660TIP3    H2 7858   0.832   1.873   3.725
 2661TIP3   OH2 7859   1.254   1.728   4.427
 2661TIP3    H1 7860   1.238   1.652   4.371
 2661TIP3    H2 7861   1.236   1.804   4.371
 2662TIP3   OH2 7862   1.467   1.430   4.286
 2662TIP3    H1 7863   1.379   1.467   4.287
 2662TIP3    H2 7864   1.489   1.423   4.193
 2663TIP3   OH2 7865   1.169   1.292   4.572
 2663TIP3    H1 7866   1.147   1.370   4.624
 2663TIP3    H2 7867   1.085   1.264   4.535
 2664TIP3   OH2 7868   0.784   1.824   4.217
 2664TIP3    H1 7869   0.770   1.903   4.269
 2664TIP3    H2 7870   0.772   1.752   4.280
 2665TIP3   OH2 7871   0.385   1.742   4.759
 2665TIP3    H1 7872   0.317   1.793   4.803
 2665TIP3    H2 7873   0.336   1.682   4.702
 2666TIP3   OH2 7874   0.146   1.288   4.861
 2666TIP3    H1 7875   0.136   1.368   4.914
 2666TIP3    H2 7876   0.082   1.297   4.791
 2667TIP3   OH2 7877   0.168   1.880   4.859
 2667TIP3    H1 7878   0.138   1.896   4.769
 2667TIP3    H2 7879   0.088   1.864   4.909
 2668TIP3   OH2 7880   1.485   2.079   4.500
 2668TIP3    H1 7881   1.489   1.984   4.514
 2668TIP3    H2 7882   1.406   2.106   4.547
 2669TIP3   OH2 7883   0.587   1.870   4.626
 2669TIP3    H1 7884   0.581   1.962   4.652
 2669TIP3    H2 7885   0.515   1.828   4.674
 2670TIP3   OH2 7886   1.350   1.232   4.776
 2670TIP3    H1 7887   1.288   1.267   4.713
 2670TIP3    H2 7888   1.373   1.146   4.741
 2671TIP3   OH2 7889   9.798   1.598   4.803
 2671TIP3    H1 7890   9.842   1.584   4.886
 2671TIP3    H2 7891   9.705   1.588   4.822
 2672TIP3   OH2 7892   0.867   0.657   4.758
 2672TIP3    H1 7893   0.935   0.655   4.825
 2672TIP3    H2 7894   0.802   0.593   4.786
 2673TIP3   OH2 7895   1.111   0.981   4.635
 2673TIP3    H1 7896   1.068   1.000   4.719
 2673TIP3    H2 7897   1.078   1.048   4.575
 2674TIP3   OH2 7898   0.825   1.253   4.885
 2674TIP3    H1 7899   0.836   1.201   4.965
 2674TIP3    H2 7900   0.877   1.332   4.900
 2675TIP3   OH2 7901   0.757   1.281   4.309
 2675TIP3    H1 7902   0.700   1.205   4.298
 2675TIP3    H2 7903   0.820   1.254   4.376
 2676TIP3   OH2 7904   1.200   2.426   4.590
 2676TIP3    H1 7905   1.198   2.441   4.495
 2676TIP3    H2 7906   1.279   2.470   4.620
 2677TIP3   OH2 7907   0.127   1.499   5.039
 2677TIP3    H1 7908   0.205   1.544   5.072
 2677TIP3    H2 7909   0.112   1.429   5.102
 2678TIP3   OH2 7910   1.211   1.526   4.246
 2678TIP3    H1 7911   1.237   1.573   4.167
 2678TIP3    H2 7912   1.130   1.481   4.222
 2679TIP3   OH2 7913   0.721   1.617   4.655
 2679TIP3    H1 7914   0.704   1.565   4.734
 2679TIP3    H2 7915   0.674   1.699   4.670
 2680TIP3   OH2 7916   0.622   1.433   4.846
 2680TIP3    H1 7917   0.564   1.383   4.788
 2680TIP3    H2 7918   0.693   1.372   4.867
 2681TIP3   OH2 7919   0.862   1.892   4.551
 2681TIP3    H1 7920   0.769   1.873   4.552
 2681TIP3    H2 7921   0.882   1.923   4.639
 2682TIP3   OH2 7922   1.500   1.797   4.517
 2682TIP3    H1 7923   1.405   1.785   4.508
 2682TIP3    H2 7924   1.535   1.770   4.432
 2683TIP3   OH2 7925   0.977   1.388   4.170
 2683TIP3    H1 7926   0.891   1.374   4.210
 2683TIP3    H2 7927   1.005   1.301   4.142
 2684TIP3   OH2 7928   0.401   1.928   4.419
 2684TIP3    H1 7929   0.437   2.006   4.375
 2684TIP3    H2 7930   0.475   1.892   4.468
 2685TIP3   OH2 7931   0.776   1.607   4.390
 2685TIP3    H1 7932   0.757   1.609   4.484
 2685TIP3    H2 7933   0.856   1.555   4.383
 2686TIP3   OH2 7934   1.015   2.097   4.435
 2686TIP3    H1 7935   0.949   2.032   4.458
 2686TIP3    H2 7936   0.975   2.148   4.365
 2687TIP3   OH2 7937   9.638   1.812   4.682
 2687TIP3    H1 7938   9.714   1.755   4.692
 2687TIP3    H2 7939   9.671   1.887   4.632
 2688TIP3   OH2 7940   0.854   0.817   4.534
 2688TIP3    H1 7941   0.943   0.846   4.513
 2688TIP3    H2 7942   0.866   0.750   4.602
 2689TIP3   OH2 7943   0.738   1.119   4.661
 2689TIP3    H1 7944   0.769   1.173   4.733
 2689TIP3    H2 7945   0.728   1.032   4.700
 2690TIP3   OH2 7946   1.386   1.008   4.631
 2690TIP3    H1 7947   1.295   0.991   4.605
 2690TIP3    H2 7948   1.436   0.999   4.551
 2691TIP3   OH2 7949   1.034   1.117   4.117
 2691TIP3    H1 7950   0.993   1.043   4.072
 2691TIP3    H2 7951   1.128   1.096   4.117
 2692TIP3   OH2 7952   1.038   2.102   4.001
 2692TIP3    H1 7953   0.994   2.149   3.930
 2692TIP3    H2 7954   1.132   2.116   3.985
 2693TIP3   OH2 7955   9.649   2.155   4.956
 2693TIP3    H1 7956   9.720   2.156   5.021
 2693TIP3    H2 7957   9.602   2.073   4.973
 2694TIP3   OH2 7958   0.292   2.051   5.036
 2694TIP3    H1 7959   0.382   2.023   5.047
 2694TIP3    H2 7960   0.255   1.991   4.971
 2695TIP3   OH2 7961   0.912   1.982   4.805
 2695TIP3    H1 7962   0.925   1.907   4.863
 2695TIP3    H2 7963   0.988   2.038   4.820
 2696TIP3   OH2 7964   0.541   1.660   4.967
 2696TIP3    H1 7965   0.488   1.688   4.892
 2696TIP3    H2 7966   0.582   1.579   4.939
 2697TIP3   OH2 7967   1.032   1.662   4.577
 2697TIP3    H1 7968   1.108   1.697   4.530
 2697TIP3    H2 7969   0.964   1.729   4.567
 2698TIP3   OH2 7970   0.396   1.216   4.939
 2698TIP3    H1 7971   0.303   1.237   4.931
 2698TIP3    H2 7972   0.433   1.231   4.852
 2699TIP3   OH2 7973   0.937   1.501   4.939
 2699TIP3    H1 7974   1.017   1.509   4.888
 2699TIP3    H2 7975   0.968   1.487   5.029
 2700TIP3   OH2 7976   0.431   0.951   4.999
 2700TIP3    H1 7977   0.418   0.925   4.908
 2700TIP3    H2 7978   0.423   1.046   4.999
 2701TIP3   OH2 7979   0.489   1.244   4.682
 2701TIP3    H1 7980   0.568   1.220   4.634
 2701TIP3    H2 7981   0.444   1.305   4.623
 2702TIP3   OH2 7982   1.278   1.307   5.028
 2702TIP3    H1 7983   1.214   1.245   5.063
 2702TIP3    H2 7984   1.297   1.274   4.940
 2703TIP3   OH2 7985   1.150   1.499   4.757
 2703TIP3    H1 7986   1.100   1.561   4.704
 2703TIP3    H2 7987   1.242   1.521   4.738
 2704TIP3   OH2 7988   0.748   1.035   5.071
 2704TIP3    H1 7989   0.781   0.965   5.127
 2704TIP3    H2 7990   0.730   0.992   4.987
 2705TIP3   OH2 7991   1.029   0.993   4.894
 2705TIP3    H1 7992   1.015   0.902   4.922
 2705TIP3    H2 7993   1.116   1.015   4.928
 2706TIP3   OH2 7994   1.243   0.953   5.052
 2706TIP3    H1 7995   1.243   0.860   5.075
 2706TIP3    H2 7996   1.254   0.998   5.136
 2707TIP3   OH2 7997   1.310   2.153   3.997
 2707TIP3    H1 7998   1.327   2.167   4.090
 2707TIP3    H2 7999   1.352   2.227   3.953
 2708TIP3   OH2 8000   1.333   2.177   4.276
 2708TIP3    H1 8001   1.283   2.095   4.274
 2708TIP3    H2 8002   1.402   2.161   4.341
 2709TIP3   OH2 8003   1.381   1.886   4.834
 2709TIP3    H1 8004   1.309   1.889   4.897
 2709TIP3    H2 8005   1.427   1.969   4.847
 2710TIP3   OH2 8006   1.346   1.211   3.677
 2710TIP3    H1 8007   1.276   1.261   3.718
 2710TIP3    H2 8008   1.427   1.254   3.705
 2711TIP3   OH2 8009   1.387   1.662   4.072
 2711TIP3    H1 8010   1.436   1.594   4.025
 2711TIP3    H2 8011   1.385   1.736   4.011
 2712TIP3   OH2 8012   1.186   1.945   4.277
 2712TIP3    H1 8013   1.119   1.988   4.331
 2712TIP3    H2 8014   1.136   1.905   4.206
 2713TIP3   OH2 8015   1.410   1.542   4.663
 2713TIP3    H1 8016   1.475   1.474   4.645
 2713TIP3    H2 8017   1.431   1.613   4.603
 2714TIP3   OH2 8018   1.589   1.330   4.656
 2714TIP3    H1 8019   1.522   1.297   4.715
 2714TIP3    H2 8020   1.671   1.297   4.692
 2715TIP3   OH2 8021   1.293   1.050   4.177
 2715TIP3    H1 8022   1.374   1.053   4.126
 2715TIP3    H2 8023   1.312   1.103   4.255
 2716TIP3   OH2 8024   1.365   1.201   4.397
 2716TIP3    H1 8025   1.299   1.229   4.461
 2716TIP3    H2 8026   1.402   1.282   4.362
 2717TIP3   OH2 8027   1.905   0.796   5.002
 2717TIP3    H1 8028   1.951   0.723   4.961
 2717TIP3    H2 8029   1.876   0.850   4.929
 2718TIP3   OH2 8030   1.801   0.933   4.789
 2718TIP3    H1 8031   1.712   0.899   4.795
 2718TIP3    H2 8032   1.842   0.881   4.720
 2719TIP3   OH2 8033   0.926   2.040   3.620
 2719TIP3    H1 8034   0.944   2.125   3.580
 2719TIP3    H2 8035   0.905   2.060   3.711
 2720TIP3   OH2 8036   9.747   1.843   5.030
 2720TIP3    H1 8037   9.656   1.812   5.021
 2720TIP3    H2 8038   9.768   1.827   5.122
 2721TIP3   OH2 8039   0.166   1.903   4.568
 2721TIP3    H1 8040   0.126   1.983   4.535
 2721TIP3    H2 8041   0.253   1.901   4.527
 2722TIP3   OH2 8042   0.575   2.136   4.703
 2722TIP3    H1 8043   0.613   2.129   4.791
 2722TIP3    H2 8044   0.639   2.188   4.654
 2723TIP3   OH2 8045   0.772   2.286   4.581
 2723TIP3    H1 8046   0.834   2.229   4.536
 2723TIP3    H2 8047   0.826   2.344   4.634
 2724TIP3   OH2 8048   1.608   0.696   4.551
 2724TIP3    H1 8049   1.524   0.678   4.510
 2724TIP3    H2 8050   1.660   0.617   4.534
 2725TIP3   OH2 8051   9.671   2.101   4.619
 2725TIP3    H1 8052   9.577   2.117   4.615
 2725TIP3    H2 8053   9.695   2.118   4.710
 2726TIP3   OH2 8054   0.087   2.142   4.452
 2726TIP3    H1 8055   0.004   2.139   4.499
 2726TIP3    H2 8056   0.063   2.157   4.361
 2727TIP3   OH2 8057   0.489   2.150   4.272
 2727TIP3    H1 8058   0.417   2.166   4.211
 2727TIP3    H2 8059   0.503   2.235   4.314
 2728TIP3   OH2 8060   0.752   2.084   4.308
 2728TIP3    H1 8061   0.659   2.103   4.294
 2728TIP3    H2 8062   0.798   2.153   4.261
 2729TIP3   OH2 8063   0.948   2.259   4.208
 2729TIP3    H1 8064   0.945   2.346   4.169
 2729TIP3    H2 8065   0.977   2.201   4.138
 2730TIP3   OH2 8066   0.244   1.923   4.188
 2730TIP3    H1 8067   0.230   1.832   4.160
 2730TIP3    H2 8068   0.290   1.916   4.271
 2731TIP3   OH2 8069   1.030   1.990   3.359
 2731TIP3    H1 8070   0.997   1.956   3.442
 2731TIP3    H2 8071   0.951   2.017   3.312
 2732TIP3   OH2 8072   1.251   0.679   5.094
 2732TIP3    H1 8073   1.223   0.589   5.108
 2732TIP3    H2 8074   1.335   0.671   5.047
 2733TIP3   OH2 8075   1.236   2.152   4.597
 2733TIP3    H1 8076   1.161   2.122   4.546
 2733TIP3    H2 8077   1.223   2.246   4.606
 2734TIP3   OH2 8078   2.519   1.545   3.345
 2734TIP3    H1 8079   2.487   1.630   3.316
 2734TIP3    H2 8080   2.448   1.485   3.323
 2735TIP3   OH2 8081   2.521   1.537   3.759
 2735TIP3    H1 8082   2.574   1.516   3.836
 2735TIP3    H2 8083   2.475   1.455   3.739
 2736TIP3   OH2 8084   1.813   1.425   4.096
 2736TIP3    H1 8085   1.857   1.407   4.179
 2736TIP3    H2 8086   1.884   1.442   4.034
 2737TIP3   OH2 8087   2.789   1.841   3.430
 2737TIP3    H1 8088   2.771   1.775   3.497
 2737TIP3    H2 8089   2.805   1.921   3.480
 2738TIP3   OH2 8090   1.801   1.822   3.783
 2738TIP3    H1 8091   1.780   1.729   3.788
 2738TIP3    H2 8092   1.897   1.825   3.779
 2739TIP3   OH2 8093   1.584   1.324   3.779
 2739TIP3    H1 8094   1.638   1.247   3.797
 2739TIP3    H2 8095   1.647   1.391   3.752
 2740TIP3   OH2 8096   2.443   2.257   3.455
 2740TIP3    H1 8097   2.467   2.191   3.390
 2740TIP3    H2 8098   2.458   2.214   3.539
 2741TIP3   OH2 8099   2.315   1.746   3.771
 2741TIP3    H1 8100   2.363   1.669   3.740
 2741TIP3    H2 8101   2.383   1.808   3.797
 2742TIP3   OH2 8102   3.354   1.074   3.778
 2742TIP3    H1 8103   3.372   1.156   3.823
 2742TIP3    H2 8104   3.368   1.093   3.686
 2743TIP3   OH2 8105   2.731   1.241   3.796
 2743TIP3    H1 8106   2.757   1.153   3.824
 2743TIP3    H2 8107   2.692   1.228   3.709
 2744TIP3   OH2 8108   2.107   0.923   3.770
 2744TIP3    H1 8109   2.078   0.992   3.710
 2744TIP3    H2 8110   2.075   0.842   3.730
 2745TIP3   OH2 8111   2.767   0.988   3.412
 2745TIP3    H1 8112   2.832   0.983   3.482
 2745TIP3    H2 8113   2.818   1.016   3.335
 2746TIP3   OH2 8114   1.731   1.098   3.861
 2746TIP3    H1 8115   1.807   1.073   3.914
 2746TIP3    H2 8116   1.732   1.037   3.788
 2747TIP3   OH2 8117   2.122   1.315   3.705
 2747TIP3    H1 8118   2.217   1.302   3.708
 2747TIP3    H2 8119   2.087   1.233   3.670
 2748TIP3   OH2 8120   3.409   1.293   3.941
 2748TIP3    H1 8121   3.321   1.330   3.936
 2748TIP3    H2 8122   3.444   1.327   4.024
 2749TIP3   OH2 8123   2.403   1.751   3.204
 2749TIP3    H1 8124   2.370   1.732   3.116
 2749TIP3    H2 8125   2.353   1.828   3.232
 2750TIP3   OH2 8126   2.177   1.669   4.000
 2750TIP3    H1 8127   2.118   1.739   4.027
 2750TIP3    H2 8128   2.224   1.705   3.925
 2751TIP3   OH2 8129   2.935   1.022   3.625
 2751TIP3    H1 8130   2.892   1.001   3.708
 2751TIP3    H2 8131   2.989   1.099   3.645
 2752TIP3   OH2 8132   1.958   0.998   3.996
 2752TIP3    H1 8133   2.018   0.993   4.071
 2752TIP3    H2 8134   2.010   0.968   3.922
 2753TIP3   OH2 8135   2.006   1.875   4.078
 2753TIP3    H1 8136   1.991   1.964   4.046
 2753TIP3    H2 8137   1.928   1.856   4.131
 2754TIP3   OH2 8138   1.415   1.603   3.359
 2754TIP3    H1 8139   1.361   1.614   3.281
 2754TIP3    H2 8140   1.431   1.693   3.389
 2755TIP3   OH2 8141   2.811   2.090   3.571
 2755TIP3    H1 8142   2.722   2.085   3.606
 2755TIP3    H2 8143   2.812   2.173   3.522
 2756TIP3   OH2 8144   3.152   0.967   3.946
 2756TIP3    H1 8145   3.067   0.985   3.905
 2756TIP3    H2 8146   3.216   0.993   3.880
 2757TIP3   OH2 8147   2.410   0.608   3.927
 2757TIP3    H1 8148   2.406   0.515   3.950
 2757TIP3    H2 8149   2.337   0.648   3.975
 2758TIP3   OH2 8150   2.520   2.118   3.224
 2758TIP3    H1 8151   2.575   2.040   3.214
 2758TIP3    H2 8152   2.576   2.191   3.199
 2759TIP3   OH2 8153   2.682   1.905   3.184
 2759TIP3    H1 8154   2.655   1.823   3.142
 2759TIP3    H2 8155   2.724   1.878   3.265
 2760TIP3   OH2 8156   3.043   1.973   3.913
 2760TIP3    H1 8157   3.029   1.898   3.855
 2760TIP3    H2 8158   3.030   2.049   3.858
 2761TIP3   OH2 8159   2.338   1.392   3.193
 2761TIP3    H1 8160   2.254   1.435   3.174
 2761TIP3    H2 8161   2.386   1.395   3.111
 2762TIP3   OH2 8162   2.323   1.190   2.902
 2762TIP3    H1 8163   2.383   1.237   2.960
 2762TIP3    H2 8164   2.378   1.122   2.862
 2763TIP3   OH2 8165   3.232   1.630   3.763
 2763TIP3    H1 8166   3.150   1.679   3.764
 2763TIP3    H2 8167   3.266   1.640   3.674
 2764TIP3   OH2 8168   2.710   1.480   3.161
 2764TIP3    H1 8169   2.654   1.504   3.235
 2764TIP3    H2 8170   2.785   1.436   3.201
 2765TIP3   OH2 8171   2.933   1.499   4.094
 2765TIP3    H1 8172   2.927   1.582   4.140
 2765TIP3    H2 8173   2.852   1.495   4.042
 2766TIP3   OH2 8174   1.934   1.455   3.554
 2766TIP3    H1 8175   1.893   1.393   3.494
 2766TIP3    H2 8176   2.003   1.405   3.597
 2767TIP3   OH2 8177   2.067   1.869   3.697
 2767TIP3    H1 8178   2.046   1.852   3.605
 2767TIP3    H2 8179   2.152   1.827   3.710
 2768TIP3   OH2 8180   2.012   1.470   3.904
 2768TIP3    H1 8181   2.056   1.426   3.832
 2768TIP3    H2 8182   2.074   1.537   3.933
 2769TIP3   OH2 8183   2.565   2.086   3.691
 2769TIP3    H1 8184   2.556   2.164   3.746
 2769TIP3    H2 8185   2.553   2.012   3.752
 2770TIP3   OH2 8186   2.198   1.976   4.252
 2770TIP3    H1 8187   2.135   2.032   4.298
 2770TIP3    H2 8188   2.144   1.924   4.192
 2771TIP3   OH2 8189   2.534   1.353   2.993
 2771TIP3    H1 8190   2.597   1.405   3.043
 2771TIP3    H2 8191   2.566   1.358   2.903
 2772TIP3   OH2 8192   1.962   1.529   4.403
 2772TIP3    H1 8193   1.959   1.623   4.422
 2772TIP3    H2 8194   1.872   1.500   4.410
 2773TIP3   OH2 8195   2.272   1.995   3.240
 2773TIP3    H1 8196   2.355   2.043   3.243
 2773TIP3    H2 8197   2.212   2.055   3.195
 2774TIP3   OH2 8198   1.987   2.133   4.335
 2774TIP3    H1 8199   1.962   2.144   4.244
 2774TIP3    H2 8200   1.904   2.120   4.381
 2775TIP3   OH2 8201   3.051   0.560   3.030
 2775TIP3    H1 8202   2.971   0.573   3.081
 2775TIP3    H2 8203   3.057   0.637   2.974
 2776TIP3   OH2 8204   1.806   1.287   3.376
 2776TIP3    H1 8205   1.740   1.345   3.338
 2776TIP3    H2 8206   1.761   1.203   3.387
 2777TIP3   OH2 8207   2.869   1.922   2.598
 2777TIP3    H1 8208   2.861   2.016   2.581
 2777TIP3    H2 8209   2.959   1.901   2.574
 2778TIP3   OH2 8210   1.576   1.697   4.274
 2778TIP3    H1 8211   1.508   1.704   4.208
 2778TIP3    H2 8212   1.586   1.603   4.289
 2779TIP3   OH2 8213   1.421   1.902   3.928
 2779TIP3    H1 8214   1.512   1.924   3.949
 2779TIP3    H2 8215   1.371   1.978   3.959
 2780TIP3   OH2 8216   3.277   2.332   3.984
 2780TIP3    H1 8217   3.280   2.238   3.998
 2780TIP3    H2 8218   3.199   2.361   4.031
 2781TIP3   OH2 8219   2.383   2.125   4.114
 2781TIP3    H1 8220   2.375   2.216   4.142
 2781TIP3    H2 8221   2.316   2.078   4.164
 2782TIP3   OH2 8222   2.141   2.225   3.068
 2782TIP3    H1 8223   2.085   2.209   2.991
 2782TIP3    H2 8224   2.105   2.305   3.107
 2783TIP3   OH2 8225   1.605   2.086   3.448
 2783TIP3    H1 8226   1.653   2.079   3.531
 2783TIP3    H2 8227   1.559   2.002   3.440
 2784TIP3   OH2 8228   2.376   2.154   2.715
 2784TIP3    H1 8229   2.424   2.078   2.681
 2784TIP3    H2 8230   2.397   2.156   2.808
 2785TIP3   OH2 8231   2.398   2.204   2.981
 2785TIP3    H1 8232   2.311   2.207   3.019
 2785TIP3    H2 8233   2.454   2.170   3.051
 2786TIP3   OH2 8234   3.164   1.451   4.259
 2786TIP3    H1 8235   3.088   1.456   4.201
 2786TIP3    H2 8236   3.186   1.357   4.261
 2787TIP3   OH2 8237   1.788   1.875   4.248
 2787TIP3    H1 8238   1.837   1.864   4.330
 2787TIP3    H2 8239   1.715   1.814   4.256
 2788TIP3   OH2 8240   2.187   0.713   4.063
 2788TIP3    H1 8241   2.096   0.697   4.040
 2788TIP3    H2 8242   2.188   0.800   4.102
 2789TIP3   OH2 8243   2.701   0.818   4.269
 2789TIP3    H1 8244   2.764   0.787   4.334
 2789TIP3    H2 8245   2.615   0.808   4.311
 2790TIP3   OH2 8246   2.933   1.231   4.177
 2790TIP3    H1 8247   2.895   1.227   4.265
 2790TIP3    H2 8248   2.916   1.320   4.147
 2791TIP3   OH2 8249   2.637   1.330   2.738
 2791TIP3    H1 8250   2.601   1.342   2.650
 2791TIP3    H2 8251   2.727   1.362   2.731
 2792TIP3   OH2 8252   2.060   1.260   4.094
 2792TIP3    H1 8253   1.986   1.219   4.049
 2792TIP3    H2 8254   2.109   1.304   4.024
 2793TIP3   OH2 8255   1.989   1.097   3.592
 2793TIP3    H1 8256   1.905   1.056   3.610
 2793TIP3    H2 8257   2.003   1.083   3.498
 2794TIP3   OH2 8258   2.475   1.192   3.322
 2794TIP3    H1 8259   2.420   1.260   3.282
 2794TIP3    H2 8260   2.530   1.161   3.251
 2795TIP3   OH2 8261   2.654   1.436   4.394
 2795TIP3    H1 8262   2.630   1.374   4.463
 2795TIP3    H2 8263   2.747   1.454   4.409
 2796TIP3   OH2 8264   2.637   1.194   3.544
 2796TIP3    H1 8265   2.571   1.218   3.479
 2796TIP3    H2 8266   2.676   1.114   3.511
 2797TIP3   OH2 8267   1.919   1.218   4.352
 2797TIP3    H1 8268   1.850   1.280   4.375
 2797TIP3    H2 8269   1.895   1.137   4.396
 2798TIP3   OH2 8270   2.687   1.443   3.969
 2798TIP3    H1 8271   2.710   1.376   3.905
 2798TIP3    H2 8272   2.640   1.395   4.038
 2799TIP3   OH2 8273   2.375   0.906   3.659
 2799TIP3    H1 8274   2.297   0.906   3.715
 2799TIP3    H2 8275   2.446   0.884   3.719
 2800TIP3   OH2 8276   1.777   0.921   3.648
 2800TIP3    H1 8277   1.694   0.886   3.615
 2800TIP3    H2 8278   1.838   0.846   3.643
 2801TIP3   OH2 8279   2.043   1.015   3.331
 2801TIP3    H1 8280   2.136   1.021   3.353
 2801TIP3    H2 8281   2.033   0.930   3.289
 2802TIP3   OH2 8282   2.789   0.979   3.861
 2802TIP3    H1 8283   2.768   0.997   3.952
 2802TIP3    H2 8284   2.725   0.913   3.834
 2803TIP3   OH2 8285   2.989   2.679   4.073
 2803TIP3    H1 8286   2.984   2.697   3.979
 2803TIP3    H2 8287   3.069   2.723   4.101
 2804TIP3   OH2 8288   1.936   1.797   4.485
 2804TIP3    H1 8289   2.017   1.814   4.533
 2804TIP3    H2 8290   1.866   1.808   4.550
 2805TIP3   OH2 8291   2.397   1.276   3.750
 2805TIP3    H1 8292   2.456   1.217   3.704
 2805TIP3    H2 8293   2.387   1.238   3.837
 2806TIP3   OH2 8294   1.985   0.728   3.607
 2806TIP3    H1 8295   2.054   0.670   3.640
 2806TIP3    H2 8296   1.995   0.725   3.512
 2807TIP3   OH2 8297   2.364   1.180   4.008
 2807TIP3    H1 8298   2.318   1.113   4.058
 2807TIP3    H2 8299   2.435   1.208   4.066
 2808TIP3   OH2 8300   2.099   1.552   3.123
 2808TIP3    H1 8301   2.055   1.467   3.124
 2808TIP3    H2 8302   2.088   1.586   3.211
 2809TIP3   OH2 8303   2.998   1.772   3.728
 2809TIP3    H1 8304   3.034   1.821   3.654
 2809TIP3    H2 8305   2.918   1.732   3.694
 2810TIP3   OH2 8306   2.569   0.860   3.046
 2810TIP3    H1 8307   2.495   0.859   2.986
 2810TIP3    H2 8308   2.589   0.953   3.059
 2811TIP3   OH2 8309   2.514   1.867   4.141
 2811TIP3    H1 8310   2.561   1.855   4.224
 2811TIP3    H2 8311   2.470   1.952   4.150
 2812TIP3   OH2 8312   2.638   1.118   3.110
 2812TIP3    H1 8313   2.733   1.115   3.113
 2812TIP3    H2 8314   2.618   1.192   3.052
 2813TIP3   OH2 8315   1.782   1.537   3.767
 2813TIP3    H1 8316   1.822   1.521   3.682
 2813TIP3    H2 8317   1.851   1.515   3.830
 2814TIP3   OH2 8318   2.267   1.697   2.957
 2814TIP3    H1 8319   2.221   1.781   2.966
 2814TIP3    H2 8320   2.214   1.635   3.008
 2815TIP3   OH2 8321   1.713   1.398   4.416
 2815TIP3    H1 8322   1.684   1.388   4.507
 2815TIP3    H2 8323   1.632   1.401   4.365
 2816TIP3   OH2 8324   2.442   1.615   4.414
 2816TIP3    H1 8325   2.387   1.589   4.340
 2816TIP3    H2 8326   2.523   1.564   4.403
 2817TIP3   OH2 8327   2.655   2.146   4.037
 2817TIP3    H1 8328   2.561   2.132   4.037
 2817TIP3    H2 8329   2.675   2.182   4.123
 2818TIP3   OH2 8330   3.288   2.047   4.008
 2818TIP3    H1 8331   3.194   2.034   3.994
 2818TIP3    H2 8332   3.328   2.023   3.924
 2819TIP3   OH2 8333   2.773   1.997   2.856
 2819TIP3    H1 8334   2.762   1.926   2.920
 2819TIP3    H2 8335   2.806   1.953   2.778
 2820TIP3   OH2 8336   2.767   1.635   3.627
 2820TIP3    H1 8337   2.678   1.614   3.655
 2820TIP3    H2 8338   2.800   1.554   3.588
 2821TIP3   OH2 8339   1.919   1.871   3.454
 2821TIP3    H1 8340   1.910   1.945   3.395
 2821TIP3    H2 8341   1.831   1.857   3.489
 2822TIP3   OH2 8342   2.035   1.636   3.370
 2822TIP3    H1 8343   2.003   1.722   3.397
 2822TIP3    H2 8344   2.002   1.576   3.437
 2823TIP3   OH2 8345   2.205   2.195   3.905
 2823TIP3    H1 8346   2.240   2.270   3.857
 2823TIP3    H2 8347   2.278   2.163   3.957
 2824TIP3   OH2 8348   1.833   2.090   3.297
 2824TIP3    H1 8349   1.748   2.098   3.340
 2824TIP3    H2 8350   1.872   2.177   3.307
 2825TIP3   OH2 8351   2.548   1.865   3.867
 2825TIP3    H1 8352   2.537   1.864   3.962
 2825TIP3    H2 8353   2.616   1.800   3.850
 2826TIP3   OH2 8354   2.545   1.720   2.767
 2826TIP3    H1 8355   2.605   1.710   2.841
 2826TIP3    H2 8356   2.461   1.685   2.799
 2827TIP3   OH2 8357   2.810   2.348   3.914
 2827TIP3    H1 8358   2.741   2.287   3.937
 2827TIP3    H2 8359   2.773   2.401   3.844
 2828TIP3   OH2 8360   2.865   2.192   2.568
 2828TIP3    H1 8361   2.886   2.253   2.497
 2828TIP3    H2 8362   2.797   2.238   2.619
 2829TIP3   OH2 8363   1.892   0.977   4.464
 2829TIP3    H1 8364   1.840   0.910   4.419
 2829TIP3    H2 8365   1.981   0.944   4.461
 2830TIP3   OH2 8366   2.718   1.684   2.975
 2830TIP3    H1 8367   2.710   1.613   3.039
 2830TIP3    H2 8368   2.812   1.690   2.957
 2831TIP3   OH2 8369   1.628   2.092   4.058
 2831TIP3    H1 8370   1.684   2.034   4.111
 2831TIP3    H2 8371   1.639   2.178   4.097
 2832TIP3   OH2 8372   1.855   1.719   2.753
 2832TIP3    H1 8373   1.881   1.631   2.725
 2832TIP3    H2 8374   1.859   1.716   2.849
 2833TIP3   OH2 8375   1.870   1.705   3.024
 2833TIP3    H1 8376   1.946   1.665   3.067
 2833TIP3    H2 8377   1.873   1.797   3.051
 2834TIP3   OH2 8378   1.616   1.442   3.266
 2834TIP3    H1 8379   1.546   1.482   3.318
 2834TIP3    H2 8380   1.618   1.493   3.185
 2835TIP3   OH2 8381   2.730   1.048   4.122
 2835TIP3    H1 8382   2.813   1.086   4.149
 2835TIP3    H2 8383   2.721   0.969   4.176
 2836TIP3   OH2 8384   2.621   0.777   3.305
 2836TIP3    H1 8385   2.596   0.804   3.217
 2836TIP3    H2 8386   2.664   0.854   3.343
 2837TIP3   OH2 8387   2.116   1.919   2.967
 2837TIP3    H1 8388   2.033   1.935   3.011
 2837TIP3    H2 8389   2.128   1.994   2.909
 2838TIP3   OH2 8390   2.306   0.995   3.409
 2838TIP3    H1 8391   2.367   1.063   3.380
 2838TIP3    H2 8392   2.334   0.974   3.498
 2839TIP3   OH2 8393   2.576   1.282   4.164
 2839TIP3    H1 8394   2.599   1.321   4.248
 2839TIP3    H2 8395   2.624   1.199   4.162
 2840TIP3   OH2 8396   2.437   0.680   3.490
 2840TIP3    H1 8397   2.424   0.759   3.543
 2840TIP3    H2 8398   2.504   0.705   3.426
 2841TIP3   OH2 8399   1.862   1.982   3.049
 2841TIP3    H1 8400   1.843   2.056   2.991
 2841TIP3    H2 8401   1.849   2.017   3.137
 2842TIP3   OH2 8402   3.196   1.168   4.160
 2842TIP3    H1 8403   3.102   1.183   4.170
 2842TIP3    H2 8404   3.203   1.107   4.087
 2843TIP3   OH2 8405   2.861   1.376   3.533
 2843TIP3    H1 8406   2.783   1.322   3.546
 2843TIP3    H2 8407   2.926   1.339   3.592
 2844TIP3   OH2 8408   1.612   1.610   3.045
 2844TIP3    H1 8409   1.701   1.645   3.045
 2844TIP3    H2 8410   1.595   1.587   2.954
 2845TIP3   OH2 8411   2.831   2.353   3.475
 2845TIP3    H1 8412   2.794   2.407   3.405
 2845TIP3    H2 8413   2.925   2.372   3.471
 2846TIP3   OH2 8414   1.921   0.617   4.001
 2846TIP3    H1 8415   1.939   0.579   3.915
 2846TIP3    H2 8416   1.898   0.542   4.055
 2847TIP3   OH2 8417   1.426   1.876   3.416
 2847TIP3    H1 8418   1.387   1.908   3.497
 2847TIP3    H2 8419   1.376   1.919   3.347
 2848TIP3   OH2 8420   1.629   2.390   4.486
 2848TIP3    H1 8421   1.711   2.397   4.535
 2848TIP3    H2 8422   1.616   2.296   4.475
 2849TIP3   OH2 8423   2.091   2.295   4.534
 2849TIP3    H1 8424   2.184   2.272   4.541
 2849TIP3    H2 8425   2.059   2.241   4.462
 2850TIP3   OH2 8426   2.046   1.884   2.647
 2850TIP3    H1 8427   1.974   1.835   2.688
 2850TIP3    H2 8428   2.119   1.822   2.645
 2851TIP3   OH2 8429   2.704   2.243   4.289
 2851TIP3    H1 8430   2.721   2.174   4.353
 2851TIP3    H2 8431   2.777   2.304   4.299
 2852TIP3   OH2 8432   2.500   1.939   2.609
 2852TIP3    H1 8433   2.526   1.868   2.667
 2852TIP3    H2 8434   2.565   1.938   2.539
 2853TIP3   OH2 8435   1.728   1.804   4.672
 2853TIP3    H1 8436   1.751   1.712   4.685
 2853TIP3    H2 8437   1.641   1.802   4.633
 2854TIP3   OH2 8438   2.357   1.879   4.454
 2854TIP3    H1 8439   2.309   1.899   4.374
 2854TIP3    H2 8440   2.397   1.794   4.438
 2855TIP3   OH2 8441   2.229   1.668   2.683
 2855TIP3    H1 8442   2.239   1.688   2.776
 2855TIP3    H2 8443   2.247   1.574   2.677
 2856TIP3   OH2 8444   2.831   1.926   4.083
 2856TIP3    H1 8445   2.904   1.949   4.026
 2856TIP3    H2 8446   2.763   1.990   4.062
 2857TIP3   OH2 8447   1.837   1.551   4.685
 2857TIP3    H1 8448   1.906   1.499   4.644
 2857TIP3    H2 8449   1.866   1.562   4.776
 2858TIP3   OH2 8450   1.990   1.307   3.168
 2858TIP3    H1 8451   1.928   1.303   3.241
 2858TIP3    H2 8452   2.018   1.217   3.155
 2859TIP3   OH2 8453   2.174   1.358   4.364
 2859TIP3    H1 8454   2.102   1.419   4.382
 2859TIP3    H2 8455   2.236   1.409   4.312
 2860TIP3   OH2 8456   2.720   1.799   4.425
 2860TIP3    H1 8457   2.784   1.761   4.364
 2860TIP3    H2 8458   2.718   1.738   4.499
 2861TIP3   OH2 8459   2.883   1.456   2.599
 2861TIP3    H1 8460   2.845   1.407   2.526
 2861TIP3    H2 8461   2.840   1.542   2.595
 2862TIP3   OH2 8462   2.318   1.514   4.187
 2862TIP3    H1 8463   2.383   1.473   4.130
 2862TIP3    H2 8464   2.268   1.572   4.129
 2863TIP3   OH2 8465   2.925   1.467   4.485
 2863TIP3    H1 8466   2.941   1.373   4.488
 2863TIP3    H2 8467   3.006   1.504   4.450
 2864TIP3   OH2 8468   2.951   1.742   4.242
 2864TIP3    H1 8469   2.900   1.806   4.191
 2864TIP3    H2 8470   3.041   1.756   4.213
 2865TIP3   OH2 8471   2.202   1.313   4.658
 2865TIP3    H1 8472   2.145   1.238   4.676
 2865TIP3    H2 8473   2.194   1.327   4.564
 2866TIP3   OH2 8474   2.429   0.789   4.339
 2866TIP3    H1 8475   2.372   0.861   4.310
 2866TIP3    H2 8476   2.376   0.710   4.326
 2867TIP3   OH2 8477   2.615   1.248   4.590
 2867TIP3    H1 8478   2.669   1.241   4.668
 2867TIP3    H2 8479   2.529   1.217   4.617
 2868TIP3   OH2 8480   2.834   1.193   4.424
 2868TIP3    H1 8481   2.754   1.190   4.477
 2868TIP3    H2 8482   2.902   1.155   4.480
 2869TIP3   OH2 8483   3.052   1.139   4.582
 2869TIP3    H1 8484   3.068   1.045   4.588
 2869TIP3    H2 8485   3.049   1.168   4.673
 2870TIP3   OH2 8486   2.074   1.080   4.727
 2870TIP3    H1 8487   2.048   0.993   4.695
 2870TIP3    H2 8488   2.097   1.066   4.819
 2871TIP3   OH2 8489   2.499   0.745   4.604
 2871TIP3    H1 8490   2.565   0.676   4.595
 2871TIP3    H2 8491   2.469   0.762   4.515
 2872TIP3   OH2 8492   2.593   0.953   4.758
 2872TIP3    H1 8493   2.568   0.878   4.704
 2872TIP3    H2 8494   2.519   1.013   4.751
 2873TIP3   OH2 8495   1.851   2.173   2.850
 2873TIP3    H1 8496   1.940   2.156   2.821
 2873TIP3    H2 8497   1.818   2.240   2.790
 2874TIP3   OH2 8498   1.233   2.145   3.465
 2874TIP3    H1 8499   1.160   2.090   3.436
 2874TIP3    H2 8500   1.270   2.100   3.541
 2875TIP3   OH2 8501   1.364   2.006   3.664
 2875TIP3    H1 8502   1.355   1.938   3.730
 2875TIP3    H2 8503   1.418   2.073   3.705
 2876TIP3   OH2 8504   3.090   2.437   3.474
 2876TIP3    H1 8505   3.121   2.455   3.563
 2876TIP3    H2 8506   3.165   2.460   3.418
 2877TIP3   OH2 8507   3.120   2.440   3.760
 2877TIP3    H1 8508   3.078   2.355   3.750
 2877TIP3    H2 8509   3.191   2.425   3.823
 2878TIP3   OH2 8510   3.203   2.143   4.343
 2878TIP3    H1 8511   3.127   2.153   4.401
 2878TIP3    H2 8512   3.239   2.231   4.336
 2879TIP3   OH2 8513   2.989   1.693   2.946
 2879TIP3    H1 8514   3.051   1.751   2.902
 2879TIP3    H2 8515   3.043   1.638   3.003
 2880TIP3   OH2 8516   3.116   1.543   3.156
 2880TIP3    H1 8517   3.065   1.599   3.215
 2880TIP3    H2 8518   3.207   1.564   3.176
 2881TIP3   OH2 8519   3.190   1.903   3.566
 2881TIP3    H1 8520   3.239   1.830   3.527
 2881TIP3    H2 8521   3.205   1.976   3.505
 2882TIP3   OH2 8522   2.985   2.194   3.763
 2882TIP3    H1 8523   2.919   2.241   3.815
 2882TIP3    H2 8524   2.935   2.156   3.691
 2883TIP3   OH2 8525   2.959   1.082   2.671
 2883TIP3    H1 8526   2.961   1.142   2.746
 2883TIP3    H2 8527   2.910   1.006   2.702
 2884TIP3   OH2 8528   2.934   1.332   3.269
 2884TIP3    H1 8529   2.915   1.238   3.265
 2884TIP3    H2 8530   2.918   1.357   3.360
 2885TIP3   OH2 8531   1.550   1.427   4.028
 2885TIP3    H1 8532   1.545   1.399   3.937
 2885TIP3    H2 8533   1.643   1.436   4.046
 2886TIP3   OH2 8534   3.213   1.790   4.159
 2886TIP3    H1 8535   3.276   1.721   4.136
 2886TIP3    H2 8536   3.230   1.860   4.095
 2887TIP3   OH2 8537   3.378   1.569   4.130
 2887TIP3    H1 8538   3.304   1.528   4.174
 2887TIP3    H2 8539   3.453   1.514   4.153
 2888TIP3   OH2 8540   2.832   0.861   2.782
 2888TIP3    H1 8541   2.916   0.822   2.805
 2888TIP3    H2 8542   2.770   0.822   2.844
 2889TIP3   OH2 8543   2.915   1.064   3.189
 2889TIP3    H1 8544   2.965   0.982   3.195
 2889TIP3    H2 8545   2.942   1.102   3.105
 2890TIP3   OH2 8546   3.074   1.260   3.682
 2890TIP3    H1 8547   3.154   1.276   3.632
 2890TIP3    H2 8548   3.090   1.299   3.768
 2891TIP3   OH2 8549   3.150   1.409   3.910
 2891TIP3    H1 8550   3.078   1.440   3.965
 2891TIP3    H2 8551   3.180   1.487   3.863
 2892TIP3   OH2 8552   1.822   1.200   4.729
 2892TIP3    H1 8553   1.912   1.180   4.704
 2892TIP3    H2 8554   1.788   1.118   4.764
 2893TIP3   OH2 8555   3.605   1.000   4.452
 2893TIP3    H1 8556   3.673   0.947   4.411
 2893TIP3    H2 8557   3.565   1.049   4.380
 2894TIP3   OH2 8558   3.046   0.824   3.216
 2894TIP3    H1 8559   3.086   0.813   3.302
 2894TIP3    H2 8560   2.981   0.753   3.210
 2895TIP3   OH2 8561   1.739   0.817   4.067
 2895TIP3    H1 8562   1.794   0.743   4.040
 2895TIP3    H2 8563   1.795   0.893   4.055
 2896TIP3   OH2 8564   1.539   1.131   4.072
 2896TIP3    H1 8565   1.594   1.098   4.001
 2896TIP3    H2 8566   1.549   1.226   4.069
 2897TIP3   OH2 8567   3.453   1.108   4.249
 2897TIP3    H1 8568   3.366   1.147   4.255
 2897TIP3    H2 8569   3.439   1.026   4.201
 2898TIP3   OH2 8570   3.084   0.769   2.847
 2898TIP3    H1 8571   3.132   0.725   2.777
 2898TIP3    H2 8572   3.135   0.848   2.865
 2899TIP3   OH2 8573   2.636   2.342   3.120
 2899TIP3    H1 8574   2.697   2.316   3.051
 2899TIP3    H2 8575   2.687   2.399   3.177
 2900TIP3   OH2 8576   1.789   0.752   4.355
 2900TIP3    H1 8577   1.716   0.748   4.417
 2900TIP3    H2 8578   1.753   0.717   4.274
 2901TIP3   OH2 8579   1.760   2.111   4.498
 2901TIP3    H1 8580   1.667   2.089   4.492
 2901TIP3    H2 8581   1.781   2.102   4.591
 2902TIP3   OH2 8582   1.975   2.154   4.051
 2902TIP3    H1 8583   1.924   2.230   4.022
 2902TIP3    H2 8584   2.060   2.164   4.009
 2903TIP3   OH2 8585   2.368   2.392   4.188
 2903TIP3    H1 8586   2.403   2.386   4.276
 2903TIP3    H2 8587   2.430   2.446   4.140
 2904TIP3   OH2 8588   2.561   2.548   4.067
 2904TIP3    H1 8589   2.625   2.498   4.017
 2904TIP3    H2 8590   2.614   2.607   4.121
 2905TIP3   OH2 8591   3.373   0.857   4.152
 2905TIP3    H1 8592   3.283   0.841   4.122
 2905TIP3    H2 8593   3.415   0.771   4.148
 2906TIP3   OH2 8594   1.630   2.394   4.098
 2906TIP3    H1 8595   1.539   2.410   4.075
 2906TIP3    H2 8596   1.651   2.461   4.163
 2907TIP3   OH2 8597   1.864   2.388   3.952
 2907TIP3    H1 8598   1.781   2.392   4.000
 2907TIP3    H2 8599   1.841   2.412   3.862
 2908TIP3   OH2 8600   2.276   2.411   3.746
 2908TIP3    H1 8601   2.202   2.423   3.686
 2908TIP3    H2 8602   2.286   2.496   3.789
 2909TIP3   OH2 8603   2.537   2.339   3.793
 2909TIP3    H1 8604   2.446   2.364   3.774
 2909TIP3    H2 8605   2.590   2.405   3.747
 2910TIP3   OH2 8606   2.736   2.502   3.687
 2910TIP3    H1 8607   2.745   2.591   3.655
 2910TIP3    H2 8608   2.769   2.447   3.616
 2911TIP3   OH2 8609   1.544   2.177   3.804
 2911TIP3    H1 8610   1.561   2.154   3.896
 2911TIP3    H2 8611   1.621   2.143   3.757
 2912TIP3   OH2 8612   1.756   2.066   3.675
 2912TIP3    H1 8613   1.765   1.981   3.718
 2912TIP3    H2 8614   1.843   2.106   3.682
 2913TIP3   OH2 8615   2.023   2.147   3.701
 2913TIP3    H1 8616   2.041   2.054   3.686
 2913TIP3    H2 8617   2.077   2.169   3.776
 2914TIP3   OH2 8618   2.589   0.790   3.794
 2914TIP3    H1 8619   2.538   0.719   3.833
 2914TIP3    H2 8620   2.654   0.746   3.739
 2915TIP3   OH2 8621   3.081   0.714   3.665
 2915TIP3    H1 8622   3.117   0.769   3.596
 2915TIP3    H2 8623   2.986   0.730   3.662
 2916TIP3   OH2 8624   3.204   0.811   3.440
 2916TIP3    H1 8625   3.273   0.749   3.415
 2916TIP3    H2 8626   3.238   0.897   3.415
 2917TIP3   OH2 8627   2.228   0.619   3.683
 2917TIP3    H1 8628   2.293   0.622   3.613
 2917TIP3    H2 8629   2.278   0.600   3.762
 2918TIP3   OH2 8630   2.796   0.678   3.643
 2918TIP3    H1 8631   2.791   0.640   3.555
 2918TIP3    H2 8632   2.800   0.603   3.702
 2919TIP3   OH2 8633   2.848   0.631   3.209
 2919TIP3    H1 8634   2.768   0.681   3.226
 2919TIP3    H2 8635   2.834   0.549   3.256
 2920TIP3   OH2 8636   1.280   2.020   3.207
 2920TIP3    H1 8637   1.194   1.982   3.225
 2920TIP3    H2 8638   1.283   2.099   3.261
 2921TIP3   OH2 8639   2.195   0.754   3.338
 2921TIP3    H1 8640   2.263   0.689   3.357
 2921TIP3    H2 8641   2.239   0.838   3.351
 2922TIP3   OH2 8642   2.108   2.119   2.775
 2922TIP3    H1 8643   2.197   2.143   2.748
 2922TIP3    H2 8644   2.085   2.045   2.718
 2923TIP3   OH2 8645   2.801   2.263   2.912
 2923TIP3    H1 8646   2.797   2.168   2.901
 2923TIP3    H2 8647   2.766   2.299   2.830
 2924TIP3   OH2 8648   2.049   0.792   4.686
 2924TIP3    H1 8649   2.018   0.725   4.747
 2924TIP3    H2 8650   2.141   0.805   4.709
 2925TIP3   OH2 8651   2.302   0.792   4.798
 2925TIP3    H1 8652   2.372   0.769   4.737
 2925TIP3    H2 8653   2.310   0.729   4.869
 2926TIP3   OH2 8654   1.402   2.087   2.940
 2926TIP3    H1 8655   1.372   2.056   3.026
 2926TIP3    H2 8656   1.467   2.022   2.913
 2927TIP3   OH2 8657   3.114   0.870   4.577
 2927TIP3    H1 8658   3.131   0.839   4.666
 2927TIP3    H2 8659   3.199   0.864   4.533
 2928TIP3   OH2 8660   3.027   2.406   4.082
 2928TIP3    H1 8661   2.955   2.378   4.025
 2928TIP3    H2 8662   3.018   2.502   4.085
 2929TIP3   OH2 8663   4.310   1.798   2.824
 2929TIP3    H1 8664   4.279   1.883   2.795
 2929TIP3    H2 8665   4.239   1.738   2.803
 2930TIP3   OH2 8666   4.319   1.789   3.246
 2930TIP3    H1 8667   4.370   1.768   3.324
 2930TIP3    H2 8668   4.271   1.709   3.227
 2931TIP3   OH2 8669   3.594   1.629   3.587
 2931TIP3    H1 8670   3.639   1.582   3.658
 2931TIP3    H2 8671   3.665   1.660   3.531
 2932TIP3   OH2 8672   4.578   2.095   2.922
 2932TIP3    H1 8673   4.565   2.028   2.988
 2932TIP3    H2 8674   4.597   2.174   2.972
 2933TIP3   OH2 8675   3.558   2.050   3.244
 2933TIP3    H1 8676   3.541   1.968   3.197
 2933TIP3    H2 8677   3.652   2.050   3.258
 2934TIP3   OH2 8678   3.232   1.260   3.190
 2934TIP3    H1 8679   3.322   1.275   3.162
 2934TIP3    H2 8680   3.237   1.182   3.246
 2935TIP3   OH2 8681   3.368   1.596   3.247
 2935TIP3    H1 8682   3.427   1.526   3.273
 2935TIP3    H2 8683   3.423   1.655   3.195
 2936TIP3   OH2 8684   4.237   2.519   2.936
 2936TIP3    H1 8685   4.263   2.458   2.867
 2936TIP3    H2 8686   4.243   2.469   3.017
 2937TIP3   OH2 8687   4.104   2.010   3.245
 2937TIP3    H1 8688   4.147   1.931   3.212
 2937TIP3    H2 8689   4.176   2.064   3.277
 2938TIP3   OH2 8690   5.155   1.326   3.265
 2938TIP3    H1 8691   5.168   1.412   3.305
 2938TIP3    H2 8692   5.182   1.337   3.174
 2939TIP3   OH2 8693   4.527   1.495   3.283
 2939TIP3    H1 8694   4.555   1.408   3.312
 2939TIP3    H2 8695   4.488   1.481   3.197
 2940TIP3   OH2 8696   3.878   1.167   3.237
 2940TIP3    H1 8697   3.851   1.242   3.183
 2940TIP3    H2 8698   3.824   1.095   3.206
 2941TIP3   OH2 8699   4.575   1.256   2.883
 2941TIP3    H1 8700   4.639   1.250   2.954
 2941TIP3    H2 8701   4.625   1.291   2.809
 2942TIP3   OH2 8702   3.498   1.364   3.347
 2942TIP3    H1 8703   3.582   1.357   3.392
 2942TIP3    H2 8704   3.507   1.305   3.271
 2943TIP3   OH2 8705   3.930   1.554   3.236
 2943TIP3    H1 8706   4.024   1.547   3.221
 2943TIP3    H2 8707   3.891   1.496   3.171
 2944TIP3   OH2 8708   5.203   1.550   3.429
 2944TIP3    H1 8709   5.114   1.585   3.423
 2944TIP3    H2 8710   5.237   1.587   3.511
 2945TIP3   OH2 8711   3.853   1.161   3.691
 2945TIP3    H1 8712   3.806   1.199   3.618
 2945TIP3    H2 8713   3.799   1.179   3.767
 2946TIP3   OH2 8714   4.208   2.012   2.681
 2946TIP3    H1 8715   4.165   1.977   2.603
 2946TIP3    H2 8716   4.156   2.089   2.705
 2947TIP3   OH2 8717   3.947   1.939   3.463
 2947TIP3    H1 8718   3.891   2.011   3.492
 2947TIP3    H2 8719   3.991   1.973   3.385
 2948TIP3   OH2 8720   4.730   1.277   3.107
 2948TIP3    H1 8721   4.686   1.257   3.190
 2948TIP3    H2 8722   4.785   1.353   3.128
 2949TIP3   OH2 8723   3.746   1.270   3.459
 2949TIP3    H1 8724   3.798   1.346   3.486
 2949TIP3    H2 8725   3.795   1.231   3.387
 2950TIP3   OH2 8726   3.790   2.143   3.565
 2950TIP3    H1 8727   3.778   2.234   3.537
 2950TIP3    H2 8728   3.711   2.124   3.616
 2951TIP3   OH2 8729   3.174   1.855   2.821
 2951TIP3    H1 8730   3.151   1.887   2.733
 2951TIP3    H2 8731   3.208   1.932   2.866
 2952TIP3   OH2 8732   4.613   2.342   3.065
 2952TIP3    H1 8733   4.525   2.334   3.102
 2952TIP3    H2 8734   4.612   2.424   3.016
 2953TIP3   OH2 8735   4.956   1.220   3.436
 2953TIP3    H1 8736   4.871   1.240   3.397
 2953TIP3    H2 8737   5.020   1.246   3.370
 2954TIP3   OH2 8738   4.197   0.851   3.430
 2954TIP3    H1 8739   4.190   0.759   3.456
 2954TIP3    H2 8740   4.119   0.892   3.468
 2955TIP3   OH2 8741   4.322   2.378   2.713
 2955TIP3    H1 8742   4.375   2.298   2.703
 2955TIP3    H2 8743   4.381   2.448   2.686
 2956TIP3   OH2 8744   4.456   2.145   2.678
 2956TIP3    H1 8745   4.384   2.082   2.675
 2956TIP3    H2 8746   4.507   2.119   2.755
 2957TIP3   OH2 8747   4.867   2.219   3.407
 2957TIP3    H1 8748   4.840   2.148   3.348
 2957TIP3    H2 8749   4.851   2.299   3.357
 2958TIP3   OH2 8750   4.128   1.636   2.685
 2958TIP3    H1 8751   4.044   1.679   2.669
 2958TIP3    H2 8752   4.172   1.639   2.600
 2959TIP3   OH2 8753   4.120   1.446   2.359
 2959TIP3    H1 8754   4.180   1.500   2.410
 2959TIP3    H2 8755   4.175   1.378   2.320
 2960TIP3   OH2 8756   5.022   1.894   3.270
 2960TIP3    H1 8757   4.937   1.938   3.266
 2960TIP3    H2 8758   5.059   1.906   3.182
 2961TIP3   OH2 8759   4.500   1.732   2.638
 2961TIP3    H1 8760   4.446   1.759   2.712
 2961TIP3    H2 8761   4.583   1.705   2.677
 2962TIP3   OH2 8762   4.726   1.751   3.583
 2962TIP3    H1 8763   4.717   1.834   3.630
 2962TIP3    H2 8764   4.645   1.745   3.531
 2963TIP3   OH2 8765   3.848   2.129   3.182
 2963TIP3    H1 8766   3.817   2.108   3.093
 2963TIP3    H2 8767   3.932   2.085   3.188
 2964TIP3   OH2 8768   3.821   1.693   3.444
 2964TIP3    H1 8769   3.847   1.657   3.360
 2964TIP3    H2 8770   3.859   1.781   3.446
 2965TIP3   OH2 8771   4.371   2.338   3.189
 2965TIP3    H1 8772   4.356   2.417   3.241
 2965TIP3    H2 8773   4.353   2.266   3.249
 2966TIP3   OH2 8774   3.991   2.232   3.735
 2966TIP3    H1 8775   3.929   2.289   3.782
 2966TIP3    H2 8776   3.936   2.182   3.675
 2967TIP3   OH2 8777   4.323   1.595   2.480
 2967TIP3    H1 8778   4.382   1.651   2.531
 2967TIP3    H2 8779   4.354   1.602   2.390
 2968TIP3   OH2 8780   3.739   1.771   3.897
 2968TIP3    H1 8781   3.746   1.867   3.905
 2968TIP3    H2 8782   3.646   1.755   3.883
 2969TIP3   OH2 8783   4.076   2.253   2.716
 2969TIP3    H1 8784   4.157   2.304   2.724
 2969TIP3    H2 8785   4.014   2.314   2.674
 2970TIP3   OH2 8786   3.780   2.389   3.825
 2970TIP3    H1 8787   3.757   2.404   3.733
 2970TIP3    H2 8788   3.696   2.377   3.870
 2971TIP3   OH2 8789   4.832   0.807   2.532
 2971TIP3    H1 8790   4.756   0.831   2.584
 2971TIP3    H2 8791   4.847   0.883   2.475
 2972TIP3   OH2 8792   3.577   1.565   2.843
 2972TIP3    H1 8793   3.491   1.583   2.806
 2972TIP3    H2 8794   3.585   1.626   2.917
 2973TIP3   OH2 8795   4.663   2.184   2.082
 2973TIP3    H1 8796   4.655   2.277   2.060
 2973TIP3    H2 8797   4.753   2.162   2.060
 2974TIP3   OH2 8798   3.379   1.949   3.771
 2974TIP3    H1 8799   3.313   1.931   3.704
 2974TIP3    H2 8800   3.412   1.863   3.796
 2975TIP3   OH2 8801   3.297   2.112   3.400
 2975TIP3    H1 8802   3.376   2.087   3.353
 2975TIP3    H2 8803   3.323   2.185   3.456
 2976TIP3   OH2 8804   5.070   2.630   3.463
 2976TIP3    H1 8805   5.097   2.539   3.473
 2976TIP3    H2 8806   4.988   2.636   3.513
 2977TIP3   OH2 8807   4.183   2.376   3.600
 2977TIP3    H1 8808   4.173   2.468   3.628
 2977TIP3    H2 8809   4.114   2.329   3.647
 2978TIP3   OH2 8810   3.962   2.474   2.556
 2978TIP3    H1 8811   3.920   2.455   2.472
 2978TIP3    H2 8812   3.923   2.557   2.585
 2979TIP3   OH2 8813   3.396   2.337   2.937
 2979TIP3    H1 8814   3.443   2.329   3.020
 2979TIP3    H2 8815   3.350   2.253   2.927
 2980TIP3   OH2 8816   4.166   2.415   2.186
 2980TIP3    H1 8817   4.223   2.346   2.152
 2980TIP3    H2 8818   4.198   2.431   2.275
 2981TIP3   OH2 8819   4.217   2.457   2.454
 2981TIP3    H1 8820   4.130   2.459   2.495
 2981TIP3    H2 8821   4.274   2.418   2.520
 2982TIP3   OH2 8822   4.970   1.710   3.735
 2982TIP3    H1 8823   4.887   1.719   3.688
 2982TIP3    H2 8824   4.988   1.616   3.733
 2983TIP3   OH2 8825   3.571   2.143   3.735
 2983TIP3    H1 8826   3.624   2.131   3.814
 2983TIP3    H2 8827   3.502   2.077   3.742
 2984TIP3   OH2 8828   3.958   0.941   3.553
 2984TIP3    H1 8829   3.874   0.907   3.522
 2984TIP3    H2 8830   3.936   1.024   3.596
 2985TIP3   OH2 8831   4.499   1.069   3.756
 2985TIP3    H1 8832   4.568   1.044   3.818
 2985TIP3    H2 8833   4.418   1.053   3.804
 2986TIP3   OH2 8834   4.724   1.485   3.674
 2986TIP3    H1 8835   4.683   1.481   3.761
 2986TIP3    H2 8836   4.708   1.575   3.645
 2987TIP3   OH2 8837   4.413   1.596   2.227
 2987TIP3    H1 8838   4.365   1.592   2.145
 2987TIP3    H2 8839   4.498   1.633   2.204
 2988TIP3   OH2 8840   4.104   0.991   2.519
 2988TIP3    H1 8841   4.075   0.997   2.610
 2988TIP3    H2 8842   4.065   0.910   2.487
 2989TIP3   OH2 8843   3.906   1.468   3.572
 2989TIP3    H1 8844   3.858   1.477   3.655
 2989TIP3    H2 8845   3.887   1.548   3.524
 2990TIP3   OH2 8846   3.780   1.371   3.077
 2990TIP3    H1 8847   3.712   1.438   3.067
 2990TIP3    H2 8848   3.781   1.324   2.994
 2991TIP3   OH2 8849   4.256   1.428   2.812
 2991TIP3    H1 8850   4.208   1.502   2.775
 2991TIP3    H2 8851   4.315   1.400   2.742
 2992TIP3   OH2 8852   4.444   1.692   3.881
 2992TIP3    H1 8853   4.418   1.625   3.944
 2992TIP3    H2 8854   4.537   1.708   3.901
 2993TIP3   OH2 8855   4.428   1.441   3.033
 2993TIP3    H1 8856   4.358   1.462   2.971
 2993TIP3    H2 8857   4.475   1.369   2.993
 2994TIP3   OH2 8858   3.738   1.493   3.788
 2994TIP3    H1 8859   3.746   1.561   3.855
 2994TIP3    H2 8860   3.721   1.413   3.837
 2995TIP3   OH2 8861   3.749   0.961   2.510
 2995TIP3    H1 8862   3.748   0.969   2.605
 2995TIP3    H2 8863   3.676   1.014   2.480
 2996TIP3   OH2 8864   3.321   1.032   3.326
 2996TIP3    H1 8865   3.396   1.054   3.381
 2996TIP3    H2 8866   3.359   0.985   3.252
 2997TIP3   OH2 8867   3.215   1.011   2.897
 2997TIP3    H1 8868   3.250   1.046   2.815
 2997TIP3    H2 8869   3.151   1.075   2.925
 2998TIP3   OH2 8870   4.480   1.695   3.459
 2998TIP3    H1 8871   4.503   1.628   3.394
 2998TIP3    H2 8872   4.431   1.647   3.526
 2999TIP3   OH2 8873   4.146   1.141   3.133
 2999TIP3    H1 8874   4.067   1.149   3.187
 2999TIP3    H2 8875   4.218   1.134   3.196
 3000TIP3   OH2 8876   3.512   1.198   3.124
 3000TIP3    H1 8877   3.513   1.214   3.029
 3000TIP3    H2 8878   3.575   1.127   3.136
 3001TIP3   OH2 8879   3.789   1.224   2.845
 3001TIP3    H1 8880   3.883   1.241   2.837
 3001TIP3    H2 8881   3.754   1.246   2.759
 3002TIP3   OH2 8882   4.585   1.231   3.344
 3002TIP3    H1 8883   4.566   1.250   3.436
 3002TIP3    H2 8884   4.516   1.170   3.317
 3003TIP3   OH2 8885   3.688   1.250   2.592
 3003TIP3    H1 8886   3.615   1.222   2.537
 3003TIP3    H2 8887   3.746   1.297   2.532
 3004TIP3   OH2 8888   4.788   2.942   3.557
 3004TIP3    H1 8889   4.782   2.956   3.462
 3004TIP3    H2 8890   4.862   2.995   3.585
 3005TIP3   OH2 8891   3.727   2.045   3.970
 3005TIP3    H1 8892   3.808   2.066   4.016
 3005TIP3    H2 8893   3.658   2.058   4.035
 3006TIP3   OH2 8894   4.208   1.519   3.240
 3006TIP3    H1 8895   4.271   1.467   3.190
 3006TIP3    H2 8896   4.202   1.474   3.325
 3007TIP3   OH2 8897   3.693   0.983   3.132
 3007TIP3    H1 8898   3.663   0.907   3.183
 3007TIP3    H2 8899   3.719   0.946   3.048
 3008TIP3   OH2 8900   4.169   1.414   3.501
 3008TIP3    H1 8901   4.080   1.444   3.522
 3008TIP3    H2 8902   4.226   1.469   3.554
 3009TIP3   OH2 8903   3.884   1.769   2.639
 3009TIP3    H1 8904   3.812   1.711   2.612
 3009TIP3    H2 8905   3.858   1.798   2.726
 3010TIP3   OH2 8906   4.787   2.029   3.223
 3010TIP3    H1 8907   4.821   2.080   3.149
 3010TIP3    H2 8908   4.708   1.987   3.189
 3011TIP3   OH2 8909   4.358   1.096   2.541
 3011TIP3    H1 8910   4.265   1.078   2.531
 3011TIP3    H2 8911   4.364   1.191   2.550
 3012TIP3   OH2 8912   4.314   2.115   3.634
 3012TIP3    H1 8913   4.361   2.105   3.716
 3012TIP3    H2 8914   4.271   2.200   3.640
 3013TIP3   OH2 8915   4.423   1.360   2.596
 3013TIP3    H1 8916   4.518   1.362   2.605
 3013TIP3    H2 8917   4.401   1.438   2.546
 3014TIP3   OH2 8918   4.040   1.920   2.474
 3014TIP3    H1 8919   3.995   2.005   2.467
 3014TIP3    H2 8920   3.983   1.868   2.531
 3015TIP3   OH2 8921   3.463   1.711   3.900
 3015TIP3    H1 8922   3.458   1.678   3.990
 3015TIP3    H2 8923   3.393   1.666   3.854
 3016TIP3   OH2 8924   4.215   1.852   3.923
 3016TIP3    H1 8925   4.144   1.795   3.894
 3016TIP3    H2 8926   4.295   1.809   3.891
 3017TIP3   OH2 8927   4.454   2.402   3.526
 3017TIP3    H1 8928   4.360   2.387   3.528
 3017TIP3    H2 8929   4.475   2.435   3.614
 3018TIP3   OH2 8930   4.842   1.450   2.422
 3018TIP3    H1 8931   4.781   1.405   2.363
 3018TIP3    H2 8932   4.849   1.538   2.387
 3019TIP3   OH2 8933   5.107   2.353   3.486
 3019TIP3    H1 8934   5.018   2.320   3.499
 3019TIP3    H2 8935   5.135   2.314   3.403
 3020TIP3   OH2 8936   4.578   2.254   2.347
 3020TIP3    H1 8937   4.552   2.183   2.406
 3020TIP3    H2 8938   4.600   2.209   2.265
 3021TIP3   OH2 8939   4.562   1.890   3.119
 3021TIP3    H1 8940   4.473   1.867   3.146
 3021TIP3    H2 8941   4.597   1.810   3.080
 3022TIP3   OH2 8942   3.707   2.113   2.941
 3022TIP3    H1 8943   3.690   2.190   2.886
 3022TIP3    H2 8944   3.621   2.074   2.955
 3023TIP3   OH2 8945   3.198   1.423   2.636
 3023TIP3    H1 8946   3.251   1.494   2.670
 3023TIP3    H2 8947   3.117   1.427   2.686
 3024TIP3   OH2 8948   3.783   1.857   2.873
 3024TIP3    H1 8949   3.780   1.950   2.895
 3024TIP3    H2 8950   3.723   1.816   2.935
 3025TIP3   OH2 8951   3.998   2.451   3.393
 3025TIP3    H1 8952   4.033   2.525   3.343
 3025TIP3    H2 8953   4.074   2.416   3.441
 3026TIP3   OH2 8954   3.628   2.341   2.791
 3026TIP3    H1 8955   3.542   2.352   2.831
 3026TIP3    H2 8956   3.668   2.428   2.796
 3027TIP3   OH2 8957   4.340   2.114   3.358
 3027TIP3    H1 8958   4.332   2.112   3.453
 3027TIP3    H2 8959   4.407   2.049   3.338
 3028TIP3   OH2 8960   4.352   1.988   2.229
 3028TIP3    H1 8961   4.404   1.962   2.304
 3028TIP3    H2 8962   4.270   1.940   2.238
 3029TIP3   OH2 8963   4.606   2.604   3.402
 3029TIP3    H1 8964   4.537   2.543   3.427
 3029TIP3    H2 8965   4.569   2.656   3.331
 3030TIP3   OH2 8966   4.649   2.457   2.034
 3030TIP3    H1 8967   4.662   2.516   1.960
 3030TIP3    H2 8968   4.580   2.498   2.085
 3031TIP3   OH2 8969   3.685   1.237   3.902
 3031TIP3    H1 8970   3.590   1.247   3.906
 3031TIP3    H2 8971   3.707   1.182   3.977
 3032TIP3   OH2 8972   4.525   1.909   2.424
 3032TIP3    H1 8973   4.508   1.856   2.502
 3032TIP3    H2 8974   4.620   1.916   2.420
 3033TIP3   OH2 8975   3.418   2.338   3.557
 3033TIP3    H1 8976   3.471   2.281   3.613
 3033TIP3    H2 8977   3.431   2.425   3.593
 3034TIP3   OH2 8978   3.689   1.963   2.255
 3034TIP3    H1 8979   3.705   1.873   2.226
 3034TIP3    H2 8980   3.680   1.957   2.350
 3035TIP3   OH2 8981   3.644   1.972   2.529
 3035TIP3    H1 8982   3.709   1.945   2.594
 3035TIP3    H2 8983   3.644   2.068   2.535
 3036TIP3   OH2 8984   3.337   1.651   2.720
 3036TIP3    H1 8985   3.290   1.709   2.780
 3036TIP3    H2 8986   3.373   1.709   2.653
 3037TIP3   OH2 8987   4.531   1.297   3.605
 3037TIP3    H1 8988   4.609   1.342   3.638
 3037TIP3    H2 8989   4.522   1.221   3.662
 3038TIP3   OH2 8990   4.426   1.038   2.802
 3038TIP3    H1 8991   4.402   1.058   2.711
 3038TIP3    H2 8992   4.470   1.117   2.833
 3039TIP3   OH2 8993   3.906   2.156   2.454
 3039TIP3    H1 8994   3.822   2.182   2.492
 3039TIP3    H2 8995   3.936   2.233   2.405
 3040TIP3   OH2 8996   4.069   1.238   2.882
 3040TIP3    H1 8997   4.130   1.307   2.856
 3040TIP3    H2 8998   4.094   1.217   2.973
 3041TIP3   OH2 8999   4.371   1.532   3.653
 3041TIP3    H1 9000   4.395   1.574   3.735
 3041TIP3    H2 9001   4.421   1.450   3.652
 3042TIP3   OH2 9002   4.236   0.931   2.971
 3042TIP3    H1 9003   4.212   1.008   3.023
 3042TIP3    H2 9004   4.308   0.961   2.915
 3043TIP3   OH2 9005   3.659   2.246   2.536
 3043TIP3    H1 9006   3.639   2.319   2.478
 3043TIP3    H2 9007   3.647   2.281   2.624
 3044TIP3   OH2 9008   3.753   0.955   2.791
 3044TIP3    H1 9009   3.745   1.046   2.817
 3044TIP3    H2 9010   3.848   0.938   2.790
 3045TIP3   OH2 9011   4.988   1.431   3.649
 3045TIP3    H1 9012   4.893   1.440   3.662
 3045TIP3    H2 9013   4.995   1.373   3.574
 3046TIP3   OH2 9014   4.653   1.631   3.031
 3046TIP3    H1 9015   4.575   1.576   3.041
 3046TIP3    H2 9016   4.719   1.591   3.088
 3047TIP3   OH2 9017   3.400   1.844   2.521
 3047TIP3    H1 9018   3.473   1.904   2.535
 3047TIP3    H2 9019   3.433   1.780   2.457
 3048TIP3   OH2 9020   3.234   1.142   2.658
 3048TIP3    H1 9021   3.240   1.237   2.659
 3048TIP3    H2 9022   3.140   1.124   2.654
 3049TIP3   OH2 9023   4.629   2.605   2.971
 3049TIP3    H1 9024   4.586   2.660   2.905
 3049TIP3    H2 9025   4.722   2.618   2.956
 3050TIP3   OH2 9026   3.697   0.854   3.511
 3050TIP3    H1 9027   3.669   0.820   3.426
 3050TIP3    H2 9028   3.688   0.779   3.571
 3051TIP3   OH2 9029   3.225   2.117   2.916
 3051TIP3    H1 9030   3.181   2.153   2.993
 3051TIP3    H2 9031   3.180   2.158   2.842
 3052TIP3   OH2 9032   3.432   2.652   3.969
 3052TIP3    H1 9033   3.510   2.662   4.024
 3052TIP3    H2 9034   3.423   2.558   3.957
 3053TIP3   OH2 9035   3.889   2.548   4.023
 3053TIP3    H1 9036   3.982   2.523   4.026
 3053TIP3    H2 9037   3.853   2.496   3.951
 3054TIP3   OH2 9038   3.837   2.169   2.145
 3054TIP3    H1 9039   3.793   2.098   2.192
 3054TIP3    H2 9040   3.920   2.131   2.116
 3055TIP3   OH2 9041   4.508   2.492   3.780
 3055TIP3    H1 9042   4.526   2.423   3.844
 3055TIP3    H2 9043   4.580   2.554   3.792
 3056TIP3   OH2 9044   4.313   2.214   2.078
 3056TIP3    H1 9045   4.346   2.144   2.135
 3056TIP3    H2 9046   4.370   2.210   2.001
 3057TIP3   OH2 9047   3.521   2.047   4.160
 3057TIP3    H1 9048   3.541   1.955   4.172
 3057TIP3    H2 9049   3.434   2.049   4.120
 3058TIP3   OH2 9050   3.525   1.655   2.370
 3058TIP3    H1 9051   3.574   1.627   2.447
 3058TIP3    H2 9052   3.592   1.670   2.303
 3059TIP3   OH2 9053   4.147   2.127   3.938
 3059TIP3    H1 9054   4.102   2.149   3.856
 3059TIP3    H2 9055   4.182   2.039   3.923
 3060TIP3   OH2 9056   4.102   1.867   2.214
 3060TIP3    H1 9057   4.074   1.876   2.305
 3060TIP3    H2 9058   4.074   1.779   2.188
 3061TIP3   OH2 9059   4.631   2.182   3.560
 3061TIP3    H1 9060   4.707   2.208   3.508
 3061TIP3    H2 9061   4.565   2.248   3.540
 3062TIP3   OH2 9062   3.631   1.792   4.173
 3062TIP3    H1 9063   3.701   1.777   4.109
 3062TIP3    H2 9064   3.678   1.810   4.255
 3063TIP3   OH2 9065   3.684   1.585   2.584
 3063TIP3    H1 9066   3.657   1.563   2.673
 3063TIP3    H2 9067   3.739   1.511   2.557
 3064TIP3   OH2 9068   4.006   1.679   3.834
 3064TIP3    H1 9069   3.918   1.715   3.844
 3064TIP3    H2 9070   4.034   1.708   3.747
 3065TIP3   OH2 9071   3.849   1.407   2.435
 3065TIP3    H1 9072   3.816   1.417   2.346
 3065TIP3    H2 9073   3.944   1.417   2.427
 3066TIP3   OH2 9074   4.504   2.050   3.906
 3066TIP3    H1 9075   4.571   2.011   3.849
 3066TIP3    H2 9076   4.500   1.991   3.982
 3067TIP3   OH2 9077   4.632   1.704   2.096
 3067TIP3    H1 9078   4.614   1.659   2.013
 3067TIP3    H2 9079   4.607   1.795   2.079
 3068TIP3   OH2 9080   4.107   1.443   3.934
 3068TIP3    H1 9081   4.109   1.374   3.868
 3068TIP3    H2 9082   4.074   1.520   3.888
 3069TIP3   OH2 9083   4.114   1.245   3.729
 3069TIP3    H1 9084   4.142   1.284   3.646
 3069TIP3    H2 9085   4.023   1.220   3.714
 3070TIP3   OH2 9086   4.117   1.781   3.609
 3070TIP3    H1 9087   4.204   1.815   3.588
 3070TIP3    H2 9088   4.057   1.834   3.557
 3071TIP3   OH2 9089   4.713   1.731   3.979
 3071TIP3    H1 9090   4.754   1.645   3.982
 3071TIP3    H2 9091   4.786   1.792   3.969
 3072TIP3   OH2 9092   4.737   1.996   3.725
 3072TIP3    H1 9093   4.686   2.060   3.675
 3072TIP3    H2 9094   4.826   2.007   3.694
 3073TIP3   OH2 9095   3.994   1.520   4.180
 3073TIP3    H1 9096   3.924   1.457   4.198
 3073TIP3    H2 9097   4.022   1.501   4.090
 3074TIP3   OH2 9098   4.235   1.017   3.837
 3074TIP3    H1 9099   4.195   1.097   3.802
 3074TIP3    H2 9100   4.168   0.950   3.823
 3075TIP3   OH2 9101   4.362   1.481   4.039
 3075TIP3    H1 9102   4.350   1.468   4.133
 3075TIP3    H2 9103   4.277   1.461   4.000
 3076TIP3   OH2 9104   4.611   1.442   3.915
 3076TIP3    H1 9105   4.531   1.439   3.968
 3076TIP3    H2 9106   4.681   1.415   3.975
 3077TIP3   OH2 9107   4.846   1.402   4.062
 3077TIP3    H1 9108   4.859   1.307   4.069
 3077TIP3    H2 9109   4.841   1.432   4.153
 3078TIP3   OH2 9110   3.819   1.307   4.244
 3078TIP3    H1 9111   3.827   1.219   4.206
 3078TIP3    H2 9112   3.859   1.299   4.330
 3079TIP3   OH2 9113   4.299   0.989   4.102
 3079TIP3    H1 9114   4.368   0.923   4.094
 3079TIP3    H2 9115   4.269   1.003   4.012
 3080TIP3   OH2 9116   4.399   1.201   4.247
 3080TIP3    H1 9117   4.368   1.129   4.192
 3080TIP3    H2 9118   4.328   1.264   4.248
 3081TIP3   OH2 9119   3.655   2.462   2.362
 3081TIP3    H1 9120   3.744   2.442   2.333
 3081TIP3    H2 9121   3.616   2.509   2.288
 3082TIP3   OH2 9122   3.129   1.857   2.524
 3082TIP3    H1 9123   3.224   1.868   2.527
 3082TIP3    H2 9124   3.116   1.765   2.499
 3083TIP3   OH2 9125   3.016   2.415   2.996
 3083TIP3    H1 9126   2.951   2.357   2.956
 3083TIP3    H2 9127   3.063   2.359   3.058
 3084TIP3   OH2 9128   3.163   2.253   3.167
 3084TIP3    H1 9129   3.163   2.180   3.230
 3084TIP3    H2 9130   3.214   2.321   3.210
 3085TIP3   OH2 9131   4.899   2.656   2.962
 3085TIP3    H1 9132   4.916   2.685   3.052
 3085TIP3    H2 9133   4.951   2.716   2.908
 3086TIP3   OH2 9134   4.908   2.692   3.241
 3086TIP3    H1 9135   4.865   2.606   3.240
 3086TIP3    H2 9136   4.977   2.683   3.306
 3087TIP3   OH2 9137   4.991   2.395   3.813
 3087TIP3    H1 9138   4.917   2.402   3.874
 3087TIP3    H2 9139   5.033   2.481   3.817
 3088TIP3   OH2 9140   4.803   1.911   2.428
 3088TIP3    H1 9141   4.860   1.981   2.398
 3088TIP3    H2 9142   4.848   1.872   2.503
 3089TIP3   OH2 9143   4.929   1.766   2.629
 3089TIP3    H1 9144   4.861   1.726   2.684
 3089TIP3    H2 9145   4.993   1.800   2.690
 3090TIP3   OH2 9146   4.979   2.172   3.071
 3090TIP3    H1 9147   5.028   2.102   3.028
 3090TIP3    H2 9148   4.976   2.242   3.005
 3091TIP3   OH2 9149   4.783   2.441   3.263
 3091TIP3    H1 9150   4.716   2.488   3.313
 3091TIP3    H2 9151   4.735   2.401   3.190
 3092TIP3   OH2 9152   4.834   1.683   2.278
 3092TIP3    H1 9153   4.763   1.683   2.214
 3092TIP3    H2 9154   4.820   1.762   2.329
 3093TIP3   OH2 9155   4.679   1.338   2.240
 3093TIP3    H1 9156   4.627   1.366   2.165
 3093TIP3    H2 9157   4.677   1.242   2.236
 3094TIP3   OH2 9158   4.726   1.626   2.763
 3094TIP3    H1 9159   4.728   1.531   2.747
 3094TIP3    H2 9160   4.706   1.634   2.857
 3095TIP3   OH2 9161   3.339   1.675   3.511
 3095TIP3    H1 9162   3.337   1.653   3.418
 3095TIP3    H2 9163   3.431   1.667   3.537
 3096TIP3   OH2 9164   4.987   2.042   3.616
 3096TIP3    H1 9165   5.058   1.982   3.592
 3096TIP3    H2 9166   4.970   2.091   3.536
 3097TIP3   OH2 9167   5.181   1.836   3.611
 3097TIP3    H1 9168   5.106   1.795   3.656
 3097TIP3    H2 9169   5.255   1.780   3.634
 3098TIP3   OH2 9170   4.651   1.069   2.214
 3098TIP3    H1 9171   4.716   1.034   2.274
 3098TIP3    H2 9172   4.569   1.025   2.238
 3099TIP3   OH2 9173   4.716   1.350   2.655
 3099TIP3    H1 9174   4.762   1.267   2.666
 3099TIP3    H2 9175   4.758   1.391   2.579
 3100TIP3   OH2 9176   4.868   1.510   3.175
 3100TIP3    H1 9177   4.948   1.528   3.126
 3100TIP3    H2 9178   4.882   1.552   3.260
 3101TIP3   OH2 9179   4.943   1.663   3.401
 3101TIP3    H1 9180   4.870   1.691   3.457
 3101TIP3    H2 9181   4.972   1.743   3.358
 3102TIP3   OH2 9182   3.554   1.359   4.180
 3102TIP3    H1 9183   3.647   1.358   4.198
 3102TIP3    H2 9184   3.520   1.278   4.217
 3103TIP3   OH2 9185   5.396   1.270   3.937
 3103TIP3    H1 9186   5.463   1.211   3.901
 3103TIP3    H2 9187   5.363   1.317   3.861
 3104TIP3   OH2 9188   4.833   1.101   2.704
 3104TIP3    H1 9189   4.878   1.086   2.788
 3104TIP3    H2 9190   4.770   1.029   2.698
 3105TIP3   OH2 9191   3.533   1.078   3.498
 3105TIP3    H1 9192   3.588   1.002   3.514
 3105TIP3    H2 9193   3.595   1.151   3.491
 3106TIP3   OH2 9194   3.317   1.340   3.571
 3106TIP3    H1 9195   3.365   1.331   3.489
 3106TIP3    H2 9196   3.345   1.425   3.606
 3107TIP3   OH2 9197   5.252   1.380   3.733
 3107TIP3    H1 9198   5.166   1.418   3.754
 3107TIP3    H2 9199   5.231   1.301   3.683
 3108TIP3   OH2 9200   4.882   1.008   2.354
 3108TIP3    H1 9201   4.931   0.949   2.297
 3108TIP3    H2 9202   4.933   1.089   2.354
 3109TIP3   OH2 9203   3.304   0.847   3.095
 3109TIP3    H1 9204   3.219   0.828   3.135
 3109TIP3    H2 9205   3.284   0.912   3.027
 3110TIP3   OH2 9206   4.465   2.582   2.610
 3110TIP3    H1 9207   4.517   2.566   2.531
 3110TIP3    H2 9208   4.509   2.654   2.654
 3111TIP3   OH2 9209   3.527   0.903   3.915
 3111TIP3    H1 9210   3.473   0.894   3.994
 3111TIP3    H2 9211   3.473   0.955   3.855
 3112TIP3   OH2 9212   3.552   2.368   3.988
 3112TIP3    H1 9213   3.459   2.347   3.980
 3112TIP3    H2 9214   3.570   2.363   4.082
 3113TIP3   OH2 9215   3.770   2.420   3.543
 3113TIP3    H1 9216   3.720   2.495   3.511
 3113TIP3    H2 9217   3.854   2.427   3.498
 3114TIP3   OH2 9218   4.165   2.643   3.677
 3114TIP3    H1 9219   4.202   2.637   3.765
 3114TIP3    H2 9220   4.226   2.699   3.629
 3115TIP3   OH2 9221   4.353   2.802   3.553
 3115TIP3    H1 9222   4.413   2.750   3.499
 3115TIP3    H2 9223   4.410   2.859   3.605
 3116TIP3   OH2 9224   5.165   1.133   3.634
 3116TIP3    H1 9225   5.081   1.132   3.587
 3116TIP3    H2 9226   5.197   1.043   3.627
 3117TIP3   OH2 9227   3.432   2.648   3.590
 3117TIP3    H1 9228   3.341   2.669   3.569
 3117TIP3    H2 9229   3.458   2.714   3.654
 3118TIP3   OH2 9230   3.661   2.650   3.438
 3118TIP3    H1 9231   3.578   2.652   3.485
 3118TIP3    H2 9232   3.637   2.670   3.347
 3119TIP3   OH2 9233   4.071   2.663   3.230
 3119TIP3    H1 9234   3.998   2.673   3.169
 3119TIP3    H2 9235   4.080   2.750   3.270
 3120TIP3   OH2 9236   4.333   2.597   3.283
 3120TIP3    H1 9237   4.242   2.617   3.261
 3120TIP3    H2 9238   4.384   2.661   3.234
 3121TIP3   OH2 9239   4.533   2.761   3.177
 3121TIP3    H1 9240   4.535   2.849   3.139
 3121TIP3    H2 9241   4.564   2.704   3.107
 3122TIP3   OH2 9242   3.336   2.432   3.307
 3122TIP3    H1 9243   3.361   2.407   3.396
 3122TIP3    H2 9244   3.408   2.400   3.252
 3123TIP3   OH2 9245   3.541   2.317   3.169
 3123TIP3    H1 9246   3.550   2.225   3.195
 3123TIP3    H2 9247   3.630   2.352   3.175
 3124TIP3   OH2 9248   3.811   2.402   3.190
 3124TIP3    H1 9249   3.828   2.310   3.174
 3124TIP3    H2 9250   3.867   2.424   3.265
 3125TIP3   OH2 9251   4.375   1.049   3.274
 3125TIP3    H1 9252   4.334   0.978   3.324
 3125TIP3    H2 9253   4.442   1.007   3.222
 3126TIP3   OH2 9254   4.874   0.975   3.168
 3126TIP3    H1 9255   4.910   1.022   3.093
 3126TIP3    H2 9256   4.780   0.995   3.166
 3127TIP3   OH2 9257   4.988   1.045   2.928
 3127TIP3    H1 9258   5.055   0.983   2.899
 3127TIP3    H2 9259   5.027   1.131   2.915
 3128TIP3   OH2 9260   3.609   0.754   3.268
 3128TIP3    H1 9261   3.521   0.719   3.279
 3128TIP3    H2 9262   3.665   0.677   3.262
 3129TIP3   OH2 9263   3.412   0.650   2.925
 3129TIP3    H1 9264   3.452   0.699   2.854
 3129TIP3    H2 9265   3.384   0.717   2.988
 3130TIP3   OH2 9266   4.093   0.791   3.170
 3130TIP3    H1 9267   4.141   0.839   3.103
 3130TIP3    H2 9268   4.133   0.820   3.253
 3131TIP3   OH2 9269   4.586   0.927   3.144
 3131TIP3    H1 9270   4.608   0.892   3.057
 3131TIP3    H2 9271   4.594   0.852   3.203
 3132TIP3   OH2 9272   4.647   0.892   2.716
 3132TIP3    H1 9273   4.567   0.940   2.741
 3132TIP3    H2 9274   4.638   0.807   2.759
 3133TIP3   OH2 9275   3.110   2.226   2.692
 3133TIP3    H1 9276   3.027   2.190   2.660
 3133TIP3    H2 9277   3.113   2.315   2.657
 3134TIP3   OH2 9278   3.542   0.788   2.711
 3134TIP3    H1 9279   3.586   0.729   2.649
 3134TIP3    H2 9280   3.613   0.843   2.745
 3135TIP3   OH2 9281   4.029   0.985   2.786
 3135TIP3    H1 9282   4.091   0.937   2.841
 3135TIP3    H2 9283   4.039   1.076   2.813
 3136TIP3   OH2 9284   3.911   2.389   2.288
 3136TIP3    H1 9285   3.994   2.414   2.248
 3136TIP3    H2 9286   3.876   2.320   2.232
 3137TIP3   OH2 9287   4.609   2.524   2.380
 3137TIP3    H1 9288   4.603   2.428   2.374
 3137TIP3    H2 9289   4.566   2.556   2.301
 3138TIP3   OH2 9290   3.839   1.037   4.153
 3138TIP3    H1 9291   3.807   0.971   4.214
 3138TIP3    H2 9292   3.932   1.047   4.175
 3139TIP3   OH2 9293   4.086   1.043   4.279
 3139TIP3    H1 9294   4.163   1.020   4.226
 3139TIP3    H2 9295   4.082   0.974   4.346
 3140TIP3   OH2 9296   3.212   2.197   2.374
 3140TIP3    H1 9297   3.219   2.211   2.468
 3140TIP3    H2 9298   3.297   2.160   2.349
 3141TIP3   OH2 9299   4.910   1.131   4.064
 3141TIP3    H1 9300   4.929   1.103   4.154
 3141TIP3    H2 9301   4.994   1.128   4.020
 3142TIP3   OH2 9302   4.819   2.668   3.570
 3142TIP3    H1 9303   4.747   2.636   3.516
 3142TIP3    H2 9304   4.807   2.762   3.574
 3143TIP3   OH2 9305   6.080   2.062   2.325
 3143TIP3    H1 9306   6.040   2.145   2.299
 3143TIP3    H2 9307   6.019   1.995   2.293
 3144TIP3   OH2 9308   6.092   2.049   2.739
 3144TIP3    H1 9309   6.153   2.026   2.810
 3144TIP3    H2 9310   6.058   1.965   2.709
 3145TIP3   OH2 9311   5.400   1.899   3.077
 3145TIP3    H1 9312   5.440   1.846   3.146
 3145TIP3    H2 9313   5.472   1.922   3.019
 3146TIP3   OH2 9314   6.372   2.355   2.406
 3146TIP3    H1 9315   6.358   2.285   2.470
 3146TIP3    H2 9316   6.391   2.432   2.460
 3147TIP3   OH2 9317   5.405   2.338   2.775
 3147TIP3    H1 9318   5.384   2.245   2.774
 3147TIP3    H2 9319   5.498   2.342   2.750
 3148TIP3   OH2 9320   5.079   1.539   2.550
 3148TIP3    H1 9321   5.041   1.624   2.573
 3148TIP3    H2 9322   5.006   1.491   2.511
 3149TIP3   OH2 9323   5.157   1.846   2.773
 3149TIP3    H1 9324   5.207   1.769   2.798
 3149TIP3    H2 9325   5.222   1.908   2.741
 3150TIP3   OH2 9326   6.047   2.762   2.430
 3150TIP3    H1 9327   6.061   2.703   2.356
 3150TIP3    H2 9328   6.066   2.709   2.507
 3151TIP3   OH2 9329   5.907   2.267   2.735
 3151TIP3    H1 9330   5.953   2.186   2.711
 3151TIP3    H2 9331   5.977   2.327   2.761
 3152TIP3   OH2 9332   6.948   1.581   2.754
 3152TIP3    H1 9333   6.961   1.669   2.790
 3152TIP3    H2 9334   6.965   1.591   2.660
 3153TIP3   OH2 9335   6.311   1.765   2.765
 3153TIP3    H1 9336   6.335   1.675   2.787
 3153TIP3    H2 9337   6.282   1.760   2.674
 3154TIP3   OH2 9338   5.669   1.406   2.727
 3154TIP3    H1 9339   5.650   1.480   2.670
 3154TIP3    H2 9340   5.614   1.335   2.694
 3155TIP3   OH2 9341   6.373   1.524   2.390
 3155TIP3    H1 9342   6.444   1.510   2.452
 3155TIP3    H2 9343   6.402   1.598   2.337
 3156TIP3   OH2 9344   5.297   1.624   2.861
 3156TIP3    H1 9345   5.381   1.606   2.903
 3156TIP3    H2 9346   5.299   1.573   2.780
 3157TIP3   OH2 9347   5.715   1.824   2.680
 3157TIP3    H1 9348   5.810   1.809   2.683
 3157TIP3    H2 9349   5.680   1.742   2.644
 3158TIP3   OH2 9350   6.999   1.805   2.919
 3158TIP3    H1 9351   6.911   1.844   2.908
 3158TIP3    H2 9352   7.032   1.844   3.000
 3159TIP3   OH2 9353   5.651   1.415   3.182
 3159TIP3    H1 9354   5.603   1.451   3.107
 3159TIP3    H2 9355   5.594   1.432   3.257
 3160TIP3   OH2 9356   5.944   2.263   2.199
 3160TIP3    H1 9357   5.931   2.246   2.105
 3160TIP3    H2 9358   5.906   2.350   2.213
 3161TIP3   OH2 9359   5.746   2.186   2.943
 3161TIP3    H1 9360   5.691   2.258   2.974
 3161TIP3    H2 9361   5.795   2.223   2.870
 3162TIP3   OH2 9362   6.540   1.505   2.616
 3162TIP3    H1 9363   6.479   1.508   2.690
 3162TIP3    H2 9364   6.587   1.589   2.622
 3163TIP3   OH2 9365   5.545   1.520   2.949
 3163TIP3    H1 9366   5.602   1.594   2.970
 3163TIP3    H2 9367   5.589   1.475   2.876
 3164TIP3   OH2 9368   5.591   2.390   3.049
 3164TIP3    H1 9369   5.563   2.464   2.996
 3164TIP3    H2 9370   5.520   2.377   3.112
 3165TIP3   OH2 9371   4.973   2.099   2.309
 3165TIP3    H1 9372   4.939   2.116   2.221
 3165TIP3    H2 9373   4.994   2.186   2.343
 3166TIP3   OH2 9374   6.402   2.601   2.555
 3166TIP3    H1 9375   6.311   2.596   2.586
 3166TIP3    H2 9376   6.405   2.682   2.504
 3167TIP3   OH2 9377   6.749   1.466   2.917
 3167TIP3    H1 9378   6.665   1.490   2.878
 3167TIP3    H2 9379   6.814   1.495   2.853
 3168TIP3   OH2 9380   5.992   1.110   2.917
 3168TIP3    H1 9381   5.983   1.018   2.940
 3168TIP3    H2 9382   5.914   1.152   2.954
 3169TIP3   OH2 9383   6.109   2.625   2.194
 3169TIP3    H1 9384   6.161   2.545   2.185
 3169TIP3    H2 9385   6.168   2.696   2.169
 3170TIP3   OH2 9386   6.269   2.412   2.155
 3170TIP3    H1 9387   6.282   2.337   2.096
 3170TIP3    H2 9388   6.307   2.383   2.238
 3171TIP3   OH2 9389   6.649   2.477   2.894
 3171TIP3    H1 9390   6.626   2.405   2.835
 3171TIP3    H2 9391   6.635   2.556   2.842
 3172TIP3   OH2 9392   5.925   1.893   2.161
 3172TIP3    H1 9393   5.844   1.940   2.140
 3172TIP3    H2 9394   5.975   1.892   2.080
 3173TIP3   OH2 9395   5.893   1.705   1.842
 3173TIP3    H1 9396   5.955   1.756   1.894
 3173TIP3    H2 9397   5.946   1.636   1.802
 3174TIP3   OH2 9398   6.816   2.149   2.756
 3174TIP3    H1 9399   6.731   2.192   2.752
 3174TIP3    H2 9400   6.854   2.161   2.669
 3175TIP3   OH2 9401   6.255   2.006   2.119
 3175TIP3    H1 9402   6.207   2.032   2.197
 3175TIP3    H2 9403   6.322   1.945   2.151
 3176TIP3   OH2 9404   6.516   2.005   3.070
 3176TIP3    H1 9405   6.509   2.088   3.116
 3176TIP3    H2 9406   6.436   2.000   3.017
 3177TIP3   OH2 9407   5.517   1.956   2.524
 3177TIP3    H1 9408   5.481   1.895   2.459
 3177TIP3    H2 9409   5.590   1.909   2.563
 3178TIP3   OH2 9410   5.658   2.383   2.665
 3178TIP3    H1 9411   5.634   2.371   2.573
 3178TIP3    H2 9412   5.745   2.344   2.672
 3179TIP3   OH2 9413   5.611   1.951   2.900
 3179TIP3    H1 9414   5.650   1.913   2.821
 3179TIP3    H2 9415   5.661   2.031   2.915
 3180TIP3   OH2 9416   6.151   2.607   2.668
 3180TIP3    H1 9417   6.146   2.682   2.727
 3180TIP3    H2 9418   6.143   2.531   2.726
 3181TIP3   OH2 9419   5.798   2.481   3.208
 3181TIP3    H1 9420   5.727   2.526   3.254
 3181TIP3    H2 9421   5.753   2.428   3.142
 3182TIP3   OH2 9422   6.106   1.851   1.948
 3182TIP3    H1 9423   6.163   1.911   1.997
 3182TIP3    H2 9424   6.143   1.850   1.860
 3183TIP3   OH2 9425   5.540   2.033   3.371
 3183TIP3    H1 9426   5.544   2.125   3.397
 3183TIP3    H2 9427   5.446   2.015   3.360
 3184TIP3   OH2 9428   5.852   2.525   2.210
 3184TIP3    H1 9429   5.941   2.561   2.212
 3184TIP3    H2 9430   5.802   2.588   2.157
 3185TIP3   OH2 9431   5.586   2.622   3.329
 3185TIP3    H1 9432   5.581   2.662   3.242
 3185TIP3    H2 9433   5.515   2.558   3.329
 3186TIP3   OH2 9434   6.629   1.054   2.021
 3186TIP3    H1 9435   6.554   1.078   2.076
 3186TIP3    H2 9436   6.648   1.133   1.971
 3187TIP3   OH2 9437   5.392   1.797   2.324
 3187TIP3    H1 9438   5.313   1.842   2.294
 3187TIP3    H2 9439   5.364   1.706   2.335
 3188TIP3   OH2 9440   6.450   2.443   1.565
 3188TIP3    H1 9441   6.447   2.537   1.542
 3188TIP3    H2 9442   6.539   2.417   1.544
 3189TIP3   OH2 9443   5.186   2.226   3.256
 3189TIP3    H1 9444   5.114   2.208   3.195
 3189TIP3    H2 9445   5.215   2.140   3.286
 3190TIP3   OH2 9446   5.011   2.404   2.910
 3190TIP3    H1 9447   5.102   2.430   2.923
 3190TIP3    H2 9448   4.960   2.480   2.935
 3191TIP3   OH2 9449   6.873   2.864   2.957
 3191TIP3    H1 9450   6.879   2.769   2.964
 3191TIP3    H2 9451   6.794   2.887   3.006
 3192TIP3   OH2 9452   5.987   2.635   3.083
 3192TIP3    H1 9453   5.972   2.725   3.112
 3192TIP3    H2 9454   5.920   2.584   3.128
 3193TIP3   OH2 9455   5.756   2.733   2.035
 3193TIP3    H1 9456   5.712   2.712   1.953
 3193TIP3    H2 9457   5.718   2.816   2.062
 3194TIP3   OH2 9458   5.192   2.590   2.415
 3194TIP3    H1 9459   5.237   2.579   2.499
 3194TIP3    H2 9460   5.143   2.509   2.404
 3195TIP3   OH2 9461   5.960   2.666   1.663
 3195TIP3    H1 9462   6.009   2.592   1.629
 3195TIP3    H2 9463   5.994   2.681   1.751
 3196TIP3   OH2 9464   6.010   2.708   1.932
 3196TIP3    H1 9465   5.924   2.713   1.973
 3196TIP3    H2 9466   6.066   2.668   1.999
 3197TIP3   OH2 9467   6.758   1.968   3.229
 3197TIP3    H1 9468   6.678   1.976   3.177
 3197TIP3    H2 9469   6.779   1.875   3.225
 3198TIP3   OH2 9470   5.403   2.401   3.259
 3198TIP3    H1 9471   5.448   2.359   3.332
 3198TIP3    H2 9472   5.323   2.351   3.247
 3199TIP3   OH2 9473   5.754   1.198   3.040
 3199TIP3    H1 9474   5.671   1.165   3.007
 3199TIP3    H2 9475   5.731   1.279   3.085
 3200TIP3   OH2 9476   6.304   1.312   3.236
 3200TIP3    H1 9477   6.373   1.289   3.297
 3200TIP3    H2 9478   6.223   1.298   3.285
 3201TIP3   OH2 9479   6.521   1.738   3.159
 3201TIP3    H1 9480   6.482   1.736   3.247
 3201TIP3    H2 9481   6.505   1.827   3.128
 3202TIP3   OH2 9482   6.197   1.818   1.690
 3202TIP3    H1 9483   6.151   1.822   1.607
 3202TIP3    H2 9484   6.281   1.861   1.674
 3203TIP3   OH2 9485   5.906   1.254   2.007
 3203TIP3    H1 9486   5.871   1.258   2.096
 3203TIP3    H2 9487   5.877   1.169   1.974
 3204TIP3   OH2 9488   5.698   1.730   3.045
 3204TIP3    H1 9489   5.653   1.737   3.129
 3204TIP3    H2 9490   5.676   1.811   2.999
 3205TIP3   OH2 9491   5.574   1.611   2.571
 3205TIP3    H1 9492   5.485   1.585   2.596
 3205TIP3    H2 9493   5.584   1.581   2.481
 3206TIP3   OH2 9494   6.043   1.682   2.291
 3206TIP3    H1 9495   6.000   1.759   2.253
 3206TIP3    H2 9496   6.111   1.659   2.228
 3207TIP3   OH2 9497   6.241   1.951   3.365
 3207TIP3    H1 9498   6.215   1.882   3.427
 3207TIP3    H2 9499   6.334   1.967   3.385
 3208TIP3   OH2 9500   6.180   1.673   2.533
 3208TIP3    H1 9501   6.128   1.698   2.456
 3208TIP3    H2 9502   6.250   1.618   2.498
 3209TIP3   OH2 9503   5.537   1.744   3.268
 3209TIP3    H1 9504   5.555   1.806   3.339
 3209TIP3    H2 9505   5.517   1.662   3.312
 3210TIP3   OH2 9506   5.571   1.222   1.991
 3210TIP3    H1 9507   5.562   1.226   2.086
 3210TIP3    H2 9508   5.495   1.270   1.957
 3211TIP3   OH2 9509   5.122   1.265   2.854
 3211TIP3    H1 9510   5.196   1.302   2.903
 3211TIP3    H2 9511   5.157   1.249   2.766
 3212TIP3   OH2 9512   5.023   1.247   2.357
 3212TIP3    H1 9513   5.067   1.281   2.279
 3212TIP3    H2 9514   4.961   1.316   2.382
 3213TIP3   OH2 9515   6.265   1.957   2.947
 3213TIP3    H1 9516   6.290   1.894   2.879
 3213TIP3    H2 9517   6.222   1.904   3.014
 3214TIP3   OH2 9518   5.938   1.393   2.619
 3214TIP3    H1 9519   5.860   1.394   2.674
 3214TIP3    H2 9520   6.011   1.394   2.680
 3215TIP3   OH2 9521   5.337   1.483   2.630
 3215TIP3    H1 9522   5.249   1.489   2.592
 3215TIP3    H2 9523   5.365   1.394   2.611
 3216TIP3   OH2 9524   5.586   1.493   2.324
 3216TIP3    H1 9525   5.681   1.501   2.317
 3216TIP3    H2 9526   5.553   1.510   2.236
 3217TIP3   OH2 9527   6.362   1.500   2.831
 3217TIP3    H1 9528   6.346   1.518   2.924
 3217TIP3    H2 9529   6.293   1.439   2.806
 3218TIP3   OH2 9530   5.479   1.519   2.074
 3218TIP3    H1 9531   5.415   1.469   2.023
 3218TIP3    H2 9532   5.533   1.563   2.008
 3219TIP3   OH2 9533   6.583   3.195   3.047
 3219TIP3    H1 9534   6.579   3.210   2.953
 3219TIP3    H2 9535   6.662   3.240   3.075
 3220TIP3   OH2 9536   5.534   2.297   3.477
 3220TIP3    H1 9537   5.614   2.306   3.528
 3220TIP3    H2 9538   5.463   2.301   3.541
 3221TIP3   OH2 9539   5.989   1.769   2.719
 3221TIP3    H1 9540   6.054   1.731   2.660
 3221TIP3    H2 9541   5.997   1.719   2.800
 3222TIP3   OH2 9542   5.475   1.235   2.608
 3222TIP3    H1 9543   5.448   1.160   2.660
 3222TIP3    H2 9544   5.495   1.199   2.522
 3223TIP3   OH2 9545   5.962   1.660   2.993
 3223TIP3    H1 9546   5.875   1.697   3.010
 3223TIP3    H2 9547   6.022   1.718   3.041
 3224TIP3   OH2 9548   5.689   2.029   2.097
 3224TIP3    H1 9549   5.616   1.972   2.075
 3224TIP3    H2 9550   5.664   2.069   2.180
 3225TIP3   OH2 9551   6.581   2.285   2.711
 3225TIP3    H1 9552   6.617   2.331   2.635
 3225TIP3    H2 9553   6.502   2.242   2.678
 3226TIP3   OH2 9554   6.164   1.358   2.027
 3226TIP3    H1 9555   6.069   1.344   2.018
 3226TIP3    H2 9556   6.173   1.453   2.035
 3227TIP3   OH2 9557   6.113   2.369   3.115
 3227TIP3    H1 9558   6.170   2.355   3.190
 3227TIP3    H2 9559   6.083   2.460   3.125
 3228TIP3   OH2 9560   6.218   1.627   2.081
 3228TIP3    H1 9561   6.300   1.657   2.120
 3228TIP3    H2 9562   6.190   1.700   2.025
 3229TIP3   OH2 9563   5.390   2.052   2.750
 3229TIP3    H1 9564   5.425   2.029   2.664
 3229TIP3    H2 9565   5.454   2.018   2.812
 3230TIP3   OH2 9566   5.847   2.186   1.940
 3230TIP3    H1 9567   5.799   2.269   1.938
 3230TIP3    H2 9568   5.793   2.128   1.994
 3231TIP3   OH2 9569   5.260   1.986   3.386
 3231TIP3    H1 9570   5.262   1.954   3.476
 3231TIP3    H2 9571   5.188   1.939   3.345
 3232TIP3   OH2 9572   6.010   2.101   3.411
 3232TIP3    H1 9573   5.942   2.043   3.379
 3232TIP3    H2 9574   6.092   2.062   3.379
 3233TIP3   OH2 9575   6.254   2.663   3.008
 3233TIP3    H1 9576   6.160   2.648   3.008
 3233TIP3    H2 9577   6.273   2.700   3.094
 3234TIP3   OH2 9578   6.676   1.697   1.836
 3234TIP3    H1 9579   6.602   1.653   1.794
 3234TIP3    H2 9580   6.660   1.790   1.819
 3235TIP3   OH2 9581   6.891   2.588   2.974
 3235TIP3    H1 9582   6.800   2.560   2.978
 3235TIP3    H2 9583   6.925   2.551   2.892
 3236TIP3   OH2 9584   6.373   2.508   1.828
 3236TIP3    H1 9585   6.347   2.433   1.881
 3236TIP3    H2 9586   6.393   2.471   1.742
 3237TIP3   OH2 9587   6.351   2.154   2.611
 3237TIP3    H1 9588   6.260   2.128   2.624
 3237TIP3    H2 9589   6.394   2.076   2.578
 3238TIP3   OH2 9590   5.516   2.386   2.424
 3238TIP3    H1 9591   5.518   2.462   2.366
 3238TIP3    H2 9592   5.423   2.370   2.440
 3239TIP3   OH2 9593   5.065   1.666   2.130
 3239TIP3    H1 9594   5.110   1.748   2.152
 3239TIP3    H2 9595   4.986   1.667   2.184
 3240TIP3   OH2 9596   5.583   2.138   2.320
 3240TIP3    H1 9597   5.577   2.227   2.355
 3240TIP3    H2 9598   5.563   2.082   2.395
 3241TIP3   OH2 9599   5.793   2.706   2.883
 3241TIP3    H1 9600   5.825   2.780   2.830
 3241TIP3    H2 9601   5.872   2.668   2.921
 3242TIP3   OH2 9602   5.429   2.607   2.273
 3242TIP3    H1 9603   5.341   2.614   2.312
 3242TIP3    H2 9604   5.464   2.696   2.278
 3243TIP3   OH2 9605   6.142   2.380   2.837
 3243TIP3    H1 9606   6.135   2.371   2.932
 3243TIP3    H2 9607   6.207   2.315   2.811
 3244TIP3   OH2 9608   6.144   2.252   1.731
 3244TIP3    H1 9609   6.189   2.239   1.814
 3244TIP3    H2 9610   6.060   2.206   1.741
 3245TIP3   OH2 9611   6.408   2.865   2.889
 3245TIP3    H1 9612   6.339   2.804   2.912
 3245TIP3    H2 9613   6.371   2.918   2.818
 3246TIP3   OH2 9614   6.449   2.716   1.522
 3246TIP3    H1 9615   6.463   2.774   1.447
 3246TIP3    H2 9616   6.380   2.759   1.573
 3247TIP3   OH2 9617   5.477   1.494   3.386
 3247TIP3    H1 9618   5.382   1.504   3.391
 3247TIP3    H2 9619   5.499   1.440   3.462
 3248TIP3   OH2 9620   6.314   2.215   1.951
 3248TIP3    H1 9621   6.287   2.143   2.008
 3248TIP3    H2 9622   6.407   2.199   1.935
 3249TIP3   OH2 9623   5.215   2.629   3.032
 3249TIP3    H1 9624   5.262   2.576   3.096
 3249TIP3    H2 9625   5.223   2.719   3.064
 3250TIP3   OH2 9626   5.491   2.215   1.738
 3250TIP3    H1 9627   5.503   2.124   1.711
 3250TIP3    H2 9628   5.479   2.210   1.832
 3251TIP3   OH2 9629   5.435   2.229   2.010
 3251TIP3    H1 9630   5.500   2.202   2.075
 3251TIP3    H2 9631   5.434   2.325   2.015
 3252TIP3   OH2 9632   5.164   1.916   2.215
 3252TIP3    H1 9633   5.100   1.965   2.267
 3252TIP3    H2 9634   5.185   1.974   2.142
 3253TIP3   OH2 9635   6.320   1.554   3.100
 3253TIP3    H1 9636   6.403   1.595   3.126
 3253TIP3    H2 9637   6.317   1.473   3.150
 3254TIP3   OH2 9638   6.233   1.306   2.291
 3254TIP3    H1 9639   6.210   1.327   2.200
 3254TIP3    H2 9640   6.277   1.384   2.323
 3255TIP3   OH2 9641   5.701   2.413   1.939
 3255TIP3    H1 9642   5.618   2.438   1.980
 3255TIP3    H2 9643   5.725   2.489   1.886
 3256TIP3   OH2 9644   5.862   1.494   2.370
 3256TIP3    H1 9645   5.924   1.561   2.340
 3256TIP3    H2 9646   5.891   1.473   2.459
 3257TIP3   OH2 9647   6.164   1.787   3.139
 3257TIP3    H1 9648   6.192   1.829   3.221
 3257TIP3    H2 9649   6.214   1.705   3.136
 3258TIP3   OH2 9650   6.036   1.192   2.451
 3258TIP3    H1 9651   6.009   1.266   2.504
 3258TIP3    H2 9652   6.108   1.225   2.397
 3259TIP3   OH2 9653   5.454   2.502   2.022
 3259TIP3    H1 9654   5.435   2.574   1.962
 3259TIP3    H2 9655   5.444   2.541   2.109
 3260TIP3   OH2 9656   5.547   1.219   2.273
 3260TIP3    H1 9657   5.537   1.311   2.299
 3260TIP3    H2 9658   5.641   1.203   2.275
 3261TIP3   OH2 9659   6.789   1.698   3.140
 3261TIP3    H1 9660   6.694   1.697   3.150
 3261TIP3    H2 9661   6.804   1.655   3.056
 3262TIP3   OH2 9662   6.471   1.922   2.524
 3262TIP3    H1 9663   6.456   1.888   2.436
 3262TIP3    H2 9664   6.528   1.857   2.565
 3263TIP3   OH2 9665   5.193   2.095   2.000
 3263TIP3    H1 9666   5.266   2.156   2.010
 3263TIP3    H2 9667   5.223   2.032   1.935
 3264TIP3   OH2 9668   5.092   1.388   2.134
 3264TIP3    H1 9669   5.097   1.483   2.134
 3264TIP3    H2 9670   5.037   1.366   2.059
 3265TIP3   OH2 9671   6.428   2.862   2.460
 3265TIP3    H1 9672   6.386   2.916   2.392
 3265TIP3    H2 9673   6.522   2.874   2.446
 3266TIP3   OH2 9674   5.492   1.113   2.998
 3266TIP3    H1 9675   5.464   1.081   2.912
 3266TIP3    H2 9676   5.484   1.037   3.056
 3267TIP3   OH2 9677   5.016   2.371   2.388
 3267TIP3    H1 9678   4.972   2.405   2.466
 3267TIP3    H2 9679   4.970   2.412   2.315
 3268TIP3   OH2 9680   5.188   2.878   3.504
 3268TIP3    H1 9681   5.190   2.871   3.599
 3268TIP3    H2 9682   5.155   2.793   3.475
 3269TIP3   OH2 9683   5.718   2.878   3.461
 3269TIP3    H1 9684   5.774   2.935   3.514
 3269TIP3    H2 9685   5.716   2.920   3.375
 3270TIP3   OH2 9686   5.643   2.415   1.623
 3270TIP3    H1 9687   5.597   2.345   1.670
 3270TIP3    H2 9688   5.718   2.371   1.583
 3271TIP3   OH2 9689   6.295   2.763   3.260
 3271TIP3    H1 9690   6.306   2.688   3.319
 3271TIP3    H2 9691   6.374   2.815   3.275
 3272TIP3   OH2 9692   6.086   2.452   1.550
 3272TIP3    H1 9693   6.121   2.390   1.613
 3272TIP3    H2 9694   6.144   2.445   1.474
 3273TIP3   OH2 9695   5.323   2.314   3.656
 3273TIP3    H1 9696   5.332   2.219   3.668
 3273TIP3    H2 9697   5.240   2.325   3.611
 3274TIP3   OH2 9698   5.315   1.907   1.843
 3274TIP3    H1 9699   5.364   1.882   1.921
 3274TIP3    H2 9700   5.382   1.922   1.777
 3275TIP3   OH2 9701   5.936   2.370   3.424
 3275TIP3    H1 9702   5.904   2.389   3.335
 3275TIP3    H2 9703   5.977   2.284   3.416
 3276TIP3   OH2 9704   5.887   2.125   1.677
 3276TIP3    H1 9705   5.864   2.136   1.769
 3276TIP3    H2 9706   5.868   2.034   1.658
 3277TIP3   OH2 9707   6.424   2.442   3.054
 3277TIP3    H1 9708   6.501   2.461   3.001
 3277TIP3    H2 9709   6.360   2.509   3.030
 3278TIP3   OH2 9710   5.437   2.057   3.660
 3278TIP3    H1 9711   5.510   2.020   3.610
 3278TIP3    H2 9712   5.473   2.071   3.747
 3279TIP3   OH2 9713   5.483   1.848   2.056
 3279TIP3    H1 9714   5.465   1.817   2.145
 3279TIP3    H2 9715   5.532   1.776   2.015
 3280TIP3   OH2 9716   5.797   1.930   3.318
 3280TIP3    H1 9717   5.711   1.971   3.327
 3280TIP3    H2 9718   5.829   1.959   3.232
 3281TIP3   OH2 9719   5.622   1.668   1.894
 3281TIP3    H1 9720   5.594   1.672   1.803
 3281TIP3    H2 9721   5.718   1.677   1.890
 3282TIP3   OH2 9722   6.302   2.302   3.388
 3282TIP3    H1 9723   6.372   2.267   3.333
 3282TIP3    H2 9724   6.301   2.245   3.465
 3283TIP3   OH2 9725   6.408   1.960   1.577
 3283TIP3    H1 9726   6.397   1.916   1.492
 3283TIP3    H2 9727   6.382   2.051   1.561
 3284TIP3   OH2 9728   5.900   1.698   3.424
 3284TIP3    H1 9729   5.904   1.627   3.359
 3284TIP3    H2 9730   5.867   1.773   3.375
 3285TIP3   OH2 9731   5.911   1.498   3.223
 3285TIP3    H1 9732   5.940   1.535   3.139
 3285TIP3    H2 9733   5.821   1.471   3.208
 3286TIP3   OH2 9734   5.913   2.029   3.095
 3286TIP3    H1 9735   6.003   2.048   3.069
 3286TIP3    H2 9736   5.860   2.088   3.040
 3287TIP3   OH2 9737   6.508   1.984   3.464
 3287TIP3    H1 9738   6.535   1.892   3.468
 3287TIP3    H2 9739   6.589   2.032   3.445
 3288TIP3   OH2 9740   6.533   2.252   3.213
 3288TIP3    H1 9741   6.484   2.317   3.163
 3288TIP3    H2 9742   6.623   2.261   3.182
 3289TIP3   OH2 9743   5.786   1.783   3.666
 3289TIP3    H1 9744   5.718   1.718   3.687
 3289TIP3    H2 9745   5.815   1.758   3.578
 3290TIP3   OH2 9746   6.038   1.268   3.320
 3290TIP3    H1 9747   5.998   1.349   3.289
 3290TIP3    H2 9748   5.970   1.201   3.307
 3291TIP3   OH2 9749   6.158   1.741   3.522
 3291TIP3    H1 9750   6.147   1.728   3.616
 3291TIP3    H2 9751   6.072   1.719   3.485
 3292TIP3   OH2 9752   6.412   1.704   3.404
 3292TIP3    H1 9753   6.331   1.698   3.455
 3292TIP3    H2 9754   6.480   1.672   3.464
 3293TIP3   OH2 9755   6.643   1.660   3.553
 3293TIP3    H1 9756   6.657   1.565   3.559
 3293TIP3    H2 9757   6.639   1.689   3.644
 3294TIP3   OH2 9758   5.620   1.561   3.729
 3294TIP3    H1 9759   5.627   1.473   3.692
 3294TIP3    H2 9760   5.659   1.553   3.816
 3295TIP3   OH2 9761   6.101   1.242   3.586
 3295TIP3    H1 9762   6.170   1.177   3.581
 3295TIP3    H2 9763   6.072   1.254   3.495
 3296TIP3   OH2 9764   6.199   1.468   3.712
 3296TIP3    H1 9765   6.166   1.393   3.662
 3296TIP3    H2 9766   6.125   1.527   3.718
 3297TIP3   OH2 9767   5.453   2.714   1.842
 3297TIP3    H1 9768   5.541   2.692   1.812
 3297TIP3    H2 9769   5.413   2.758   1.766
 3298TIP3   OH2 9770   4.921   2.100   2.022
 3298TIP3    H1 9771   5.016   2.112   2.019
 3298TIP3    H2 9772   4.907   2.013   1.984
 3299TIP3   OH2 9773   4.816   2.677   2.475
 3299TIP3    H1 9774   4.752   2.624   2.429
 3299TIP3    H2 9775   4.861   2.615   2.533
 3300TIP3   OH2 9776   4.959   2.506   2.639
 3300TIP3    H1 9777   4.950   2.438   2.706
 3300TIP3    H2 9778   5.012   2.574   2.681
 3301TIP3   OH2 9779   6.699   2.911   2.453
 3301TIP3    H1 9780   6.718   2.942   2.542
 3301TIP3    H2 9781   6.755   2.964   2.397
 3302TIP3   OH2 9782   6.711   2.948   2.734
 3302TIP3    H1 9783   6.668   2.862   2.729
 3302TIP3    H2 9784   6.783   2.935   2.797
 3303TIP3   OH2 9785   6.769   2.647   3.317
 3303TIP3    H1 9786   6.699   2.657   3.382
 3303TIP3    H2 9787   6.815   2.730   3.318
 3304TIP3   OH2 9788   6.584   2.157   1.928
 3304TIP3    H1 9789   6.651   2.223   1.908
 3304TIP3    H2 9790   6.620   2.108   2.001
 3305TIP3   OH2 9791   6.675   1.981   2.129
 3305TIP3    H1 9792   6.604   1.922   2.156
 3305TIP3    H2 9793   6.716   2.009   2.211
 3306TIP3   OH2 9794   6.771   2.421   2.552
 3306TIP3    H1 9795   6.821   2.352   2.509
 3306TIP3    H2 9796   6.772   2.494   2.490
 3307TIP3   OH2 9797   6.579   2.700   2.746
 3307TIP3    H1 9798   6.514   2.749   2.796
 3307TIP3    H2 9799   6.530   2.660   2.674
 3308TIP3   OH2 9800   6.623   1.952   1.747
 3308TIP3    H1 9801   6.547   1.950   1.688
 3308TIP3    H2 9802   6.602   2.021   1.810
 3309TIP3   OH2 9803   6.485   1.580   1.674
 3309TIP3    H1 9804   6.426   1.597   1.600
 3309TIP3    H2 9805   6.481   1.486   1.687
 3310TIP3   OH2 9806   5.136   1.944   3.027
 3310TIP3    H1 9807   5.126   1.912   2.938
 3310TIP3    H2 9808   5.230   1.938   3.044
 3311TIP3   OH2 9809   6.787   2.293   3.108
 3311TIP3    H1 9810   6.856   2.230   3.091
 3311TIP3    H2 9811   6.777   2.341   3.026
 3312TIP3   OH2 9812   6.973   2.086   3.104
 3312TIP3    H1 9813   6.898   2.045   3.149
 3312TIP3    H2 9814   7.048   2.031   3.128
 3313TIP3   OH2 9815   6.449   1.309   1.690
 3313TIP3    H1 9816   6.508   1.284   1.761
 3313TIP3    H2 9817   6.363   1.279   1.718
 3314TIP3   OH2 9818   6.667   1.753   2.663
 3314TIP3    H1 9819   6.746   1.771   2.613
 3314TIP3    H2 9820   6.678   1.801   2.745
 3315TIP3   OH2 9821   6.739   1.917   2.888
 3315TIP3    H1 9822   6.663   1.944   2.939
 3315TIP3    H2 9823   6.767   1.996   2.842
 3316TIP3   OH2 9824   5.357   1.628   3.667
 3316TIP3    H1 9825   5.451   1.622   3.685
 3316TIP3    H2 9826   5.321   1.546   3.702
 3317TIP3   OH2 9827   7.198   1.514   3.428
 3317TIP3    H1 9828   7.265   1.461   3.385
 3317TIP3    H2 9829   7.160   1.566   3.357
 3318TIP3   OH2 9830   6.676   1.305   2.183
 3318TIP3    H1 9831   6.698   1.312   2.275
 3318TIP3    H2 9832   6.589   1.263   2.181
 3319TIP3   OH2 9833   5.334   1.339   3.022
 3319TIP3    H1 9834   5.386   1.259   3.024
 3319TIP3    H2 9835   5.396   1.408   3.000
 3320TIP3   OH2 9836   5.111   1.600   3.075
 3320TIP3    H1 9837   5.162   1.587   2.996
 3320TIP3    H2 9838   5.139   1.686   3.108
 3321TIP3   OH2 9839   7.049   1.633   3.232
 3321TIP3    H1 9840   6.965   1.674   3.255
 3321TIP3    H2 9841   7.025   1.559   3.177
 3322TIP3   OH2 9842   6.679   1.259   1.841
 3322TIP3    H1 9843   6.725   1.203   1.778
 3322TIP3    H2 9844   6.733   1.337   1.848
 3323TIP3   OH2 9845   5.103   1.123   2.586
 3323TIP3    H1 9846   5.017   1.106   2.625
 3323TIP3    H2 9847   5.084   1.174   2.507
 3324TIP3   OH2 9848   6.253   2.832   2.098
 3324TIP3    H1 9849   6.308   2.818   2.022
 3324TIP3    H2 9850   6.299   2.900   2.148
 3325TIP3   OH2 9851   5.332   1.163   3.404
 3325TIP3    H1 9852   5.280   1.159   3.485
 3325TIP3    H2 9853   5.277   1.213   3.343
 3326TIP3   OH2 9854   5.585   2.698   3.064
 3326TIP3    H1 9855   5.529   2.765   3.024
 3326TIP3    H2 9856   5.661   2.693   3.006
 3327TIP3   OH2 9857   5.961   2.902   3.168
 3327TIP3    H1 9858   6.003   2.890   3.253
 3327TIP3    H2 9859   6.024   2.953   3.117
 3328TIP3   OH2 9860   6.146   3.058   3.038
 3328TIP3    H1 9861   6.201   3.008   2.978
 3328TIP3    H2 9862   6.207   3.112   3.088
 3329TIP3   OH2 9863   6.960   1.393   3.119
 3329TIP3    H1 9864   6.878   1.393   3.070
 3329TIP3    H2 9865   6.992   1.303   3.112
 3330TIP3   OH2 9866   5.227   2.905   3.090
 3330TIP3    H1 9867   5.138   2.927   3.064
 3330TIP3    H2 9868   5.246   2.965   3.163
 3331TIP3   OH2 9869   5.457   2.906   2.934
 3331TIP3    H1 9870   5.372   2.909   2.980
 3331TIP3    H2 9871   5.435   2.924   2.843
 3332TIP3   OH2 9872   5.865   2.919   2.722
 3332TIP3    H1 9873   5.798   2.928   2.654
 3332TIP3    H2 9874   5.876   3.008   2.757
 3333TIP3   OH2 9875   6.129   2.861   2.780
 3333TIP3    H1 9876   6.039   2.878   2.753
 3333TIP3    H2 9877   6.182   2.920   2.726
 3334TIP3   OH2 9878   6.329   3.017   2.664
 3334TIP3    H1 9879   6.336   3.105   2.628
 3334TIP3    H2 9880   6.360   2.959   2.594
 3335TIP3   OH2 9881   5.131   2.688   2.777
 3335TIP3    H1 9882   5.156   2.670   2.867
 3335TIP3    H2 9883   5.205   2.654   2.725
 3336TIP3   OH2 9884   5.341   2.572   2.649
 3336TIP3    H1 9885   5.355   2.489   2.694
 3336TIP3    H2 9886   5.427   2.614   2.650
 3337TIP3   OH2 9887   5.608   2.660   2.676
 3337TIP3    H1 9888   5.630   2.569   2.656
 3337TIP3    H2 9889   5.663   2.682   2.752
 3338TIP3   OH2 9890   6.158   1.310   2.775
 3338TIP3    H1 9891   6.110   1.243   2.823
 3338TIP3    H2 9892   6.220   1.261   2.720
 3339TIP3   OH2 9893   6.644   1.187   2.627
 3339TIP3    H1 9894   6.698   1.230   2.561
 3339TIP3    H2 9895   6.570   1.247   2.641
 3340TIP3   OH2 9896   6.798   1.289   2.432
 3340TIP3    H1 9897   6.862   1.230   2.393
 3340TIP3    H2 9898   6.833   1.377   2.416
 3341TIP3   OH2 9899   5.404   1.011   2.757
 3341TIP3    H1 9900   5.315   0.976   2.765
 3341TIP3    H2 9901   5.459   0.933   2.749
 3342TIP3   OH2 9902   5.239   0.929   2.424
 3342TIP3    H1 9903   5.264   0.974   2.344
 3342TIP3    H2 9904   5.200   0.997   2.479
 3343TIP3   OH2 9905   5.894   1.046   2.652
 3343TIP3    H1 9906   5.940   1.093   2.582
 3343TIP3    H2 9907   5.933   1.080   2.733
 3344TIP3   OH2 9908   6.336   1.159   2.632
 3344TIP3    H1 9909   6.362   1.153   2.540
 3344TIP3    H2 9910   6.360   1.074   2.670
 3345TIP3   OH2 9911   6.441   1.144   2.200
 3345TIP3    H1 9912   6.367   1.200   2.225
 3345TIP3    H2 9913   6.418   1.058   2.235
 3346TIP3   OH2 9914   4.893   2.490   2.173
 3346TIP3    H1 9915   4.810   2.458   2.137
 3346TIP3    H2 9916   4.900   2.580   2.141
 3347TIP3   OH2 9917   5.346   1.045   2.185
 3347TIP3    H1 9918   5.395   0.980   2.134
 3347TIP3    H2 9919   5.414   1.104   2.220
 3348TIP3   OH2 9920   5.821   1.243   2.271
 3348TIP3    H1 9921   5.884   1.191   2.322
 3348TIP3    H2 9922   5.835   1.333   2.301
 3349TIP3   OH2 9923   5.706   2.637   1.767
 3349TIP3    H1 9924   5.789   2.664   1.729
 3349TIP3    H2 9925   5.675   2.567   1.710
 3350TIP3   OH2 9926   6.404   2.777   1.871
 3350TIP3    H1 9927   6.398   2.682   1.862
 3350TIP3    H2 9928   6.363   2.811   1.791
 3351TIP3   OH2 9929   5.637   1.290   3.643
 3351TIP3    H1 9930   5.601   1.225   3.704
 3351TIP3    H2 9931   5.730   1.297   3.668
 3352TIP3   OH2 9932   5.886   1.291   3.765
 3352TIP3    H1 9933   5.963   1.272   3.712
 3352TIP3    H2 9934   5.883   1.221   3.829
 3353TIP3   OH2 9935   5.013   2.473   1.822
 3353TIP3    H1 9936   5.016   2.487   1.917
 3353TIP3    H2 9937   5.095   2.428   1.802
 3354TIP3   OH2 9938   6.705   1.389   3.553
 3354TIP3    H1 9939   6.724   1.361   3.642
 3354TIP3    H2 9940   6.790   1.385   3.508
 3355TIP3   OH2 9941   6.622   2.922   3.061
 3355TIP3    H1 9942   6.551   2.891   3.004
 3355TIP3    H2 9943   6.609   3.016   3.066
 3356TIP3   OH2 9944   7.881   2.315   1.808
 3356TIP3    H1 9945   7.846   2.404   1.801
 3356TIP3    H2 9946   7.811   2.259   1.776
 3357TIP3   OH2 9947   7.895   2.299   2.226
 3357TIP3    H1 9948   7.948   2.278   2.302
 3357TIP3    H2 9949   7.845   2.220   2.208
 3358TIP3   OH2 9950   7.198   2.157   2.562
 3358TIP3    H1 9951   7.234   2.104   2.632
 3358TIP3    H2 9952   7.273   2.180   2.507
 3359TIP3   OH2 9953   8.185   2.606   1.915
 3359TIP3    H1 9954   8.159   2.549   1.987
 3359TIP3    H2 9955   8.204   2.690   1.956
 3360TIP3   OH2 9956   7.200   2.611   2.256
 3360TIP3    H1 9957   7.181   2.517   2.262
 3360TIP3    H2 9958   7.295   2.616   2.245
 3361TIP3   OH2 9959   6.864   1.793   2.028
 3361TIP3    H1 9960   6.806   1.857   2.070
 3361TIP3    H2 9961   6.806   1.744   1.969
 3362TIP3   OH2 9962   6.917   2.072   2.273
 3362TIP3    H1 9963   6.974   1.999   2.297
 3362TIP3    H2 9964   6.944   2.096   2.184
 3363TIP3   OH2 9965   7.796   3.073   1.935
 3363TIP3    H1 9966   7.821   3.000   1.879
 3363TIP3    H2 9967   7.767   3.032   2.016
 3364TIP3   OH2 9968   7.707   2.522   2.217
 3364TIP3    H1 9969   7.750   2.440   2.195
 3364TIP3    H2 9970   7.777   2.578   2.250
 3365TIP3   OH2 9971   8.660   1.825   2.259
 3365TIP3    H1 9972   8.708   1.895   2.303
 3365TIP3    H2 9973   8.671   1.844   2.166
 3366TIP3   OH2 9974   8.106   1.998   2.250
 3366TIP3    H1 9975   8.143   1.918   2.285
 3366TIP3    H2 9976   8.046   1.969   2.181
 3367TIP3   OH2 9977   7.463   1.663   2.218
 3367TIP3    H1 9978   7.439   1.735   2.160
 3367TIP3    H2 9979   7.407   1.590   2.190
 3368TIP3   OH2 9980   8.144   1.773   1.896
 3368TIP3    H1 9981   8.215   1.774   1.961
 3368TIP3    H2 9982   8.189   1.760   1.812
 3369TIP3   OH2 9983   7.089   1.872   2.351
 3369TIP3    H1 9984   7.174   1.857   2.392
 3369TIP3    H2 9985   7.093   1.821   2.270
 3370TIP3   OH2 9986   7.503   2.081   2.165
 3370TIP3    H1 9987   7.597   2.067   2.172
 3370TIP3    H2 9988   7.468   1.998   2.132
 3371TIP3   OH2 9989   8.755   2.036   2.407
 3371TIP3    H1 9990   8.682   2.097   2.401
 3371TIP3    H2 9991   8.816   2.078   2.468
 3372TIP3   OH2 9992   7.447   1.673   2.671
 3372TIP3    H1 9993   7.398   1.709   2.597
 3372TIP3    H2 9994   7.390   1.689   2.747
 3373TIP3   OH2 9995   7.781   2.554   1.717
 3373TIP3    H1 9996   7.743   2.519   1.637
 3373TIP3    H2 9997   7.725   2.629   1.739
 3374TIP3   OH2 9998   7.540   2.449   2.427
 3374TIP3    H1 9999   7.484   2.519   2.461
 3374TIP3    H210000   7.586   2.488   2.353
 3375TIP3   OH210001   8.336   1.802   2.090
 3375TIP3    H110002   8.299   1.776   2.174
 3375TIP3    H210003   8.391   1.878   2.110
 3376TIP3   OH210004   7.343   1.780   2.438
 3376TIP3    H110005   7.398   1.854   2.461
 3376TIP3    H210006   7.388   1.736   2.367
 3377TIP3   OH210007   7.386   2.652   2.537
 3377TIP3    H110008   7.371   2.741   2.507
 3377TIP3    H210009   7.308   2.630   2.587
 3378TIP3   OH210010   6.759   2.351   1.807
 3378TIP3    H110011   6.718   2.366   1.722
 3378TIP3    H210012   6.782   2.438   1.839
 3379TIP3   OH210013   8.212   2.862   2.028
 3379TIP3    H110014   8.127   2.855   2.072
 3379TIP3    H210015   8.207   2.945   1.981
 3380TIP3   OH210016   8.489   1.712   2.437
 3380TIP3    H110017   8.401   1.729   2.405
 3380TIP3    H210018   8.546   1.745   2.368
 3381TIP3   OH210019   7.783   1.360   2.406
 3381TIP3    H110020   7.778   1.268   2.434
 3381TIP3    H210021   7.705   1.401   2.444
 3382TIP3   OH210022   7.887   2.913   1.725
 3382TIP3    H110023   7.945   2.837   1.721
 3382TIP3    H210024   7.945   2.988   1.709
 3383TIP3   OH210025   8.024   2.681   1.709
 3383TIP3    H110026   7.944   2.630   1.722
 3383TIP3    H210027   8.082   2.652   1.780
 3384TIP3   OH210028   8.437   2.747   2.374
 3384TIP3    H110029   8.420   2.673   2.315
 3384TIP3    H210030   8.419   2.824   2.320
 3385TIP3   OH210031   7.693   2.165   1.668
 3385TIP3    H110032   7.613   2.210   1.640
 3385TIP3    H210033   7.738   2.144   1.586
 3386TIP3   OH210034   7.574   1.954   1.414
 3386TIP3    H110035   7.598   2.046   1.416
 3386TIP3    H210036   7.623   1.919   1.339
 3387TIP3   OH210037   8.597   2.394   2.232
 3387TIP3    H110038   8.521   2.449   2.214
 3387TIP3    H210039   8.649   2.400   2.151
 3388TIP3   OH210040   8.126   2.360   1.693
 3388TIP3    H110041   8.044   2.351   1.742
 3388TIP3    H210042   8.193   2.371   1.760
 3389TIP3   OH210043   8.308   2.267   2.561
 3389TIP3    H110044   8.300   2.350   2.607
 3389TIP3    H210045   8.226   2.259   2.511
 3390TIP3   OH210046   7.297   2.209   2.023
 3390TIP3    H110047   7.258   2.148   1.961
 3390TIP3    H210048   7.370   2.161   2.062
 3391TIP3   OH210049   7.460   2.648   2.151
 3391TIP3    H110050   7.428   2.630   2.063
 3391TIP3    H210051   7.544   2.603   2.156
 3392TIP3   OH210052   7.414   2.207   2.394
 3392TIP3    H110053   7.446   2.172   2.311
 3392TIP3    H210054   7.458   2.291   2.403
 3393TIP3   OH210055   7.984   2.848   2.172
 3393TIP3    H110056   7.958   2.929   2.215
 3393TIP3    H210057   7.958   2.779   2.232
 3394TIP3   OH210058   7.583   2.743   2.709
 3394TIP3    H110059   7.522   2.800   2.756
 3394TIP3    H210060   7.527   2.693   2.648
 3395TIP3   OH210061   7.912   2.053   1.511
 3395TIP3    H110062   7.971   2.064   1.586
 3395TIP3    H210063   7.951   2.106   1.442
 3396TIP3   OH210064   7.334   2.287   2.863
 3396TIP3    H110065   7.338   2.381   2.877
 3396TIP3    H210066   7.240   2.268   2.853
 3397TIP3   OH210067   7.641   2.791   1.723
 3397TIP3    H110068   7.720   2.843   1.727
 3397TIP3    H210069   7.581   2.842   1.668
 3398TIP3   OH210070   7.376   2.902   2.798
 3398TIP3    H110071   7.351   2.915   2.706
 3398TIP3    H210072   7.293   2.888   2.844
 3399TIP3   OH210073   7.167   2.049   1.830
 3399TIP3    H110074   7.090   2.097   1.802
 3399TIP3    H210075   7.138   1.958   1.836
 3400TIP3   OH210076   8.161   2.679   1.140
 3400TIP3    H110077   8.192   2.766   1.116
 3400TIP3    H210078   8.240   2.624   1.137
 3401TIP3   OH210079   6.972   2.462   2.746
 3401TIP3    H110080   6.902   2.445   2.683
 3401TIP3    H210081   7.005   2.375   2.769
 3402TIP3   OH210082   6.811   2.658   2.400
 3402TIP3    H110083   6.902   2.682   2.419
 3402TIP3    H210084   6.760   2.734   2.427
 3403TIP3   OH210085   8.671   3.119   2.449
 3403TIP3    H110086   8.680   3.024   2.441
 3403TIP3    H210087   8.587   3.132   2.493
 3404TIP3   OH210088   7.772   2.891   2.575
 3404TIP3    H110089   7.762   2.982   2.602
 3404TIP3    H210090   7.703   2.844   2.622
 3405TIP3   OH210091   7.541   2.997   1.546
 3405TIP3    H110092   7.493   2.981   1.465
 3405TIP3    H210093   7.508   3.082   1.576
 3406TIP3   OH210094   6.984   2.846   1.899
 3406TIP3    H110095   7.028   2.840   1.984
 3406TIP3    H210096   6.936   2.764   1.891
 3407TIP3   OH210097   7.743   3.010   1.191
 3407TIP3    H110098   7.717   2.920   1.172
 3407TIP3    H210099   7.778   3.006   1.280
 3408TIP3   OH210100   7.801   2.986   1.462
 3408TIP3    H110101   7.710   2.987   1.492
 3408TIP3    H210102   7.851   2.952   1.536
 3409TIP3   OH210103   8.543   2.237   2.726
 3409TIP3    H110104   8.464   2.247   2.673
 3409TIP3    H210105   8.567   2.145   2.718
 3410TIP3   OH210106   7.171   2.650   2.710
 3410TIP3    H110107   7.221   2.636   2.791
 3410TIP3    H210108   7.098   2.587   2.716
 3411TIP3   OH210109   7.550   1.456   2.528
 3411TIP3    H110110   7.467   1.420   2.496
 3411TIP3    H210111   7.525   1.536   2.574
 3412TIP3   OH210112   8.093   1.579   2.727
 3412TIP3    H110113   8.163   1.546   2.783
 3412TIP3    H210114   8.013   1.559   2.776
 3413TIP3   OH210115   8.321   1.997   2.649
 3413TIP3    H110116   8.280   1.994   2.736
 3413TIP3    H210117   8.301   2.085   2.617
 3414TIP3   OH210118   7.925   2.133   1.237
 3414TIP3    H110119   7.887   2.045   1.239
 3414TIP3    H210120   8.008   2.123   1.191
 3415TIP3   OH210121   7.820   1.410   1.537
 3415TIP3    H110122   7.797   1.418   1.630
 3415TIP3    H210123   7.738   1.429   1.491
 3416TIP3   OH210124   7.496   1.988   2.541
 3416TIP3    H110125   7.448   1.993   2.624
 3416TIP3    H210126   7.474   2.069   2.495
 3417TIP3   OH210127   7.363   1.864   2.062
 3417TIP3    H110128   7.273   1.843   2.088
 3417TIP3    H210129   7.372   1.827   1.974
 3418TIP3   OH210130   7.787   1.947   1.809
 3418TIP3    H110131   7.730   2.016   1.774
 3418TIP3    H210132   7.875   1.973   1.783
 3419TIP3   OH210133   8.029   2.209   2.854
 3419TIP3    H110134   8.003   2.141   2.917
 3419TIP3    H210135   8.121   2.224   2.874
 3420TIP3   OH210136   7.952   1.918   2.038
 3420TIP3    H110137   7.886   1.935   1.970
 3420TIP3    H210138   8.019   1.866   1.992
 3421TIP3   OH210139   7.330   2.004   2.759
 3421TIP3    H110140   7.333   2.070   2.828
 3421TIP3    H210141   7.309   1.922   2.803
 3422TIP3   OH210142   7.353   1.514   1.492
 3422TIP3    H110143   7.343   1.495   1.586
 3422TIP3    H210144   7.265   1.542   1.464
 3423TIP3   OH210145   6.926   1.510   2.350
 3423TIP3    H110146   6.999   1.552   2.395
 3423TIP3    H210147   6.953   1.506   2.258
 3424TIP3   OH210148   6.847   1.485   1.836
 3424TIP3    H110149   6.902   1.518   1.766
 3424TIP3    H210150   6.783   1.555   1.851
 3425TIP3   OH210151   8.066   2.202   2.429
 3425TIP3    H110152   8.086   2.134   2.365
 3425TIP3    H210153   8.021   2.157   2.500
 3426TIP3   OH210154   7.728   1.649   2.118
 3426TIP3    H110155   7.649   1.650   2.172
 3426TIP3    H210156   7.801   1.651   2.180
 3427TIP3   OH210157   7.121   1.740   2.114
 3427TIP3    H110158   7.034   1.747   2.077
 3427TIP3    H210159   7.148   1.650   2.097
 3428TIP3   OH210160   7.373   1.727   1.825
 3428TIP3    H110161   7.465   1.736   1.802
 3428TIP3    H210162   7.326   1.752   1.745
 3429TIP3   OH210163   8.196   1.745   2.331
 3429TIP3    H110164   8.166   1.763   2.420
 3429TIP3    H210165   8.134   1.681   2.298
 3430TIP3   OH210166   7.215   1.772   1.605
 3430TIP3    H110167   7.143   1.717   1.575
 3430TIP3    H210168   7.243   1.819   1.526
 3431TIP3   OH210169   8.385   3.447   2.532
 3431TIP3    H110170   8.378   3.466   2.438
 3431TIP3    H210171   8.462   3.495   2.560
 3432TIP3   OH210172   7.322   2.558   2.945
 3432TIP3    H110173   7.403   2.578   2.993
 3432TIP3    H210174   7.252   2.569   3.009
 3433TIP3   OH210175   7.775   2.039   2.219
 3433TIP3    H110176   7.833   1.986   2.164
 3433TIP3    H210177   7.774   1.993   2.303
 3434TIP3   OH210178   7.269   1.490   2.105
 3434TIP3    H110179   7.238   1.418   2.160
 3434TIP3    H210180   7.284   1.451   2.019
 3435TIP3   OH210181   7.758   1.931   2.476
 3435TIP3    H110182   7.670   1.960   2.503
 3435TIP3    H210183   7.818   1.982   2.531
 3436TIP3   OH210184   7.456   2.302   1.600
 3436TIP3    H110185   7.384   2.242   1.580
 3436TIP3    H210186   7.439   2.332   1.689
 3437TIP3   OH210187   8.377   2.551   2.188
 3437TIP3    H110188   8.409   2.600   2.112
 3437TIP3    H210189   8.293   2.515   2.158
 3438TIP3   OH210190   7.916   1.606   1.368
 3438TIP3    H110191   7.891   1.526   1.416
 3438TIP3    H210192   7.947   1.665   1.436
 3439TIP3   OH210193   7.903   2.632   2.607
 3439TIP3    H110194   7.939   2.621   2.695
 3439TIP3    H210195   7.855   2.715   2.611
 3440TIP3   OH210196   7.972   1.773   1.588
 3440TIP3    H110197   8.062   1.749   1.609
 3440TIP3    H210198   7.975   1.867   1.572
 3441TIP3   OH210199   7.198   2.337   2.248
 3441TIP3    H110200   7.220   2.298   2.164
 3441TIP3    H210201   7.243   2.282   2.313
 3442TIP3   OH210202   7.635   2.481   1.496
 3442TIP3    H110203   7.583   2.559   1.476
 3442TIP3    H210204   7.571   2.416   1.526
 3443TIP3   OH210205   7.060   2.222   2.874
 3443TIP3    H110206   7.056   2.193   2.965
 3443TIP3    H210207   6.985   2.179   2.832
 3444TIP3   OH210208   7.803   2.368   2.896
 3444TIP3    H110209   7.731   2.309   2.872
 3444TIP3    H210210   7.882   2.322   2.867
 3445TIP3   OH210211   8.046   2.914   2.506
 3445TIP3    H110212   7.951   2.900   2.508
 3445TIP3    H210213   8.067   2.948   2.593
 3446TIP3   OH210214   8.445   1.975   1.429
 3446TIP3    H110215   8.486   1.909   1.373
 3446TIP3    H210216   8.417   2.044   1.369
 3447TIP3   OH210217   8.685   2.821   2.461
 3447TIP3    H110218   8.592   2.804   2.444
 3447TIP3    H210219   8.729   2.791   2.382
 3448TIP3   OH210220   8.125   2.798   1.400
 3448TIP3    H110221   8.181   2.760   1.468
 3448TIP3    H210222   8.150   2.752   1.320
 3449TIP3   OH210223   8.133   2.419   2.114
 3449TIP3    H110224   8.043   2.396   2.138
 3449TIP3    H210225   8.175   2.335   2.095
 3450TIP3   OH210226   7.301   2.642   1.919
 3450TIP3    H110227   7.297   2.716   1.858
 3450TIP3    H210228   7.213   2.638   1.957
 3451TIP3   OH210229   6.866   1.931   1.626
 3451TIP3    H110230   6.908   2.013   1.649
 3451TIP3    H210231   6.781   1.934   1.670
 3452TIP3   OH210232   7.391   2.396   1.841
 3452TIP3    H110233   7.366   2.484   1.868
 3452TIP3    H210234   7.358   2.339   1.911
 3453TIP3   OH210235   7.590   2.964   2.367
 3453TIP3    H110236   7.623   3.039   2.318
 3453TIP3    H210237   7.665   2.932   2.416
 3454TIP3   OH210238   7.223   2.861   1.763
 3454TIP3    H110239   7.134   2.869   1.799
 3454TIP3    H210240   7.260   2.949   1.770
 3455TIP3   OH210241   7.939   2.625   2.335
 3455TIP3    H110242   7.927   2.625   2.430
 3455TIP3    H210243   8.014   2.567   2.320
 3456TIP3   OH210244   8.074   2.412   1.241
 3456TIP3    H110245   8.093   2.472   1.313
 3456TIP3    H210246   7.978   2.404   1.241
 3457TIP3   OH210247   8.196   3.121   2.378
 3457TIP3    H110248   8.125   3.061   2.399
 3457TIP3    H210249   8.161   3.176   2.308
 3458TIP3   OH210250   8.240   2.944   1.166
 3458TIP3    H110251   8.230   2.958   1.072
 3458TIP3    H210252   8.174   3.000   1.206
 3459TIP3   OH210253   7.272   1.751   2.875
 3459TIP3    H110254   7.177   1.760   2.877
 3459TIP3    H210255   7.293   1.694   2.949
 3460TIP3   OH210256   8.063   2.525   1.485
 3460TIP3    H110257   8.089   2.468   1.558
 3460TIP3    H210258   8.040   2.608   1.527
 3461TIP3   OH210259   7.018   2.864   2.525
 3461TIP3    H110260   7.072   2.806   2.578
 3461TIP3    H210261   7.033   2.951   2.562
 3462TIP3   OH210262   7.216   2.477   1.249
 3462TIP3    H110263   7.246   2.392   1.217
 3462TIP3    H210264   7.219   2.470   1.344
 3463TIP3   OH210265   7.218   2.484   1.523
 3463TIP3    H110266   7.290   2.457   1.579
 3463TIP3    H210267   7.221   2.580   1.525
 3464TIP3   OH210268   6.955   2.179   1.714
 3464TIP3    H110269   6.888   2.227   1.764
 3464TIP3    H210270   6.975   2.237   1.640
 3465TIP3   OH210271   8.122   1.812   2.587
 3465TIP3    H110272   8.204   1.850   2.618
 3465TIP3    H210273   8.111   1.732   2.639
 3466TIP3   OH210274   7.979   1.573   1.796
 3466TIP3    H110275   7.952   1.617   1.715
 3466TIP3    H210276   8.029   1.639   1.844
 3467TIP3   OH210277   7.491   2.700   1.429
 3467TIP3    H110278   7.403   2.712   1.462
 3467TIP3    H210279   7.508   2.779   1.377
 3468TIP3   OH210280   7.653   1.713   1.855
 3468TIP3    H110281   7.701   1.794   1.835
 3468TIP3    H210282   7.674   1.695   1.946
 3469TIP3   OH210283   7.964   2.044   2.627
 3469TIP3    H110284   7.984   2.083   2.712
 3469TIP3    H210285   8.011   1.961   2.627
 3470TIP3   OH210286   7.818   1.437   1.968
 3470TIP3    H110287   7.791   1.510   2.023
 3470TIP3    H210288   7.884   1.474   1.910
 3471TIP3   OH210289   7.236   2.756   1.511
 3471TIP3    H110290   7.206   2.825   1.451
 3471TIP3    H210291   7.229   2.796   1.598
 3472TIP3   OH210292   7.344   1.459   1.768
 3472TIP3    H110293   7.338   1.548   1.800
 3472TIP3    H210294   7.437   1.437   1.774
 3473TIP3   OH210295   8.593   1.976   2.647
 3473TIP3    H110296   8.499   1.959   2.646
 3473TIP3    H210297   8.623   1.952   2.559
 3474TIP3   OH210298   8.241   2.165   2.076
 3474TIP3    H110299   8.179   2.114   2.129
 3474TIP3    H210300   8.327   2.130   2.100
 3475TIP3   OH210301   6.974   2.357   1.499
 3475TIP3    H110302   7.049   2.415   1.515
 3475TIP3    H210303   7.004   2.299   1.429
 3476TIP3   OH210304   6.907   1.657   1.620
 3476TIP3    H110305   6.907   1.752   1.632
 3476TIP3    H210306   6.815   1.635   1.602
 3477TIP3   OH210307   8.217   3.128   1.943
 3477TIP3    H110308   8.169   3.191   1.889
 3477TIP3    H210309   8.309   3.152   1.932
 3478TIP3   OH210310   7.291   1.366   2.487
 3478TIP3    H110311   7.259   1.335   2.403
 3478TIP3    H210312   7.282   1.291   2.546
 3479TIP3   OH210313   6.809   2.624   1.877
 3479TIP3    H110314   6.766   2.661   1.954
 3479TIP3    H210315   6.766   2.666   1.803
 3480TIP3   OH210316   7.017   3.159   2.947
 3480TIP3    H110317   7.100   3.161   2.994
 3480TIP3    H210318   6.998   3.065   2.936
 3481TIP3   OH210319   7.483   3.062   2.996
 3481TIP3    H110320   7.575   3.036   3.002
 3481TIP3    H210321   7.448   3.010   2.923
 3482TIP3   OH210322   7.415   2.629   1.133
 3482TIP3    H110323   7.331   2.615   1.177
 3482TIP3    H210324   7.462   2.547   1.144
 3483TIP3   OH210325   8.105   3.003   2.761
 3483TIP3    H110326   8.126   2.931   2.820
 3483TIP3    H210327   8.177   3.065   2.771
 3484TIP3   OH210328   7.943   2.844   0.984
 3484TIP3    H110329   7.913   2.866   1.072
 3484TIP3    H210330   7.940   2.748   0.982
 3485TIP3   OH210331   7.116   2.565   3.134
 3485TIP3    H110332   7.133   2.471   3.146
 3485TIP3    H210333   7.031   2.569   3.091
 3486TIP3   OH210334   7.094   2.175   1.335
 3486TIP3    H110335   7.139   2.148   1.414
 3486TIP3    H210336   7.163   2.188   1.270
 3487TIP3   OH210337   7.740   2.642   2.911
 3487TIP3    H110338   7.691   2.662   2.831
 3487TIP3    H210339   7.770   2.552   2.898
 3488TIP3   OH210340   7.518   2.386   1.202
 3488TIP3    H110341   7.547   2.353   1.287
 3488TIP3    H210342   7.464   2.316   1.166
 3489TIP3   OH210343   8.224   2.693   2.544
 3489TIP3    H110344   8.295   2.719   2.485
 3489TIP3    H210345   8.154   2.756   2.527
 3490TIP3   OH210346   7.229   2.310   3.148
 3490TIP3    H110347   7.302   2.290   3.089
 3490TIP3    H210348   7.271   2.328   3.233
 3491TIP3   OH210349   7.249   2.123   1.569
 3491TIP3    H110350   7.228   2.094   1.658
 3491TIP3    H210351   7.270   2.043   1.521
 3492TIP3   OH210352   7.598   2.195   2.808
 3492TIP3    H110353   7.509   2.228   2.818
 3492TIP3    H210354   7.623   2.221   2.719
 3493TIP3   OH210355   7.304   1.923   1.394
 3493TIP3    H110356   7.286   1.921   1.300
 3493TIP3    H210357   7.400   1.924   1.399
 3494TIP3   OH210358   8.106   2.561   2.888
 3494TIP3    H110359   8.161   2.513   2.827
 3494TIP3    H210360   8.096   2.502   2.963
 3495TIP3   OH210361   8.144   2.111   1.076
 3495TIP3    H110362   8.128   2.068   0.992
 3495TIP3    H210363   8.156   2.203   1.055
 3496TIP3   OH210364   7.698   1.959   2.908
 3496TIP3    H110365   7.698   1.888   2.843
 3496TIP3    H210366   7.663   2.035   2.861
 3497TIP3   OH210367   7.705   1.760   2.706
 3497TIP3    H110368   7.732   1.793   2.620
 3497TIP3    H210369   7.615   1.731   2.693
 3498TIP3   OH210370   7.703   2.285   2.573
 3498TIP3    H110371   7.792   2.317   2.557
 3498TIP3    H210372   7.647   2.343   2.523
 3499TIP3   OH210373   8.301   2.229   2.945
 3499TIP3    H110374   8.296   2.133   2.946
 3499TIP3    H210375   8.391   2.248   2.920
 3500TIP3   OH210376   8.337   2.509   2.707
 3500TIP3    H110377   8.287   2.573   2.656
 3500TIP3    H210378   8.428   2.527   2.685
 3501TIP3   OH210379   7.585   2.035   3.154
 3501TIP3    H110380   7.515   1.973   3.174
 3501TIP3    H210381   7.612   2.013   3.065
 3502TIP3   OH210382   7.829   1.531   2.810
 3502TIP3    H110383   7.788   1.611   2.777
 3502TIP3    H210384   7.763   1.463   2.797
 3503TIP3   OH210385   7.953   1.996   3.010
 3503TIP3    H110386   7.943   1.981   3.104
 3503TIP3    H210387   7.867   1.975   2.974
 3504TIP3   OH210388   8.207   1.968   2.894
 3504TIP3    H110389   8.124   1.956   2.940
 3504TIP3    H210390   8.272   1.923   2.949
 3505TIP3   OH210391   8.430   1.902   3.041
 3505TIP3    H110392   8.442   1.807   3.048
 3505TIP3    H210393   8.425   1.932   3.132
 3506TIP3   OH210394   7.415   1.818   3.216
 3506TIP3    H110395   7.421   1.730   3.178
 3506TIP3    H210396   7.455   1.809   3.303
 3507TIP3   OH210397   7.894   1.503   3.075
 3507TIP3    H110398   7.961   1.435   3.068
 3507TIP3    H210399   7.864   1.516   2.985
 3508TIP3   OH210400   7.993   1.716   3.218
 3508TIP3    H110401   7.962   1.643   3.165
 3508TIP3    H210402   7.919   1.777   3.220
 3509TIP3   OH210403   7.210   2.966   1.334
 3509TIP3    H110404   7.305   2.965   1.318
 3509TIP3    H210405   7.173   3.009   1.257
 3510TIP3   OH210406   6.702   2.349   1.510
 3510TIP3    H110407   6.797   2.362   1.509
 3510TIP3    H210408   6.689   2.264   1.469
 3511TIP3   OH210409   6.611   2.931   1.965
 3511TIP3    H110410   6.547   2.876   1.920
 3511TIP3    H210411   6.657   2.870   2.023
 3512TIP3   OH210412   6.759   2.763   2.130
 3512TIP3    H110413   6.751   2.693   2.195
 3512TIP3    H210414   6.810   2.831   2.174
 3513TIP3   OH210415   8.476   3.214   1.947
 3513TIP3    H110416   8.504   3.236   2.036
 3513TIP3    H210417   8.530   3.269   1.890
 3514TIP3   OH210418   8.508   3.214   2.225
 3514TIP3    H110419   8.463   3.129   2.218
 3514TIP3    H210420   8.584   3.197   2.280
 3515TIP3   OH210421   8.435   2.465   1.422
 3515TIP3    H110422   8.524   2.482   1.391
 3515TIP3    H210423   8.441   2.380   1.466
 3516TIP3   OH210424   8.459   2.389   1.785
 3516TIP3    H110425   8.440   2.347   1.701
 3516TIP3    H210426   8.460   2.317   1.848
 3517TIP3   OH210427   8.560   2.698   2.032
 3517TIP3    H110428   8.581   2.658   1.948
 3517TIP3    H210429   8.552   2.791   2.013
 3518TIP3   OH210430   8.373   2.970   2.228
 3518TIP3    H110431   8.304   3.014   2.278
 3518TIP3    H210432   8.327   2.932   2.153
 3519TIP3   OH210433   8.343   2.166   1.262
 3519TIP3    H110434   8.304   2.125   1.185
 3519TIP3    H210435   8.268   2.196   1.314
 3520TIP3   OH210436   8.336   1.712   1.090
 3520TIP3    H110437   8.270   1.778   1.112
 3520TIP3    H210438   8.418   1.747   1.125
 3521TIP3   OH210439   8.301   2.122   1.809
 3521TIP3    H110440   8.340   2.035   1.798
 3521TIP3    H210441   8.277   2.126   1.902
 3522TIP3   OH210442   6.933   2.195   2.514
 3522TIP3    H110443   6.919   2.160   2.426
 3522TIP3    H210444   7.028   2.191   2.527
 3523TIP3   OH210445   8.605   2.585   2.657
 3523TIP3    H110446   8.666   2.512   2.648
 3523TIP3    H210447   8.618   2.638   2.578
 3524TIP3   OH210448   8.768   2.357   2.622
 3524TIP3    H110449   8.690   2.312   2.655
 3524TIP3    H210450   8.837   2.291   2.626
 3525TIP3   OH210451   8.232   1.692   1.641
 3525TIP3    H110452   8.299   1.635   1.679
 3525TIP3    H210453   8.253   1.694   1.547
 3526TIP3   OH210454   8.473   2.044   2.147
 3526TIP3    H110455   8.554   2.067   2.100
 3526TIP3    H210456   8.490   2.070   2.238
 3527TIP3   OH210457   8.522   2.183   2.387
 3527TIP3    H110458   8.447   2.211   2.439
 3527TIP3    H210459   8.545   2.260   2.335
 3528TIP3   OH210460   7.151   1.880   3.157
 3528TIP3    H110461   7.245   1.875   3.173
 3528TIP3    H210462   7.116   1.799   3.193
 3529TIP3   OH210463   8.425   1.526   1.734
 3529TIP3    H110464   8.487   1.534   1.806
 3529TIP3    H210465   8.355   1.471   1.769
 3530TIP3   OH210466   7.138   1.595   2.507
 3530TIP3    H110467   7.189   1.515   2.511
 3530TIP3    H210468   7.201   1.664   2.487
 3531TIP3   OH210469   6.911   1.851   2.571
 3531TIP3    H110470   6.963   1.834   2.492
 3531TIP3    H210471   6.919   1.946   2.585
 3532TIP3   OH210472   8.837   1.897   2.755
 3532TIP3    H110473   8.749   1.935   2.755
 3532TIP3    H210474   8.829   1.821   2.698
 3533TIP3   OH210475   6.922   1.353   2.065
 3533TIP3    H110476   6.839   1.333   2.109
 3533TIP3    H210477   6.897   1.409   1.991
 3534TIP3   OH210478   8.029   3.128   1.651
 3534TIP3    H110479   8.084   3.112   1.575
 3534TIP3    H210480   8.072   3.200   1.697
 3535TIP3   OH210481   7.131   1.427   2.893
 3535TIP3    H110482   7.078   1.421   2.972
 3535TIP3    H210483   7.075   1.474   2.830
 3536TIP3   OH210484   7.152   2.877   2.962
 3536TIP3    H110485   7.058   2.861   2.952
 3536TIP3    H210486   7.168   2.869   3.056
 3537TIP3   OH210487   7.362   2.929   2.516
 3537TIP3    H110488   7.310   3.003   2.484
 3537TIP3    H210489   7.446   2.938   2.472
 3538TIP3   OH210490   7.755   3.157   2.650
 3538TIP3    H110491   7.792   3.151   2.738
 3538TIP3    H210492   7.816   3.214   2.602
 3539TIP3   OH210493   7.945   3.317   2.529
 3539TIP3    H110494   8.006   3.271   2.471
 3539TIP3    H210495   8.001   3.374   2.582
 3540TIP3   OH210496   8.714   1.675   2.613
 3540TIP3    H110497   8.633   1.694   2.565
 3540TIP3    H210498   8.746   1.593   2.574
 3541TIP3   OH210499   7.025   3.160   2.565
 3541TIP3    H110500   6.934   3.177   2.540
 3541TIP3    H210501   7.046   3.229   2.628
 3542TIP3   OH210502   7.253   3.159   2.410
 3542TIP3    H110503   7.170   3.162   2.459
 3542TIP3    H210504   7.229   3.184   2.321
 3543TIP3   OH210505   7.664   3.175   2.203
 3543TIP3    H110506   7.591   3.186   2.142
 3543TIP3    H210507   7.675   3.261   2.243
 3544TIP3   OH210508   7.927   3.108   2.253
 3544TIP3    H110509   7.835   3.131   2.235
 3544TIP3    H210510   7.977   3.174   2.205
 3545TIP3   OH210511   8.128   3.280   2.155
 3545TIP3    H110512   8.125   3.367   2.117
 3545TIP3    H210513   8.157   3.223   2.084
 3546TIP3   OH210514   6.929   2.944   2.274
 3546TIP3    H110515   6.956   2.921   2.363
 3546TIP3    H210516   7.001   2.915   2.219
 3547TIP3   OH210517   7.135   2.841   2.131
 3547TIP3    H110518   7.148   2.759   2.179
 3547TIP3    H210519   7.221   2.883   2.133
 3548TIP3   OH210520   7.405   2.920   2.161
 3548TIP3    H110521   7.424   2.828   2.144
 3548TIP3    H210522   7.456   2.942   2.239
 3549TIP3   OH210523   7.964   1.571   2.257
 3549TIP3    H110524   7.927   1.494   2.301
 3549TIP3    H210525   8.029   1.535   2.197
 3550TIP3   OH210526   8.447   1.451   2.120
 3550TIP3    H110527   8.495   1.510   2.063
 3550TIP3    H210528   8.358   1.487   2.123
 3551TIP3   OH210529   8.612   1.557   1.933
 3551TIP3    H110530   8.693   1.511   1.912
 3551TIP3    H210531   8.636   1.650   1.927
 3552TIP3   OH210532   7.195   1.266   2.249
 3552TIP3    H110533   7.106   1.230   2.253
 3552TIP3    H210534   7.251   1.188   2.243
 3553TIP3   OH210535   7.046   1.168   1.898
 3553TIP3    H110536   7.058   1.224   1.822
 3553TIP3    H210537   7.006   1.224   1.964
 3554TIP3   OH210538   7.675   1.287   2.153
 3554TIP3    H110539   7.728   1.335   2.090
 3554TIP3    H210540   7.713   1.309   2.238
 3555TIP3   OH210541   8.169   1.473   2.102
 3555TIP3    H110542   8.180   1.443   2.012
 3555TIP3    H210543   8.170   1.393   2.155
 3556TIP3   OH210544   8.201   1.404   1.834
 3556TIP3    H110545   8.122   1.447   1.804
 3556TIP3    H210546   8.185   1.311   1.820
 3557TIP3   OH210547   6.693   2.746   1.658
 3557TIP3    H110548   6.610   2.714   1.623
 3557TIP3    H210549   6.697   2.837   1.629
 3558TIP3   OH210550   7.124   1.318   1.674
 3558TIP3    H110551   7.167   1.256   1.615
 3558TIP3    H210552   7.195   1.367   1.714
 3559TIP3   OH210553   7.628   1.448   1.768
 3559TIP3    H110554   7.680   1.429   1.846
 3559TIP3    H210555   7.629   1.543   1.761
 3560TIP3   OH210556   7.477   2.946   1.275
 3560TIP3    H110557   7.544   3.009   1.248
 3560TIP3    H210558   7.467   2.888   1.200
 3561TIP3   OH210559   8.166   3.067   1.431
 3561TIP3    H110560   8.149   2.974   1.420
 3561TIP3    H210561   8.128   3.108   1.353
 3562TIP3   OH210562   7.435   1.548   3.129
 3562TIP3    H110563   7.401   1.481   3.189
 3562TIP3    H210564   7.527   1.556   3.154
 3563TIP3   OH210565   7.682   1.554   3.254
 3563TIP3    H110566   7.758   1.532   3.200
 3563TIP3    H210567   7.676   1.483   3.319
 3564TIP3   OH210568   6.786   2.744   1.329
 3564TIP3    H110569   6.794   2.754   1.424
 3564TIP3    H210570   6.866   2.699   1.303
 3565TIP3   OH210571   8.489   1.633   3.041
 3565TIP3    H110572   8.512   1.604   3.130
 3565TIP3    H210573   8.572   1.630   2.993
 3566TIP3   OH210574   8.413   3.173   2.546
 3566TIP3    H110575   8.341   3.144   2.490
 3566TIP3    H210576   8.407   3.268   2.546
 3567TIP3   OH210577   8.649   2.091   1.667
 3567TIP3    H110578   8.556   2.071   1.677
 3567TIP3    H210579   8.677   2.040   1.592
 3568TIP3   OH210580   8.761   2.316   1.763
 3568TIP3    H110581   8.718   2.232   1.747
 3568TIP3    H210582   8.747   2.365   1.682
 3569TIP3   OH210583   8.641   2.607   1.287
 3569TIP3    H110584   8.567   2.667   1.276
 3569TIP3    H210585   8.697   2.651   1.351
 3570TIP3   OH210586   8.772   2.719   2.218
 3570TIP3    H110587   8.701   2.699   2.156
 3570TIP3    H210588   8.786   2.636   2.264
 3571TIP3   OH210589   8.578   2.956   1.940
 3571TIP3    H110590   8.664   2.993   1.961
 3571TIP3    H210591   8.519   3.032   1.942
 3572TIP3   OH210592   8.830   3.158   1.372
 3572TIP3    H110593   8.878   3.169   1.454
 3572TIP3    H210594   8.772   3.084   1.388
 3573TIP3   OH210595   8.884   2.968   2.211
 3573TIP3    H110596   8.963   2.958   2.263
 3573TIP3    H210597   8.847   2.880   2.207
 3574TIP3   OH210598   8.704   1.801   1.857
 3574TIP3    H110599   8.779   1.858   1.843
 3574TIP3    H210600   8.697   1.749   1.777
 3575TIP3   OH210601   8.789   2.506   2.391
 3575TIP3    H110602   8.804   2.456   2.471
 3575TIP3    H210603   8.726   2.453   2.341
 3576TIP3   OH210604   8.554   2.304   1.158
 3576TIP3    H110605   8.615   2.274   1.225
 3576TIP3    H210606   8.473   2.255   1.176
 3577TIP3   OH210607   8.785   3.128   2.013
 3577TIP3    H110608   8.826   3.076   2.082
 3577TIP3    H210609   8.805   3.219   2.036
 3578TIP3   OH210610   8.651   2.957   1.411
 3578TIP3    H110611   8.565   2.998   1.414
 3578TIP3    H210612   8.666   2.938   1.319
 3579TIP3   OH210613   8.774   3.386   2.419
 3579TIP3    H110614   8.857   3.377   2.466
 3579TIP3    H210615   8.737   3.297   2.418
 3580TIP3   OH210616   8.840   2.829   2.696
 3580TIP3    H110617   8.916   2.771   2.695
 3580TIP3    H210618   8.801   2.819   2.609
 3581TIP3   OH210619   8.559   2.688   1.008
 3581TIP3    H110620   8.644   2.647   1.019
 3581TIP3    H210621   8.500   2.638   1.064
 3582TIP3   OH210622   8.416   3.249   1.511
 3582TIP3    H110623   8.393   3.196   1.434
 3582TIP3    H210624   8.437   3.184   1.578
 3583TIP3   OH210625   8.506   3.049   1.673
 3583TIP3    H110626   8.505   2.978   1.737
 3583TIP3    H210627   8.584   3.100   1.697
 3584TIP3   OH210628   8.776   2.404   2.019
 3584TIP3    H110629   8.765   2.378   1.927
 3584TIP3    H210630   8.851   2.463   2.018
 3585TIP3   OH210631   8.925   2.125   2.618
 3585TIP3    H110632   9.020   2.118   2.609
 3585TIP3    H210633   8.900   2.049   2.671
 3586TIP3   OH210634   8.714   2.130   2.049
 3586TIP3    H110635   8.797   2.087   2.028
 3586TIP3    H210636   8.735   2.223   2.050
 3587TIP3   OH210637   8.936   3.190   2.554
 3587TIP3    H110638   8.857   3.148   2.520
 3587TIP3    H210639   8.959   3.139   2.632
 3588TIP3   OH210640   8.820   3.401   2.038
 3588TIP3    H110641   8.732   3.434   2.016
 3588TIP3    H210642   8.855   3.466   2.099
 3589TIP3   OH210643   9.008   3.301   1.835
 3589TIP3    H110644   8.957   3.325   1.912
 3589TIP3    H210645   9.014   3.381   1.783
 3590TIP3   OH210646   8.722   3.201   1.752
 3590TIP3    H110647   8.747   3.179   1.842
 3590TIP3    H210648   8.798   3.176   1.700
 3591TIP3   OH210649   8.955   3.133   1.621
 3591TIP3    H110650   9.011   3.056   1.615
 3591TIP3    H210651   8.993   3.185   1.692
 3592TIP3   OH210652   8.441   3.098   1.288
 3592TIP3    H110653   8.372   3.041   1.253
 3592TIP3    H210654   8.458   3.161   1.219
 3593TIP3   OH210655   8.635   2.927   0.800
 3593TIP3    H110656   8.582   2.953   0.876
 3593TIP3    H210657   8.725   2.930   0.832
 3594TIP3   OH210658   0.375   3.087   3.497
 3594TIP3    H110659   0.330   3.162   3.536
 3594TIP3    H210660   0.306   3.036   3.456
 3595TIP3   OH210661   0.373   3.081   3.906
 3595TIP3    H110662   0.420   3.070   3.989
 3595TIP3    H210663   0.328   2.998   3.892
 3596TIP3   OH210664   9.447   2.889   4.261
 3596TIP3    H110665   9.487   2.840   4.333
 3596TIP3    H210666   9.470   2.980   4.278
 3597TIP3   OH210667   0.614   3.394   3.586
 3597TIP3    H110668   0.613   3.326   3.653
 3597TIP3    H210669   0.639   3.474   3.633
 3598TIP3   OH210670   9.603   3.366   3.913
 3598TIP3    H110671   9.569   3.276   3.909
 3598TIP3    H210672   9.579   3.397   4.000
 3599TIP3   OH210673   0.266   3.833   3.596
 3599TIP3    H110674   0.286   3.753   3.546
 3599TIP3    H210675   0.278   3.807   3.688
 3600TIP3   OH210676   0.215   3.309   3.902
 3600TIP3    H110677   0.259   3.225   3.887
 3600TIP3    H210678   0.280   3.363   3.946
 3601TIP3   OH210679   1.190   2.630   3.934
 3601TIP3    H110680   1.209   2.712   3.979
 3601TIP3    H210681   1.202   2.650   3.841
 3602TIP3   OH210682   0.579   2.803   3.958
 3602TIP3    H110683   0.617   2.719   3.982
 3602TIP3    H210684   0.535   2.788   3.875
 3603TIP3   OH210685   9.686   2.541   3.872
 3603TIP3    H110686   9.591   2.528   3.866
 3603TIP3    H210687   9.724   2.475   3.814
 3604TIP3   OH210688   0.645   2.584   3.571
 3604TIP3    H110689   0.713   2.567   3.637
 3604TIP3    H210690   0.692   2.626   3.499
 3605TIP3   OH210691   9.407   2.524   3.927
 3605TIP3    H110692   9.392   2.471   4.005
 3605TIP3    H210693   9.396   2.614   3.957
 3606TIP3   OH210694  -0.015   2.829   3.844
 3606TIP3    H110695   0.080   2.831   3.851
 3606TIP3    H210696  -0.036   2.735   3.844
 3607TIP3   OH210697   1.249   2.851   4.092
 3607TIP3    H110698   1.160   2.885   4.091
 3607TIP3    H210699   1.286   2.886   4.174
 3608TIP3   OH210700   9.707   2.434   4.367
 3608TIP3    H110701   9.661   2.479   4.296
 3608TIP3    H210702   9.662   2.461   4.447
 3609TIP3   OH210703   0.193   3.324   3.433
 3609TIP3    H110704   0.175   3.286   3.347
 3609TIP3    H210705   0.284   3.354   3.426
 3610TIP3   OH210706   0.045   3.204   4.096
 3610TIP3    H110707   0.002   3.270   4.151
 3610TIP3    H210708   0.092   3.255   4.029
 3611TIP3   OH210709   0.819   2.565   3.780
 3611TIP3    H110710   0.764   2.549   3.857
 3611TIP3    H210711   0.861   2.649   3.798
 3612TIP3   OH210712   9.625   2.559   4.144
 3612TIP3    H110713   9.662   2.643   4.172
 3612TIP3    H210714   9.648   2.553   4.051
 3613TIP3   OH210715   9.712   3.386   4.253
 3613TIP3    H110716   9.692   3.472   4.217
 3613TIP3    H210717   9.632   3.359   4.298
 3614TIP3   OH210718   0.649   3.641   3.722
 3614TIP3    H110719   0.560   3.631   3.756
 3614TIP3    H210720   0.647   3.725   3.677
 3615TIP3   OH210721   0.987   2.518   4.097
 3615TIP3    H110722   0.902   2.538   4.058
 3615TIP3    H210723   1.051   2.547   4.032
 3616TIP3   OH210724   0.266   2.185   4.109
 3616TIP3    H110725   0.260   2.089   4.118
 3616TIP3    H210726   0.181   2.217   4.138
 3617TIP3   OH210727   0.329   3.638   3.409
 3617TIP3    H110728   0.372   3.554   3.394
 3617TIP3    H210729   0.390   3.703   3.373
 3618TIP3   OH210730   0.454   3.398   3.367
 3618TIP3    H110731   0.502   3.368   3.290
 3618TIP3    H210732   0.516   3.392   3.439
 3619TIP3   OH210733   0.889   3.536   4.058
 3619TIP3    H110734   0.874   3.461   4.001
 3619TIP3    H210735   0.872   3.612   4.003
 3620TIP3   OH210736   0.191   2.951   3.341
 3620TIP3    H110737   0.110   2.991   3.309
 3620TIP3    H210738   0.242   2.935   3.262
 3621TIP3   OH210739   1.072   3.193   3.942
 3621TIP3    H110740   0.988   3.238   3.939
 3621TIP3    H210741   1.110   3.207   3.855
 3622TIP3   OH210742   0.563   3.061   3.301
 3622TIP3    H110743   0.505   3.074   3.376
 3622TIP3    H210744   0.643   3.024   3.339
 3623TIP3   OH210745   0.770   3.051   4.250
 3623TIP3    H110746   0.769   3.136   4.294
 3623TIP3    H210747   0.687   3.048   4.203
 3624TIP3   OH210748   9.622   3.016   3.720
 3624TIP3    H110749   9.568   2.958   3.667
 3624TIP3    H210750   9.685   2.958   3.763
 3625TIP3   OH210751   0.022   3.418   3.741
 3625TIP3    H110752  -0.056   3.402   3.793
 3625TIP3    H210753   0.095   3.390   3.796
 3626TIP3   OH210754   9.695   2.980   4.060
 3626TIP3    H110755   9.733   2.933   3.987
 3626TIP3    H210756   9.753   3.055   4.074
 3627TIP3   OH210757   0.408   3.618   3.848
 3627TIP3    H110758   0.404   3.704   3.890
 3627TIP3    H210759   0.406   3.556   3.921
 3628TIP3   OH210760   0.098   3.526   4.402
 3628TIP3    H110761   0.040   3.588   4.445
 3628TIP3    H210762   0.039   3.464   4.360
 3629TIP3   OH210763   0.395   2.903   3.150
 3629TIP3    H110764   0.454   2.965   3.191
 3629TIP3    H210765   0.422   2.900   3.058
 3630TIP3   OH210766   9.695   3.108   4.431
 3630TIP3    H110767   9.714   3.192   4.474
 3630TIP3    H210768   9.614   3.124   4.382
 3631TIP3   OH210769   0.062   3.578   3.469
 3631TIP3    H110770   0.151   3.597   3.440
 3631TIP3    H210771   0.014   3.659   3.452
 3632TIP3   OH210772   9.682   3.708   4.446
 3632TIP3    H110773   9.663   3.681   4.357
 3632TIP3    H210774   9.610   3.672   4.498
 3633TIP3   OH210775   0.700   3.481   2.741
 3633TIP3    H110776   0.693   3.574   2.717
 3633TIP3    H210777   0.791   3.458   2.723
 3634TIP3   OH210778   9.256   3.275   4.465
 3634TIP3    H110779   9.185   3.281   4.401
 3634TIP3    H210780   9.226   3.209   4.528
 3635TIP3   OH210781   1.119   3.879   4.137
 3635TIP3    H110782   1.123   3.785   4.155
 3635TIP3    H210783   1.042   3.909   4.184
 3636TIP3   OH210784   0.245   3.684   4.234
 3636TIP3    H110785   0.243   3.773   4.269
 3636TIP3    H210786   0.195   3.632   4.296
 3637TIP3   OH210787   9.811   3.756   3.198
 3637TIP3    H110788   9.783   3.766   3.107
 3637TIP3    H210789   9.788   3.840   3.239
 3638TIP3   OH210790   9.346   3.499   3.621
 3638TIP3    H110791   9.383   3.586   3.637
 3638TIP3    H210792   9.291   3.482   3.697
 3639TIP3   OH210793   0.224   3.695   2.851
 3639TIP3    H110794   0.278   3.623   2.818
 3639TIP3    H210795   0.257   3.711   2.939
 3640TIP3   OH210796   0.276   3.761   3.113
 3640TIP3    H110797   0.196   3.746   3.163
 3640TIP3    H210798   0.345   3.764   3.180
 3641TIP3   OH210799   1.011   3.000   4.405
 3641TIP3    H110800   0.928   3.010   4.360
 3641TIP3    H210801   1.030   2.906   4.400
 3642TIP3   OH210802   9.474   3.445   4.408
 3642TIP3    H110803   9.538   3.448   4.479
 3642TIP3    H210804   9.410   3.380   4.436
 3643TIP3   OH210805   9.810   2.241   4.202
 3643TIP3    H110806   9.735   2.215   4.148
 3643TIP3    H210807   9.776   2.311   4.258
 3644TIP3   OH210808   0.558   2.371   4.423
 3644TIP3    H110809   0.627   2.346   4.484
 3644TIP3    H210810   0.477   2.356   4.472
 3645TIP3   OH210811   0.767   2.784   4.331
 3645TIP3    H110812   0.731   2.778   4.420
 3645TIP3    H210813   0.753   2.876   4.306
 3646TIP3   OH210814   0.479   2.897   2.887
 3646TIP3    H110815   0.405   2.933   2.838
 3646TIP3    H210816   0.557   2.931   2.842
 3647TIP3   OH210817   9.750   2.782   4.243
 3647TIP3    H110818   9.713   2.797   4.330
 3647TIP3    H210819   9.722   2.859   4.192
 3648TIP3   OH210820   0.300   2.749   3.497
 3648TIP3    H110821   0.250   2.817   3.452
 3648TIP3    H210822   0.368   2.724   3.434
 3649TIP3   OH210823   0.503   2.987   4.540
 3649TIP3    H110824   0.476   2.921   4.603
 3649TIP3    H210825   0.595   3.005   4.562
 3650TIP3   OH210826   0.472   2.746   3.713
 3650TIP3    H110827   0.403   2.766   3.649
 3650TIP3    H210828   0.524   2.676   3.671
 3651TIP3   OH210829   9.604   2.794   4.481
 3651TIP3    H110830   9.597   2.871   4.538
 3651TIP3    H210831   9.624   2.722   4.541
 3652TIP3   OH210832   0.518   2.999   4.134
 3652TIP3    H110833   0.547   2.933   4.071
 3652TIP3    H210834   0.468   2.949   4.199
 3653TIP3   OH210835   0.198   2.515   3.842
 3653TIP3    H110836   0.142   2.534   3.918
 3653TIP3    H210837   0.275   2.471   3.880
 3654TIP3   OH210838   0.654   2.538   4.004
 3654TIP3    H110839   0.628   2.552   4.095
 3654TIP3    H210840   0.589   2.478   3.969
 3655TIP3   OH210841   0.845   4.237   4.226
 3655TIP3    H110842   0.841   4.252   4.132
 3655TIP3    H210843   0.925   4.282   4.254
 3656TIP3   OH210844   9.678   3.397   4.595
 3656TIP3    H110845   9.726   3.431   4.670
 3656TIP3    H210846   9.622   3.328   4.631
 3657TIP3   OH210847   0.255   2.823   3.905
 3657TIP3    H110848   0.313   2.766   3.855
 3657TIP3    H210849   0.251   2.782   3.992
 3658TIP3   OH210850   0.209   2.719   4.164
 3658TIP3    H110851   0.125   2.753   4.194
 3658TIP3    H210852   0.274   2.765   4.217
 3659TIP3   OH210853   9.760   3.110   3.289
 3659TIP3    H110854   9.679   3.148   3.256
 3659TIP3    H210855   9.760   3.132   3.382
 3660TIP3   OH210856   0.837   3.328   3.886
 3660TIP3    H110857   0.874   3.376   3.812
 3660TIP3    H210858   0.759   3.285   3.850
 3661TIP3   OH210859   0.361   3.390   4.318
 3661TIP3    H110860   0.418   3.375   4.393
 3661TIP3    H210861   0.297   3.455   4.348
 3662TIP3   OH210862   0.491   2.695   3.310
 3662TIP3    H110863   0.585   2.685   3.297
 3662TIP3    H210864   0.463   2.756   3.241
 3663TIP3   OH210865   9.479   3.119   3.957
 3663TIP3    H110866   9.491   3.083   3.869
 3663TIP3    H210867   9.542   3.070   4.011
 3664TIP3   OH210868   0.159   3.249   3.154
 3664TIP3    H110869   0.112   3.328   3.126
 3664TIP3    H210870   0.090   3.189   3.180
 3665TIP3   OH210871   9.349   3.001   4.563
 3665TIP3    H110872   9.322   2.994   4.655
 3665TIP3    H210873   9.301   2.930   4.519
 3666TIP3   OH210874   0.275   3.141   4.579
 3666TIP3    H110875   0.210   3.079   4.545
 3666TIP3    H210876   0.359   3.105   4.552
 3667TIP3   OH210877   0.515   3.699   4.174
 3667TIP3    H110878   0.420   3.682   4.178
 3667TIP3    H210879   0.535   3.737   4.260
 3668TIP3   OH210880   0.905   2.731   3.075
 3668TIP3    H110881   0.837   2.687   3.024
 3668TIP3    H210882   0.907   2.820   3.040
 3669TIP3   OH210883   1.132   3.595   4.162
 3669TIP3    H110884   1.038   3.587   4.147
 3669TIP3    H210885   1.172   3.574   4.078
 3670TIP3   OH210886   0.623   3.542   3.005
 3670TIP3    H110887   0.606   3.460   3.052
 3670TIP3    H210888   0.646   3.514   2.916
 3671TIP3   OH210889   0.615   3.189   3.778
 3671TIP3    H110890   0.530   3.166   3.816
 3671TIP3    H210891   0.647   3.107   3.741
 3672TIP3   OH210892   9.606   3.436   3.532
 3672TIP3    H110893   9.605   3.505   3.466
 3672TIP3    H210894   9.525   3.448   3.581
 3673TIP3   OH210895   9.740   3.207   3.550
 3673TIP3    H110896   9.663   3.263   3.544
 3673TIP3    H210897   9.717   3.141   3.615
 3674TIP3   OH210898   0.079   3.733   4.025
 3674TIP3    H110899   0.105   3.817   3.989
 3674TIP3    H210900   0.148   3.710   4.087
 3675TIP3   OH210901   9.539   3.643   3.358
 3675TIP3    H110902   9.497   3.680   3.436
 3675TIP3    H210903   9.612   3.702   3.341
 3676TIP3   OH210904   0.420   3.418   4.049
 3676TIP3    H110905   0.390   3.411   4.140
 3676TIP3    H210906   0.514   3.402   4.053
 3677TIP3   OH210907   0.392   3.282   2.934
 3677TIP3    H110908   0.457   3.280   3.004
 3677TIP3    H210909   0.308   3.271   2.978
 3678TIP3   OH210910   0.648   3.928   4.076
 3678TIP3    H110911   0.582   3.859   4.085
 3678TIP3    H210912   0.622   3.975   3.997
 3679TIP3   OH210913   0.699   3.754   2.700
 3679TIP3    H110914   0.716   3.810   2.624
 3679TIP3    H210915   0.633   3.802   2.750
 3680TIP3   OH210916   9.590   2.528   4.606
 3680TIP3    H110917   9.528   2.565   4.668
 3680TIP3    H210918   9.640   2.464   4.656
 3681TIP3   OH210919   0.590   3.274   3.130
 3681TIP3    H110920   0.568   3.201   3.188
 3681TIP3    H210921   0.682   3.259   3.107
 3682TIP3   OH210922   9.313   3.661   4.263
 3682TIP3    H110923   9.230   3.614   4.275
 3682TIP3    H210924   9.365   3.637   4.340
 3683TIP3   OH210925   9.536   3.265   3.229
 3683TIP3    H110926   9.457   3.288   3.277
 3683TIP3    H210927   9.548   3.336   3.166
 3684TIP3   OH210928   0.583   2.591   4.263
 3684TIP3    H110929   0.658   2.640   4.295
 3684TIP3    H210930   0.575   2.516   4.322
 3685TIP3   OH210931   0.606   2.360   3.409
 3685TIP3    H110932   0.526   2.310   3.422
 3685TIP3    H210933   0.598   2.435   3.468
 3686TIP3   OH210934   9.810   3.470   3.097
 3686TIP3    H110935   9.715   3.473   3.090
 3686TIP3    H210936   9.836   3.560   3.117
 3687TIP3   OH210937   0.234   2.490   3.570
 3687TIP3    H110938   0.252   2.577   3.534
 3687TIP3    H210939   0.212   2.506   3.661
 3688TIP3   OH210940   0.418   2.817   4.320
 3688TIP3    H110941   0.448   2.861   4.400
 3688TIP3    H210942   0.472   2.738   4.315
 3689TIP3   OH210943   0.404   2.289   3.645
 3689TIP3    H110944   0.364   2.287   3.732
 3689TIP3    H210945   0.351   2.352   3.596
 3690TIP3   OH210946   9.540   3.517   3.104
 3690TIP3    H110947   9.505   3.570   3.032
 3690TIP3    H210948   9.531   3.573   3.181
 3691TIP3   OH210949   1.030   2.723   4.306
 3691TIP3    H110950   0.936   2.737   4.318
 3691TIP3    H210951   1.036   2.661   4.234
 3692TIP3   OH210952   0.698   2.930   3.693
 3692TIP3    H110953   0.620   2.877   3.707
 3692TIP3    H210954   0.764   2.892   3.751
 3693TIP3   OH210955   0.676   3.903   3.632
 3693TIP3    H110956   0.636   3.950   3.558
 3693TIP3    H210957   0.771   3.916   3.620
 3694TIP3   OH210958   1.668   4.529   1.332
 3694TIP3    H110959   1.620   4.515   1.250
 3694TIP3    H210960   1.742   4.469   1.328
 3695TIP3   OH210961   9.775   3.851   4.660
 3695TIP3    H110962   9.860   3.814   4.683
 3695TIP3    H210963   9.751   3.806   4.579
 3696TIP3   OH210964   0.565   3.797   4.423
 3696TIP3    H110965   0.568   3.724   4.484
 3696TIP3    H210966   0.640   3.852   4.446
 3697TIP3   OH210967   0.374   3.494   2.746
 3697TIP3    H110968   0.381   3.420   2.807
 3697TIP3    H210969   0.450   3.486   2.689
 3698TIP3   OH210970   9.346   3.305   4.851
 3698TIP3    H110971   9.428   3.279   4.809
 3698TIP3    H210972   9.313   3.376   4.797
 3699TIP3   OH210973   0.234   3.415   4.612
 3699TIP3    H110974   0.185   3.438   4.533
 3699TIP3    H210975   0.259   3.324   4.599
 3700TIP3   OH210976   0.666   3.466   4.201
 3700TIP3    H110977   0.747   3.495   4.158
 3700TIP3    H210978   0.609   3.543   4.198
 3701TIP3   OH210979   9.615   2.988   4.814
 3701TIP3    H110980   9.700   2.944   4.816
 3701TIP3    H210981   9.611   3.037   4.896
 3702TIP3   OH210982   0.112   2.948   4.458
 3702TIP3    H110983   0.029   2.994   4.453
 3702TIP3    H210984   0.158   2.972   4.377
 3703TIP3   OH210985   0.544   3.336   4.551
 3703TIP3    H110986   0.622   3.306   4.506
 3703TIP3    H210987   0.542   3.286   4.633
 3704TIP3   OH210988   0.693   2.985   2.739
 3704TIP3    H110989   0.712   2.957   2.650
 3704TIP3    H210990   0.661   3.075   2.731
 3705TIP3   OH210991   0.179   2.718   4.585
 3705TIP3    H110992   0.180   2.646   4.521
 3705TIP3    H210993   0.159   2.795   4.533
 3706TIP3   OH210994   0.167   2.532   4.378
 3706TIP3    H110995   0.188   2.575   4.296
 3706TIP3    H210996   0.078   2.500   4.367
 3707TIP3   OH210997   0.227   3.058   4.239
 3707TIP3    H110998   0.307   3.111   4.236
 3707TIP3    H210999   0.163   3.107   4.189
 3708TIP3   OH211000   0.764   3.034   4.645
 3708TIP3    H111001   0.816   2.954   4.652
 3708TIP3    H211002   0.829   3.104   4.640
 3709TIP3   OH211003   0.789   3.301   4.380
 3709TIP3    H111004   0.735   3.358   4.326
 3709TIP3    H211005   0.878   3.316   4.350
 3710TIP3   OH211006   0.045   2.830   4.797
 3710TIP3    H111007   0.000   2.753   4.832
 3710TIP3    H211008   0.091   2.798   4.719
 3711TIP3   OH211009   0.295   2.320   4.500
 3711TIP3    H111010   0.256   2.397   4.458
 3711TIP3    H211011   0.232   2.249   4.484
 3712TIP3   OH211012   0.421   2.782   4.703
 3712TIP3    H111013   0.409   2.776   4.798
 3712TIP3    H211014   0.339   2.750   4.667
 3713TIP3   OH211015   0.663   2.734   4.574
 3713TIP3    H111016   0.585   2.737   4.629
 3713TIP3    H211017   0.735   2.715   4.634
 3714TIP3   OH211018   0.896   2.707   4.726
 3714TIP3    H111019   0.909   2.612   4.733
 3714TIP3    H211020   0.889   2.737   4.817
 3715TIP3   OH211021   9.722   2.619   4.923
 3715TIP3    H111022   9.716   2.539   4.871
 3715TIP3    H211023   9.764   2.592   5.005
 3716TIP3   OH211024   0.353   2.295   4.766
 3716TIP3    H111025   0.421   2.228   4.760
 3716TIP3    H211026   0.325   2.309   4.675
 3717TIP3   OH211027   0.436   2.511   4.917
 3717TIP3    H111028   0.409   2.439   4.859
 3717TIP3    H211029   0.363   2.572   4.914
 3718TIP3   OH211030   9.485   3.723   2.928
 3718TIP3    H111031   9.565   3.776   2.932
 3718TIP3    H211032   9.422   3.771   2.981
 3719TIP3   OH211033   0.948   3.954   3.632
 3719TIP3    H111034   0.969   3.979   3.722
 3719TIP3    H211035   1.001   4.014   3.579
 3720TIP3   OH211036   0.969   3.985   3.913
 3720TIP3    H111037   0.918   3.904   3.909
 3720TIP3    H211038   1.038   3.967   3.976
 3721TIP3   OH211039   1.015   3.689   4.493
 3721TIP3    H111040   0.946   3.699   4.559
 3721TIP3    H211041   1.063   3.772   4.496
 3722TIP3   OH211042   0.855   3.204   3.086
 3722TIP3    H111043   0.911   3.275   3.056
 3722TIP3    H211044   0.901   3.166   3.160
 3723TIP3   OH211045   0.985   3.066   3.289
 3723TIP3    H111046   0.917   3.032   3.348
 3723TIP3    H211047   1.050   3.105   3.347
 3724TIP3   OH211048   1.016   3.467   3.726
 3724TIP3    H111049   1.071   3.400   3.686
 3724TIP3    H211050   1.022   3.541   3.665
 3725TIP3   OH211051   0.813   3.756   3.915
 3725TIP3    H111052   0.747   3.799   3.969
 3725TIP3    H211053   0.764   3.715   3.844
 3726TIP3   OH211054   0.884   2.971   2.940
 3726TIP3    H111055   0.818   2.972   2.871
 3726TIP3    H211056   0.868   3.051   2.990
 3727TIP3   OH211057   0.706   2.648   2.908
 3727TIP3    H111058   0.642   2.717   2.890
 3727TIP3    H211059   0.664   2.568   2.878
 3728TIP3   OH211060   0.779   2.937   3.428
 3728TIP3    H111061   0.781   2.843   3.409
 3728TIP3    H211062   0.755   2.942   3.521
 3729TIP3   OH211063   9.211   3.016   4.180
 3729TIP3    H111064   9.159   2.957   4.126
 3729TIP3    H211065   9.284   2.962   4.212
 3730TIP3   OH211066   1.050   3.344   4.292
 3730TIP3    H111067   1.112   3.274   4.274
 3730TIP3    H211068   1.078   3.416   4.236
 3731TIP3   OH211069   1.218   3.126   4.279
 3731TIP3    H111070   1.146   3.083   4.325
 3731TIP3    H211071   1.295   3.072   4.299
 3732TIP3   OH211072   0.782   2.670   3.325
 3732TIP3    H111073   0.815   2.581   3.336
 3732TIP3    H211074   0.823   2.701   3.245
 3733TIP3   OH211075   0.914   2.818   3.840
 3733TIP3    H111076   0.995   2.837   3.792
 3733TIP3    H211077   0.927   2.858   3.926
 3734TIP3   OH211078   0.987   2.963   4.069
 3734TIP3    H111079   0.915   2.990   4.126
 3734TIP3    H211080   1.019   3.045   4.030
 3735TIP3   OH211081   9.454   2.632   4.824
 3735TIP3    H111082   9.531   2.645   4.879
 3735TIP3    H211083   9.392   2.698   4.854
 3736TIP3   OH211084   1.451   2.560   4.604
 3736TIP3    H111085   1.516   2.503   4.563
 3736TIP3    H211086   1.413   2.610   4.532
 3737TIP3   OH211087   0.870   2.406   3.350
 3737TIP3    H111088   0.910   2.371   3.430
 3737TIP3    H211089   0.778   2.379   3.356
 3738TIP3   OH211090   9.153   2.659   4.200
 3738TIP3    H111091   9.208   2.699   4.133
 3738TIP3    H211092   9.174   2.708   4.280
 3739TIP3   OH211093   1.299   2.679   4.411
 3739TIP3    H111094   1.223   2.718   4.455
 3739TIP3    H211095   1.261   2.611   4.354
 3740TIP3   OH211096   1.202   2.294   2.929
 3740TIP3    H111097   1.137   2.234   2.965
 3740TIP3    H211098   1.175   2.381   2.960
 3741TIP3   OH211099   0.485   3.827   3.284
 3741TIP3    H111100   0.548   3.824   3.212
 3741TIP3    H211101   0.516   3.899   3.340
 3742TIP3   OH211102   9.410   2.192   4.649
 3742TIP3    H111103   9.403   2.246   4.728
 3742TIP3    H211104   9.379   2.249   4.578
 3743TIP3   OH211105   9.480   3.654   4.621
 3743TIP3    H111106   9.431   3.729   4.654
 3743TIP3    H211107   9.515   3.611   4.699
 3744TIP3   OH211108   9.668   3.644   4.176
 3744TIP3    H111109   9.606   3.715   4.156
 3744TIP3    H211110   9.746   3.666   4.126
 3745TIP3   OH211111   0.251   3.940   4.325
 3745TIP3    H111112   0.285   3.932   4.414
 3745TIP3    H211113   0.316   3.994   4.279
 3746TIP3   OH211114   0.442   4.098   4.207
 3746TIP3    H111115   0.515   4.046   4.172
 3746TIP3    H211116   0.485   4.162   4.265
 3747TIP3   OH211117   1.210   2.427   4.300
 3747TIP3    H111118   1.122   2.417   4.265
 3747TIP3    H211119   1.248   2.339   4.297
 3748TIP3   OH211120   9.514   3.861   4.124
 3748TIP3    H111121   9.435   3.837   4.172
 3748TIP3    H211122   9.484   3.883   4.036
 3749TIP3   OH211123   0.147   3.962   3.888
 3749TIP3    H111124   0.073   3.975   3.828
 3749TIP3    H211125   0.152   4.044   3.937
 3750TIP3   OH211126   0.404   3.883   3.917
 3750TIP3    H111127   0.313   3.912   3.912
 3750TIP3    H211128   0.455   3.956   3.883
 3751TIP3   OH211129   0.597   4.066   3.838
 3751TIP3    H111130   0.595   4.154   3.799
 3751TIP3    H211131   0.625   4.009   3.767
 3752TIP3   OH211132   9.200   3.695   4.005
 3752TIP3    H111133   9.237   3.684   4.093
 3752TIP3    H211134   9.270   3.737   3.955
 3753TIP3   OH211135   9.459   3.605   3.900
 3753TIP3    H111136   9.500   3.521   3.880
 3753TIP3    H211137   9.524   3.670   3.873
 3754TIP3   OH211138   9.716   3.688   3.812
 3754TIP3    H111139   9.754   3.615   3.763
 3754TIP3    H211140   9.772   3.696   3.890
 3755TIP3   OH211141   0.404   2.362   3.945
 3755TIP3    H111142   0.363   2.299   4.004
 3755TIP3    H211143   0.483   2.317   3.913
 3756TIP3   OH211144   0.904   2.247   3.814
 3756TIP3    H111145   0.936   2.303   3.743
 3756TIP3    H211146   0.811   2.267   3.821
 3757TIP3   OH211147   1.027   2.313   3.561
 3757TIP3    H111148   1.106   2.269   3.530
 3757TIP3    H211149   1.053   2.404   3.573
 3758TIP3   OH211150   0.626   2.258   3.817
 3758TIP3    H111151   0.573   2.254   3.737
 3758TIP3    H211152   0.621   2.170   3.853
 3759TIP3   OH211153   9.765   3.735   2.930
 3759TIP3    H111154   9.854   3.733   2.895
 3759TIP3    H211155   9.719   3.666   2.882
 3760TIP3   OH211156   0.645   3.812   3.056
 3760TIP3    H111157   0.641   3.717   3.041
 3760TIP3    H211158   0.611   3.850   2.976
 3761TIP3   OH211159   9.712   2.371   4.806
 3761TIP3    H111160   9.675   2.295   4.851
 3761TIP3    H211161   9.805   2.370   4.828
 3762TIP3   OH211162   0.147   2.347   4.946
 3762TIP3    H111163   0.223   2.323   4.893
 3762TIP3    H211164   0.136   2.274   5.007
 3763TIP3   OH211165   0.957   2.436   4.727
 3763TIP3    H111166   0.974   2.406   4.817
 3763TIP3    H211167   1.042   2.430   4.684
 3764TIP3   OH211168   0.875   3.962   4.237
 3764TIP3    H111169   0.798   3.937   4.186
 3764TIP3    H211170   0.868   4.057   4.245
 3765TIP3   OH211171   2.151   3.348   2.969
 3765TIP3    H111172   2.121   3.437   2.950
 3765TIP3    H211173   2.076   3.292   2.950
 3766TIP3   OH211174   2.149   3.347   3.399
 3766TIP3    H111175   2.199   3.333   3.480
 3766TIP3    H211176   2.102   3.265   3.385
 3767TIP3   OH211177   1.445   3.202   3.744
 3767TIP3    H111178   1.485   3.153   3.815
 3767TIP3    H211179   1.518   3.231   3.690
 3768TIP3   OH211180   2.420   3.653   3.066
 3768TIP3    H111181   2.402   3.591   3.136
 3768TIP3    H211182   2.438   3.735   3.111
 3769TIP3   OH211183   1.439   3.624   3.414
 3769TIP3    H111184   1.420   3.531   3.425
 3769TIP3    H211185   1.535   3.629   3.410
 3770TIP3   OH211186   1.131   2.838   3.209
 3770TIP3    H111187   1.093   2.922   3.235
 3770TIP3    H211188   1.058   2.789   3.172
 3771TIP3   OH211189   1.205   3.155   3.436
 3771TIP3    H111190   1.255   3.078   3.463
 3771TIP3    H211191   1.271   3.222   3.417
 3772TIP3   OH211192   2.080   4.074   3.081
 3772TIP3    H111193   2.105   4.010   3.014
 3772TIP3    H211194   2.086   4.026   3.164
 3773TIP3   OH211195   1.960   3.569   3.402
 3773TIP3    H111196   2.007   3.490   3.374
 3773TIP3    H211197   2.028   3.626   3.436
 3774TIP3   OH211198   2.991   2.883   3.418
 3774TIP3    H111199   3.006   2.967   3.461
 3774TIP3    H211200   3.031   2.893   3.331
 3775TIP3   OH211201   2.360   3.052   3.451
 3775TIP3    H111202   2.390   2.965   3.477
 3775TIP3    H211203   2.324   3.040   3.363
 3776TIP3   OH211204   1.716   2.713   3.394
 3776TIP3    H111205   1.693   2.787   3.338
 3776TIP3    H211206   1.659   2.642   3.364
 3777TIP3   OH211207   1.341   2.932   3.526
 3777TIP3    H111208   1.424   2.916   3.571
 3777TIP3    H211209   1.347   2.880   3.445
 3778TIP3   OH211210   1.761   3.130   3.341
 3778TIP3    H111211   1.855   3.116   3.348
 3778TIP3    H211212   1.727   3.048   3.306
 3779TIP3   OH211213   3.042   3.105   3.576
 3779TIP3    H111214   2.954   3.142   3.575
 3779TIP3    H211215   3.083   3.142   3.655
 3780TIP3   OH211216   1.698   2.718   3.845
 3780TIP3    H111217   1.647   2.755   3.773
 3780TIP3    H211218   1.644   2.733   3.923
 3781TIP3   OH211219   2.013   3.558   2.857
 3781TIP3    H111220   1.988   3.541   2.767
 3781TIP3    H211221   1.974   3.643   2.878
 3782TIP3   OH211222   1.787   3.493   3.605
 3782TIP3    H111223   1.735   3.565   3.640
 3782TIP3    H211224   1.838   3.532   3.534
 3783TIP3   OH211225   2.527   2.870   3.213
 3783TIP3    H111226   2.494   2.831   3.294
 3783TIP3    H211227   2.594   2.932   3.242
 3784TIP3   OH211228   1.589   2.828   3.615
 3784TIP3    H111229   1.644   2.903   3.638
 3784TIP3    H211230   1.637   2.785   3.544
 3785TIP3   OH211231   1.635   3.697   3.714
 3785TIP3    H111232   1.623   3.787   3.686
 3785TIP3    H211233   1.558   3.678   3.768
 3786TIP3   OH211234   1.016   3.402   2.977
 3786TIP3    H111235   0.985   3.421   2.888
 3786TIP3    H211236   1.038   3.487   3.014
 3787TIP3   OH211237   2.446   3.899   3.206
 3787TIP3    H111238   2.359   3.892   3.245
 3787TIP3    H211239   2.444   3.984   3.161
 3788TIP3   OH211240   2.799   2.765   3.586
 3788TIP3    H111241   2.715   2.801   3.557
 3788TIP3    H211242   2.862   2.794   3.520
 3789TIP3   OH211243   2.038   2.406   3.583
 3789TIP3    H111244   2.035   2.315   3.613
 3789TIP3    H211245   1.962   2.447   3.624
 3790TIP3   OH211246   2.164   3.922   2.862
 3790TIP3    H111247   2.216   3.843   2.849
 3790TIP3    H211248   2.224   3.994   2.838
 3791TIP3   OH211249   2.320   3.705   2.812
 3791TIP3    H111250   2.321   3.624   2.760
 3791TIP3    H211251   2.357   3.680   2.896
 3792TIP3   OH211252   2.682   3.795   3.550
 3792TIP3    H111253   2.668   3.719   3.494
 3792TIP3    H211254   2.667   3.870   3.492
 3793TIP3   OH211255   1.964   3.186   2.839
 3793TIP3    H111256   1.885   3.235   2.819
 3793TIP3    H211257   2.013   3.185   2.757
 3794TIP3   OH211258   1.948   2.995   2.529
 3794TIP3    H111259   2.012   3.044   2.580
 3794TIP3    H211260   1.999   2.927   2.486
 3795TIP3   OH211261   2.865   3.444   3.422
 3795TIP3    H111262   2.782   3.491   3.423
 3795TIP3    H211263   2.902   3.462   3.336
 3796TIP3   OH211264   2.344   3.267   2.795
 3796TIP3    H111265   2.287   3.300   2.864
 3796TIP3    H211266   2.428   3.252   2.837
 3797TIP3   OH211267   2.562   3.306   3.736
 3797TIP3    H111268   2.564   3.391   3.779
 3797TIP3    H211269   2.480   3.305   3.688
 3798TIP3   OH211270   1.563   3.261   3.188
 3798TIP3    H111271   1.528   3.198   3.125
 3798TIP3    H211272   1.637   3.216   3.228
 3799TIP3   OH211273   1.705   3.679   3.330
 3799TIP3    H111274   1.684   3.669   3.237
 3799TIP3    H211275   1.794   3.644   3.338
 3800TIP3   OH211276   1.655   3.257   3.563
 3800TIP3    H111277   1.695   3.221   3.484
 3800TIP3    H211278   1.702   3.339   3.579
 3801TIP3   OH211279   2.209   3.892   3.341
 3801TIP3    H111280   2.197   3.975   3.388
 3801TIP3    H211281   2.194   3.824   3.406
 3802TIP3   OH211282   1.835   3.791   3.885
 3802TIP3    H111283   1.773   3.846   3.933
 3802TIP3    H211284   1.780   3.739   3.827
 3803TIP3   OH211285   2.160   3.132   2.639
 3803TIP3    H111286   2.226   3.181   2.689
 3803TIP3    H211287   2.195   3.127   2.551
 3804TIP3   OH211288   1.596   3.344   4.022
 3804TIP3    H111289   1.600   3.437   4.043
 3804TIP3    H211290   1.503   3.324   4.015
 3805TIP3   OH211291   1.909   3.816   2.875
 3805TIP3    H111292   1.996   3.857   2.877
 3805TIP3    H211293   1.855   3.879   2.828
 3806TIP3   OH211294   1.623   3.947   3.972
 3806TIP3    H111295   1.601   3.961   3.880
 3806TIP3    H211296   1.539   3.938   4.016
 3807TIP3   OH211297   2.681   2.361   2.684
 3807TIP3    H111298   2.586   2.361   2.693
 3807TIP3    H211299   2.701   2.439   2.632
 3808TIP3   OH211300   1.434   3.099   2.995
 3808TIP3    H111301   1.359   3.150   2.966
 3808TIP3    H211302   1.398   3.012   3.016
 3809TIP3   OH211303   2.494   3.735   2.234
 3809TIP3    H111304   2.491   3.827   2.208
 3809TIP3    H211305   2.585   3.709   2.219
 3810TIP3   OH211306   1.220   3.508   3.920
 3810TIP3    H111307   1.150   3.487   3.858
 3810TIP3    H211308   1.255   3.422   3.946
 3811TIP3   OH211309   1.064   3.703   3.576
 3811TIP3    H111310   1.155   3.727   3.595
 3811TIP3    H211311   1.012   3.779   3.604
 3812TIP3   OH211312   2.914   4.142   3.623
 3812TIP3    H111313   2.918   4.048   3.640
 3812TIP3    H211314   2.835   4.171   3.669
 3813TIP3   OH211315   2.021   3.939   3.747
 3813TIP3    H111316   2.012   4.029   3.779
 3813TIP3    H211317   1.955   3.890   3.796
 3814TIP3   OH211318   1.803   4.032   2.707
 3814TIP3    H111319   1.761   4.014   2.623
 3814TIP3    H211320   1.765   4.115   2.735
 3815TIP3   OH211321   1.235   3.891   3.080
 3815TIP3    H111322   1.281   3.883   3.163
 3815TIP3    H211323   1.188   3.809   3.070
 3816TIP3   OH211324   2.011   3.961   2.342
 3816TIP3    H111325   2.062   3.888   2.307
 3816TIP3    H211326   2.046   3.975   2.429
 3817TIP3   OH211327   2.059   4.014   2.608
 3817TIP3    H111328   1.973   4.017   2.648
 3817TIP3    H211329   2.116   3.979   2.676
 3818TIP3   OH211330   2.808   3.262   3.887
 3818TIP3    H111331   2.722   3.276   3.849
 3818TIP3    H211332   2.825   3.168   3.877
 3819TIP3   OH211333   1.420   3.695   3.887
 3819TIP3    H111334   1.471   3.682   3.967
 3819TIP3    H211335   1.347   3.634   3.894
 3820TIP3   OH211336   1.803   2.500   3.707
 3820TIP3    H111337   1.719   2.467   3.675
 3820TIP3    H211338   1.781   2.581   3.752
 3821TIP3   OH211339   2.341   2.626   3.908
 3821TIP3    H111340   2.410   2.605   3.970
 3821TIP3    H211341   2.260   2.613   3.957
 3822TIP3   OH211342   2.549   3.035   3.809
 3822TIP3    H111343   2.513   3.028   3.898
 3822TIP3    H211344   2.542   3.128   3.788
 3823TIP3   OH211345   2.250   3.097   2.379
 3823TIP3    H111346   2.208   3.119   2.295
 3823TIP3    H211347   2.337   3.137   2.374
 3824TIP3   OH211348   2.038   2.497   2.702
 3824TIP3    H111349   1.996   2.523   2.783
 3824TIP3    H211350   1.976   2.436   2.661
 3825TIP3   OH211351   1.742   3.038   3.710
 3825TIP3    H111352   1.699   3.044   3.795
 3825TIP3    H211353   1.719   3.119   3.665
 3826TIP3   OH211354   1.625   2.914   3.232
 3826TIP3    H111355   1.535   2.891   3.257
 3826TIP3    H211356   1.635   2.879   3.144
 3827TIP3   OH211357   2.124   2.996   2.956
 3827TIP3    H111358   2.059   3.064   2.937
 3827TIP3    H211359   2.182   2.996   2.880
 3828TIP3   OH211360   2.286   3.257   4.038
 3828TIP3    H111361   2.260   3.190   4.101
 3828TIP3    H211362   2.379   3.273   4.057
 3829TIP3   OH211363   2.274   3.006   3.197
 3829TIP3    H111364   2.219   3.010   3.118
 3829TIP3    H211365   2.345   2.946   3.173
 3830TIP3   OH211366   1.584   3.048   3.935
 3830TIP3    H111367   1.602   3.110   4.005
 3830TIP3    H211368   1.564   2.966   3.980
 3831TIP3   OH211369   1.634   2.528   2.673
 3831TIP3    H111370   1.619   2.524   2.767
 3831TIP3    H211371   1.558   2.574   2.637
 3832TIP3   OH211372   1.148   2.554   3.543
 3832TIP3    H111373   1.224   2.596   3.583
 3832TIP3    H211374   1.170   2.547   3.450
 3833TIP3   OH211375   1.103   2.541   3.008
 3833TIP3    H111376   1.130   2.585   2.927
 3833TIP3    H211377   1.033   2.597   3.043
 3834TIP3   OH211378   2.308   3.257   3.619
 3834TIP3    H111379   2.333   3.189   3.557
 3834TIP3    H211380   2.264   3.210   3.690
 3835TIP3   OH211381   1.979   2.712   3.286
 3835TIP3    H111382   1.897   2.712   3.337
 3835TIP3    H211383   2.048   2.703   3.351
 3836TIP3   OH211384   1.387   2.790   3.294
 3836TIP3    H111385   1.299   2.794   3.258
 3836TIP3    H211386   1.413   2.698   3.283
 3837TIP3   OH211387   1.648   2.787   2.990
 3837TIP3    H111388   1.740   2.807   2.973
 3837TIP3    H211389   1.604   2.805   2.908
 3838TIP3   OH211390   2.420   2.774   3.450
 3838TIP3    H111391   2.425   2.781   3.545
 3838TIP3    H211392   2.345   2.717   3.434
 3839TIP3   OH211393   1.517   2.811   2.752
 3839TIP3    H111394   1.463   2.763   2.689
 3839TIP3    H211395   1.576   2.864   2.698
 3840TIP3   OH211396   2.630   4.495   3.713
 3840TIP3    H111397   2.628   4.509   3.618
 3840TIP3    H211398   2.710   4.539   3.742
 3841TIP3   OH211399   1.569   3.608   4.120
 3841TIP3    H111400   1.650   3.630   4.166
 3841TIP3    H211401   1.500   3.616   4.186
 3842TIP3   OH211402   2.033   3.079   3.392
 3842TIP3    H111403   2.104   3.036   3.346
 3842TIP3    H211404   2.034   3.040   3.480
 3843TIP3   OH211405   1.526   2.541   3.275
 3843TIP3    H111406   1.497   2.466   3.327
 3843TIP3    H211407   1.546   2.504   3.189
 3844TIP3   OH211408   2.012   2.985   3.659
 3844TIP3    H111409   1.924   3.017   3.680
 3844TIP3    H211410   2.070   3.036   3.714
 3845TIP3   OH211411   1.736   3.327   2.770
 3845TIP3    H111412   1.660   3.275   2.745
 3845TIP3    H211413   1.709   3.373   2.850
 3846TIP3   OH211414   2.632   3.587   3.375
 3846TIP3    H111415   2.669   3.636   3.302
 3846TIP3    H211416   2.549   3.553   3.342
 3847TIP3   OH211417   2.277   2.665   2.704
 3847TIP3    H111418   2.189   2.627   2.712
 3847TIP3    H211419   2.283   2.692   2.612
 3848TIP3   OH211420   2.150   3.663   3.800
 3848TIP3    H111421   2.204   3.649   3.878
 3848TIP3    H211422   2.112   3.750   3.812
 3849TIP3   OH211423   1.424   3.334   3.416
 3849TIP3    H111424   1.464   3.319   3.330
 3849TIP3    H211425   1.492   3.308   3.478
 3850TIP3   OH211426   1.889   3.487   2.610
 3850TIP3    H111427   1.842   3.570   2.610
 3850TIP3    H211428   1.835   3.429   2.665
 3851TIP3   OH211429   1.324   3.286   4.059
 3851TIP3    H111430   1.342   3.276   4.152
 3851TIP3    H211431   1.249   3.227   4.043
 3852TIP3   OH211432   2.055   3.415   4.068
 3852TIP3    H111433   1.987   3.353   4.042
 3852TIP3    H211434   2.137   3.373   4.043
 3853TIP3   OH211435   2.291   3.959   3.674
 3853TIP3    H111436   2.197   3.946   3.678
 3853TIP3    H211437   2.314   3.993   3.761
 3854TIP3   OH211438   2.708   3.017   2.545
 3854TIP3    H111439   2.635   2.974   2.501
 3854TIP3    H211440   2.708   3.106   2.510
 3855TIP3   OH211441   2.928   3.859   3.646
 3855TIP3    H111442   2.833   3.849   3.635
 3855TIP3    H211443   2.965   3.837   3.561
 3856TIP3   OH211444   2.419   3.819   2.492
 3856TIP3    H111445   2.394   3.749   2.551
 3856TIP3    H211446   2.438   3.775   2.409
 3857TIP3   OH211447   2.394   3.465   3.279
 3857TIP3    H111448   2.305   3.444   3.307
 3857TIP3    H211449   2.429   3.383   3.246
 3858TIP3   OH211450   1.559   3.691   3.089
 3858TIP3    H111451   1.555   3.765   3.029
 3858TIP3    H211452   1.474   3.690   3.133
 3859TIP3   OH211453   1.136   2.956   2.824
 3859TIP3    H111454   1.174   3.042   2.840
 3859TIP3    H211455   1.053   2.957   2.872
 3860TIP3   OH211456   1.624   3.445   2.985
 3860TIP3    H111457   1.614   3.534   3.018
 3860TIP3    H211458   1.604   3.389   3.060
 3861TIP3   OH211459   1.841   4.008   3.540
 3861TIP3    H111460   1.876   4.083   3.490
 3861TIP3    H211461   1.915   3.977   3.592
 3862TIP3   OH211462   1.471   3.909   2.937
 3862TIP3    H111463   1.384   3.917   2.975
 3862TIP3    H211464   1.509   3.997   2.943
 3863TIP3   OH211465   2.188   3.676   3.525
 3863TIP3    H111466   2.172   3.670   3.619
 3863TIP3    H211467   2.275   3.638   3.513
 3864TIP3   OH211468   2.193   3.550   2.403
 3864TIP3    H111469   2.234   3.530   2.487
 3864TIP3    H211470   2.107   3.507   2.407
 3865TIP3   OH211471   2.443   4.166   3.555
 3865TIP3    H111472   2.375   4.102   3.576
 3865TIP3    H211473   2.406   4.219   3.484
 3866TIP3   OH211474   2.493   4.005   2.192
 3866TIP3    H111475   2.553   4.071   2.159
 3866TIP3    H211476   2.420   4.055   2.228
 3867TIP3   OH211477   1.527   2.794   4.052
 3867TIP3    H111478   1.432   2.804   4.057
 3867TIP3    H211479   1.551   2.750   4.133
 3868TIP3   OH211480   2.358   3.488   2.624
 3868TIP3    H111481   2.345   3.410   2.678
 3868TIP3    H211482   2.452   3.488   2.604
 3869TIP3   OH211483   1.267   3.911   3.701
 3869TIP3    H111484   1.320   3.854   3.757
 3869TIP3    H211485   1.280   3.999   3.736
 3870TIP3   OH211486   1.537   3.518   2.415
 3870TIP3    H111487   1.547   3.427   2.388
 3870TIP3    H211488   1.524   3.514   2.509
 3871TIP3   OH211489   1.477   3.532   2.686
 3871TIP3    H111490   1.537   3.510   2.758
 3871TIP3    H211491   1.475   3.628   2.685
 3872TIP3   OH211492   1.209   3.220   2.887
 3872TIP3    H111493   1.147   3.271   2.938
 3872TIP3    H211494   1.231   3.276   2.812
 3873TIP3   OH211495   2.419   2.809   3.716
 3873TIP3    H111496   2.464   2.882   3.758
 3873TIP3    H211497   2.392   2.753   3.788
 3874TIP3   OH211498   1.745   3.715   2.611
 3874TIP3    H111499   1.660   3.740   2.647
 3874TIP3    H211500   1.773   3.792   2.562
 3875TIP3   OH211501   1.931   2.803   3.023
 3875TIP3    H111502   1.996   2.870   2.999
 3875TIP3    H211503   1.945   2.789   3.117
 3876TIP3   OH211504   2.212   3.096   3.825
 3876TIP3    H111505   2.228   3.157   3.896
 3876TIP3    H211506   2.259   3.016   3.850
 3877TIP3   OH211507   2.082   2.496   3.147
 3877TIP3    H111508   2.047   2.575   3.188
 3877TIP3    H211509   2.176   2.499   3.164
 3878TIP3   OH211510   1.495   3.804   2.685
 3878TIP3    H111511   1.477   3.876   2.624
 3878TIP3    H211512   1.485   3.844   2.772
 3879TIP3   OH211513   1.619   2.513   2.952
 3879TIP3    H111514   1.609   2.605   2.975
 3879TIP3    H211515   1.713   2.499   2.950
 3880TIP3   OH211516   2.818   2.996   3.792
 3880TIP3    H111517   2.723   2.996   3.801
 3880TIP3    H211518   2.835   2.940   3.716
 3881TIP3   OH211519   2.487   3.211   3.202
 3881TIP3    H111520   2.409   3.157   3.214
 3881TIP3    H211521   2.555   3.168   3.254
 3882TIP3   OH211522   1.235   3.396   2.671
 3882TIP3    H111523   1.306   3.460   2.682
 3882TIP3    H211524   1.268   3.336   2.604
 3883TIP3   OH211525   1.145   2.670   2.766
 3883TIP3    H111526   1.182   2.754   2.793
 3883TIP3    H211527   1.070   2.693   2.712
 3884TIP3   OH211528   2.471   4.165   3.124
 3884TIP3    H111529   2.429   4.219   3.057
 3884TIP3    H211530   2.565   4.178   3.111
 3885TIP3   OH211531   1.543   2.416   3.661
 3885TIP3    H111532   1.513   2.385   3.575
 3885TIP3    H211533   1.534   2.340   3.718
 3886TIP3   OH211534   1.059   3.668   3.061
 3886TIP3    H111535   1.023   3.707   3.140
 3886TIP3    H211536   1.013   3.712   2.989
 3887TIP3   OH211537   1.281   4.209   4.128
 3887TIP3    H111538   1.359   4.221   4.182
 3887TIP3    H211539   1.280   4.115   4.108
 3888TIP3   OH211540   1.733   4.111   4.167
 3888TIP3    H111541   1.820   4.078   4.187
 3888TIP3    H211542   1.703   4.056   4.095
 3889TIP3   OH211543   1.696   3.712   2.299
 3889TIP3    H111544   1.650   3.643   2.347
 3889TIP3    H211545   1.770   3.667   2.259
 3890TIP3   OH211546   2.349   4.050   3.926
 3890TIP3    H111547   2.363   3.983   3.992
 3890TIP3    H211548   2.421   4.112   3.938
 3891TIP3   OH211549   2.143   3.752   2.221
 3891TIP3    H111550   2.177   3.690   2.286
 3891TIP3    H211551   2.209   3.754   2.153
 3892TIP3   OH211552   1.366   3.605   4.311
 3892TIP3    H111553   1.387   3.513   4.325
 3892TIP3    H211554   1.278   3.604   4.274
 3893TIP3   OH211555   1.360   3.206   2.518
 3893TIP3    H111556   1.412   3.184   2.596
 3893TIP3    H211557   1.426   3.221   2.450
 3894TIP3   OH211558   1.992   3.694   4.093
 3894TIP3    H111559   1.947   3.716   4.011
 3894TIP3    H211560   2.027   3.606   4.079
 3895TIP3   OH211561   1.939   3.426   2.350
 3895TIP3    H111562   1.912   3.441   2.440
 3895TIP3    H211563   1.915   3.336   2.331
 3896TIP3   OH211564   2.457   3.731   3.697
 3896TIP3    H111565   2.536   3.761   3.652
 3896TIP3    H211566   2.395   3.804   3.687
 3897TIP3   OH211567   1.479   3.345   4.313
 3897TIP3    H111568   1.560   3.337   4.262
 3897TIP3    H211569   1.508   3.366   4.402
 3898TIP3   OH211570   1.526   3.151   2.732
 3898TIP3    H111571   1.507   3.123   2.822
 3898TIP3    H211572   1.581   3.081   2.696
 3899TIP3   OH211573   1.851   3.233   3.971
 3899TIP3    H111574   1.767   3.277   3.983
 3899TIP3    H211575   1.883   3.265   3.887
 3900TIP3   OH211576   1.682   2.966   2.600
 3900TIP3    H111577   1.648   2.958   2.511
 3900TIP3    H211578   1.776   2.977   2.589
 3901TIP3   OH211579   2.335   3.610   4.050
 3901TIP3    H111580   2.411   3.579   4.001
 3901TIP3    H211581   2.334   3.557   4.130
 3902TIP3   OH211582   2.456   3.248   2.272
 3902TIP3    H111583   2.450   3.206   2.186
 3902TIP3    H211584   2.430   3.339   2.256
 3903TIP3   OH211585   1.948   3.001   4.084
 3903TIP3    H111586   1.953   2.932   4.019
 3903TIP3    H211587   1.917   3.078   4.036
 3904TIP3   OH211588   1.957   2.805   3.879
 3904TIP3    H111589   1.983   2.846   3.796
 3904TIP3    H211590   1.866   2.779   3.865
 3905TIP3   OH211591   1.965   3.339   3.748
 3905TIP3    H111592   2.048   3.388   3.748
 3905TIP3    H211593   1.905   3.394   3.697
 3906TIP3   OH211594   2.555   3.290   4.134
 3906TIP3    H111595   2.609   3.212   4.149
 3906TIP3    H211596   2.618   3.362   4.131
 3907TIP3   OH211597   2.587   3.556   3.861
 3907TIP3    H111598   2.532   3.617   3.811
 3907TIP3    H211599   2.676   3.574   3.831
 3908TIP3   OH211600   1.828   3.080   4.324
 3908TIP3    H111601   1.760   3.016   4.345
 3908TIP3    H211602   1.859   3.054   4.237
 3909TIP3   OH211603   2.075   2.574   3.986
 3909TIP3    H111604   2.035   2.654   3.952
 3909TIP3    H211605   2.008   2.507   3.974
 3910TIP3   OH211606   2.204   3.043   4.190
 3910TIP3    H111607   2.200   3.031   4.285
 3910TIP3    H211608   2.116   3.021   4.159
 3911TIP3   OH211609   2.441   2.987   4.051
 3911TIP3    H111610   2.365   2.994   4.110
 3911TIP3    H211611   2.515   2.974   4.110
 3912TIP3   OH211612   2.679   2.968   4.203
 3912TIP3    H111613   2.695   2.874   4.212
 3912TIP3    H211614   2.675   3.000   4.293
 3913TIP3   OH211615   1.662   2.862   4.392
 3913TIP3    H111616   1.669   2.772   4.359
 3913TIP3    H211617   1.701   2.858   4.480
 3914TIP3   OH211618   2.141   2.546   4.251
 3914TIP3    H111619   2.210   2.480   4.243
 3914TIP3    H211620   2.111   2.560   4.161
 3915TIP3   OH211621   2.239   2.760   4.396
 3915TIP3    H111622   2.207   2.688   4.341
 3915TIP3    H211623   2.166   2.821   4.399
 3916TIP3   OH211624   1.497   4.014   2.504
 3916TIP3    H111625   1.587   3.995   2.477
 3916TIP3    H211626   1.459   4.062   2.430
 3917TIP3   OH211627   0.962   3.400   2.693
 3917TIP3    H111628   1.057   3.410   2.687
 3917TIP3    H211629   0.945   3.315   2.654
 3918TIP3   OH211630   0.860   3.968   3.139
 3918TIP3    H111631   0.793   3.913   3.099
 3918TIP3    H211632   0.906   3.910   3.199
 3919TIP3   OH211633   1.009   3.806   3.309
 3919TIP3    H111634   1.004   3.739   3.377
 3919TIP3    H211635   1.061   3.876   3.347
 3920TIP3   OH211636   2.743   4.214   3.119
 3920TIP3    H111637   2.763   4.241   3.208
 3920TIP3    H211638   2.798   4.270   3.064
 3921TIP3   OH211639   2.764   4.246   3.399
 3921TIP3    H111640   2.714   4.164   3.393
 3921TIP3    H211641   2.832   4.228   3.464
 3922TIP3   OH211642   2.812   3.951   3.965
 3922TIP3    H111643   2.740   3.959   4.028
 3922TIP3    H211644   2.861   4.033   3.974
 3923TIP3   OH211645   2.635   3.469   2.591
 3923TIP3    H111646   2.692   3.539   2.559
 3923TIP3    H211647   2.685   3.428   2.661
 3924TIP3   OH211648   2.779   3.328   2.782
 3924TIP3    H111649   2.710   3.303   2.844
 3924TIP3    H211650   2.847   3.368   2.836
 3925TIP3   OH211651   2.812   3.725   3.215
 3925TIP3    H111652   2.865   3.657   3.172
 3925TIP3    H211653   2.816   3.799   3.154
 3926TIP3   OH211654   2.615   4.013   3.397
 3926TIP3    H111655   2.548   4.056   3.450
 3926TIP3    H211656   2.566   3.971   3.326
 3927TIP3   OH211657   2.683   3.259   2.420
 3927TIP3    H111658   2.605   3.251   2.365
 3927TIP3    H211659   2.665   3.334   2.477
 3928TIP3   OH211660   2.513   2.895   2.403
 3928TIP3    H111661   2.472   2.902   2.317
 3928TIP3    H211662   2.492   2.807   2.433
 3929TIP3   OH211663   2.578   3.212   2.942
 3929TIP3    H111664   2.621   3.127   2.950
 3929TIP3    H211665   2.546   3.231   3.030
 3930TIP3   OH211666   1.181   3.245   3.695
 3930TIP3    H111667   1.172   3.214   3.605
 3930TIP3    H211668   1.275   3.239   3.713
 3931TIP3   OH211669   2.847   3.603   3.774
 3931TIP3    H111670   2.911   3.534   3.758
 3931TIP3    H211671   2.877   3.676   3.720
 3932TIP3   OH211672   3.016   3.386   3.758
 3932TIP3    H111673   2.944   3.345   3.806
 3932TIP3    H211674   3.093   3.334   3.780
 3933TIP3   OH211675   2.458   2.634   2.470
 3933TIP3    H111676   2.550   2.606   2.473
 3933TIP3    H211677   2.420   2.584   2.398
 3934TIP3   OH211678   2.701   3.067   3.318
 3934TIP3    H111679   2.782   3.086   3.271
 3934TIP3    H211680   2.714   3.104   3.406
 3935TIP3   OH211681   2.776   3.213   3.547
 3935TIP3    H111682   2.710   3.242   3.610
 3935TIP3    H211683   2.809   3.295   3.509
 3936TIP3   OH211684   1.400   2.921   4.324
 3936TIP3    H111685   1.493   2.920   4.347
 3936TIP3    H211686   1.365   2.841   4.364
 3937TIP3   OH211687   3.233   2.809   4.081
 3937TIP3    H111688   3.306   2.757   4.048
 3937TIP3    H211689   3.208   2.864   4.006
 3938TIP3   OH211690   2.580   2.661   2.907
 3938TIP3    H111691   2.577   2.731   2.972
 3938TIP3    H211692   2.663   2.616   2.923
 3939TIP3   OH211693   1.380   2.641   3.669
 3939TIP3    H111694   1.434   2.563   3.679
 3939TIP3    H211695   1.442   2.712   3.655
 3940TIP3   OH211696   1.159   2.899   3.741
 3940TIP3    H111697   1.211   2.895   3.661
 3940TIP3    H211698   1.188   2.979   3.784
 3941TIP3   OH211699   3.091   2.952   3.897
 3941TIP3    H111700   3.027   2.989   3.958
 3941TIP3    H211701   3.042   2.886   3.847
 3942TIP3   OH211702   2.722   2.569   2.508
 3942TIP3    H111703   2.771   2.506   2.456
 3942TIP3    H211704   2.778   2.647   2.511
 3943TIP3   OH211705   1.139   2.457   3.275
 3943TIP3    H111706   1.047   2.438   3.292
 3943TIP3    H211707   1.141   2.485   3.184
 3944TIP3   OH211708   2.303   4.132   2.765
 3944TIP3    H111709   2.355   4.122   2.685
 3944TIP3    H211710   2.345   4.204   2.812
 3945TIP3   OH211711   1.364   2.452   4.059
 3945TIP3    H111712   1.319   2.453   4.143
 3945TIP3    H211713   1.311   2.509   4.003
 3946TIP3   OH211714   1.390   3.935   4.131
 3946TIP3    H111715   1.299   3.905   4.129
 3946TIP3    H211716   1.416   3.924   4.222
 3947TIP3   OH211717   1.613   3.973   3.689
 3947TIP3    H111718   1.562   4.048   3.658
 3947TIP3    H211719   1.697   3.981   3.645
 3948TIP3   OH211720   2.006   4.203   3.832
 3948TIP3    H111721   2.042   4.192   3.919
 3948TIP3    H211722   2.070   4.258   3.786
 3949TIP3   OH211723   2.199   4.357   3.706
 3949TIP3    H111724   2.262   4.302   3.659
 3949TIP3    H211725   2.253   4.416   3.758
 3950TIP3   OH211726   2.999   2.695   3.787
 3950TIP3    H111727   2.920   2.697   3.733
 3950TIP3    H211728   3.031   2.605   3.779
 3951TIP3   OH211729   1.274   4.202   3.741
 3951TIP3    H111730   1.183   4.221   3.717
 3951TIP3    H211731   1.296   4.270   3.805
 3952TIP3   OH211732   1.503   4.204   3.587
 3952TIP3    H111733   1.420   4.207   3.635
 3952TIP3    H211734   1.479   4.228   3.497
 3953TIP3   OH211735   1.913   4.223   3.380
 3953TIP3    H111736   1.840   4.234   3.319
 3953TIP3    H211737   1.924   4.309   3.421
 3954TIP3   OH211738   2.176   4.154   3.423
 3954TIP3    H111739   2.085   4.176   3.405
 3954TIP3    H211740   2.227   4.222   3.379
 3955TIP3   OH211741   2.378   4.326   3.329
 3955TIP3    H111742   2.379   4.413   3.290
 3955TIP3    H211743   2.408   4.268   3.259
 3956TIP3   OH211744   1.182   3.987   3.447
 3956TIP3    H111745   1.206   3.967   3.537
 3956TIP3    H211746   1.254   3.954   3.394
 3957TIP3   OH211747   1.386   3.870   3.310
 3957TIP3    H111748   1.397   3.785   3.353
 3957TIP3    H211749   1.472   3.912   3.317
 3958TIP3   OH211750   1.652   3.956   3.340
 3958TIP3    H111751   1.674   3.864   3.325
 3958TIP3    H211752   1.708   3.982   3.414
 3959TIP3   OH211753   2.210   2.589   3.409
 3959TIP3    H111754   2.171   2.527   3.471
 3959TIP3    H211755   2.277   2.538   3.363
 3960TIP3   OH211756   2.728   2.536   3.290
 3960TIP3    H111757   2.771   2.581   3.217
 3960TIP3    H211758   2.656   2.593   3.315
 3961TIP3   OH211759   2.830   2.615   3.042
 3961TIP3    H111760   2.892   2.544   3.027
 3961TIP3    H211761   2.880   2.695   3.022
 3962TIP3   OH211762   1.455   2.314   3.419
 3962TIP3    H111763   1.367   2.278   3.426
 3962TIP3    H211764   1.512   2.237   3.419
 3963TIP3   OH211765   1.932   2.341   3.329
 3963TIP3    H111766   1.976   2.400   3.267
 3963TIP3    H211767   1.967   2.367   3.415
 3964TIP3   OH211768   2.396   2.445   3.260
 3964TIP3    H111769   2.466   2.422   3.198
 3964TIP3    H211770   2.410   2.385   3.333
 3965TIP3   OH211771   2.420   2.418   2.803
 3965TIP3    H111772   2.369   2.358   2.749
 3965TIP3    H211773   2.437   2.370   2.884
 3966TIP3   OH211774   0.936   3.788   2.847
 3966TIP3    H111775   0.855   3.756   2.807
 3966TIP3    H211776   0.947   3.877   2.812
 3967TIP3   OH211777   1.900   2.545   2.938
 3967TIP3    H111778   1.956   2.507   3.007
 3967TIP3    H211779   1.902   2.639   2.956
 3968TIP3   OH211780   1.754   3.940   2.438
 3968TIP3    H111781   1.839   3.965   2.402
 3968TIP3    H211782   1.726   3.866   2.384
 3969TIP3   OH211783   2.445   4.088   2.531
 3969TIP3    H111784   2.442   3.993   2.523
 3969TIP3    H211785   2.407   4.121   2.450
 3970TIP3   OH211786   1.678   2.592   4.301
 3970TIP3    H111787   1.644   2.526   4.361
 3970TIP3    H211788   1.770   2.601   4.325
 3971TIP3   OH211789   1.924   2.599   4.424
 3971TIP3    H111790   2.003   2.577   4.374
 3971TIP3    H211791   1.919   2.531   4.491
 3972TIP3   OH211792   1.058   3.770   2.486
 3972TIP3    H111793   1.065   3.790   2.580
 3972TIP3    H211794   1.140   3.724   2.466
 3973TIP3   OH211795   2.748   2.696   4.215
 3973TIP3    H111796   2.765   2.668   4.305
 3973TIP3    H211797   2.834   2.691   4.172
 3974TIP3   OH211798   2.666   4.220   3.717
 3974TIP3    H111799   2.591   4.191   3.665
 3974TIP3    H211800   2.653   4.315   3.726
 3975TIP3   OH211801   3.948   3.609   2.455
 3975TIP3    H111802   3.917   3.696   2.428
 3975TIP3    H211803   3.876   3.550   2.431
 3976TIP3   OH211804   3.946   3.602   2.883
 3976TIP3    H111805   4.000   3.584   2.960
 3976TIP3    H211806   3.900   3.519   2.866
 3977TIP3   OH211807   3.240   3.454   3.226
 3977TIP3    H111808   3.280   3.406   3.299
 3977TIP3    H211809   3.314   3.483   3.173
 3978TIP3   OH211810   4.212   3.910   2.557
 3978TIP3    H111811   4.201   3.843   2.624
 3978TIP3    H211812   4.233   3.990   2.606
 3979TIP3   OH211813   3.236   3.883   2.901
 3979TIP3    H111814   3.217   3.790   2.911
 3979TIP3    H211815   3.332   3.887   2.897
 3980TIP3   OH211816   2.919   3.093   2.707
 3980TIP3    H111817   2.885   3.178   2.732
 3980TIP3    H211818   2.851   3.054   2.653
 3981TIP3   OH211819   3.004   3.413   2.922
 3981TIP3    H111820   3.055   3.336   2.948
 3981TIP3    H211821   3.070   3.479   2.901
 3982TIP3   OH211822   3.879   4.331   2.573
 3982TIP3    H111823   3.899   4.269   2.503
 3982TIP3    H211824   3.888   4.281   2.653
 3983TIP3   OH211825   3.755   3.822   2.885
 3983TIP3    H111826   3.801   3.742   2.859
 3983TIP3    H211827   3.823   3.880   2.918
 3984TIP3   OH211828   4.793   3.140   2.904
 3984TIP3    H111829   4.803   3.226   2.943
 3984TIP3    H211830   4.818   3.152   2.812
 3985TIP3   OH211831   4.155   3.308   2.920
 3985TIP3    H111832   4.186   3.222   2.949
 3985TIP3    H211833   4.119   3.292   2.832
 3986TIP3   OH211834   3.509   2.963   2.883
 3986TIP3    H111835   3.489   3.038   2.826
 3986TIP3    H211836   3.454   2.892   2.849
 3987TIP3   OH211837   4.211   3.070   2.518
 3987TIP3    H111838   4.274   3.064   2.590
 3987TIP3    H211839   4.261   3.105   2.444
 3988TIP3   OH211840   3.135   3.185   3.013
 3988TIP3    H111841   3.218   3.169   3.058
 3988TIP3    H211842   3.141   3.134   2.933
 3989TIP3   OH211843   3.556   3.386   2.827
 3989TIP3    H111844   3.650   3.372   2.833
 3989TIP3    H211845   3.521   3.303   2.796
 3990TIP3   OH211846   4.836   3.368   3.061
 3990TIP3    H111847   4.746   3.401   3.056
 3990TIP3    H211848   4.870   3.405   3.143
 3991TIP3   OH211849   3.494   2.971   3.332
 3991TIP3    H111850   3.443   3.007   3.260
 3991TIP3    H211851   3.441   2.987   3.410
 3992TIP3   OH211852   3.844   3.826   2.316
 3992TIP3    H111853   3.806   3.797   2.234
 3992TIP3    H211854   3.790   3.900   2.343
 3993TIP3   OH211855   3.582   3.749   3.090
 3993TIP3    H111856   3.531   3.822   3.125
 3993TIP3    H211857   3.633   3.788   3.019
 3994TIP3   OH211858   4.366   3.093   2.742
 3994TIP3    H111859   4.322   3.071   2.824
 3994TIP3    H211860   4.421   3.169   2.763
 3995TIP3   OH211861   3.380   3.078   3.104
 3995TIP3    H111862   3.435   3.153   3.125
 3995TIP3    H211863   3.426   3.033   3.033
 3996TIP3   OH211864   3.431   3.954   3.200
 3996TIP3    H111865   3.418   4.044   3.171
 3996TIP3    H211866   3.354   3.934   3.253
 3997TIP3   OH211867   2.812   3.650   2.477
 3997TIP3    H111868   2.778   3.666   2.390
 3997TIP3    H211869   2.836   3.737   2.510
 3998TIP3   OH211870   4.244   4.157   2.697
 3998TIP3    H111871   4.156   4.151   2.734
 3998TIP3    H211872   4.244   4.240   2.650
 3999TIP3   OH211873   4.593   3.030   3.073
 3999TIP3    H111874   4.508   3.045   3.031
 3999TIP3    H211875   4.656   3.057   3.006
 4000TIP3   OH211876   3.833   2.660   3.068
 4000TIP3    H111877   3.827   2.569   3.095
 4000TIP3    H211878   3.756   2.702   3.105
 4001TIP3   OH211879   3.951   4.190   2.342
 4001TIP3    H111880   4.005   4.111   2.334
 4001TIP3    H211881   4.009   4.262   2.315
 4002TIP3   OH211882   4.092   3.959   2.313
 4002TIP3    H111883   4.019   3.897   2.312
 4002TIP3    H211884   4.142   3.935   2.391
 4003TIP3   OH211885   4.482   4.045   3.039
 4003TIP3    H111886   4.463   3.970   2.982
 4003TIP3    H211887   4.468   4.121   2.983
 4004TIP3   OH211888   3.771   3.448   2.309
 4004TIP3    H111889   3.689   3.493   2.290
 4004TIP3    H211890   3.820   3.450   2.227
 4005TIP3   OH211891   3.746   3.266   2.004
 4005TIP3    H111892   3.812   3.317   2.051
 4005TIP3    H211893   3.795   3.196   1.961
 4006TIP3   OH211894   4.658   3.707   2.908
 4006TIP3    H111895   4.574   3.752   2.906
 4006TIP3    H211896   4.694   3.719   2.820
 4007TIP3   OH211897   4.137   3.541   2.269
 4007TIP3    H111898   4.082   3.569   2.343
 4007TIP3    H211899   4.220   3.516   2.310
 4008TIP3   OH211900   4.360   3.565   3.221
 4008TIP3    H111901   4.355   3.649   3.266
 4008TIP3    H211902   4.279   3.561   3.169
 4009TIP3   OH211903   3.357   3.515   2.672
 4009TIP3    H111904   3.322   3.455   2.606
 4009TIP3    H211905   3.431   3.468   2.711
 4010TIP3   OH211906   3.502   3.937   2.816
 4010TIP3    H111907   3.477   3.924   2.725
 4010TIP3    H211908   3.590   3.899   2.822
 4011TIP3   OH211909   3.451   3.513   3.050
 4011TIP3    H111910   3.491   3.477   2.971
 4011TIP3    H211911   3.498   3.595   3.065
 4012TIP3   OH211912   4.002   4.153   2.824
 4012TIP3    H111913   3.991   4.233   2.875
 4012TIP3    H211914   3.989   4.082   2.887
 4013TIP3   OH211915   3.628   4.047   3.373
 4013TIP3    H111916   3.567   4.103   3.421
 4013TIP3    H211917   3.574   3.996   3.313
 4014TIP3   OH211918   3.966   3.403   2.103
 4014TIP3    H111919   4.027   3.460   2.151
 4014TIP3    H211920   3.997   3.406   2.013
 4015TIP3   OH211921   3.387   3.595   3.510
 4015TIP3    H111922   3.393   3.688   3.534
 4015TIP3    H211923   3.293   3.578   3.503
 4016TIP3   OH211924   3.707   4.063   2.357
 4016TIP3    H111925   3.787   4.116   2.360
 4016TIP3    H211926   3.645   4.116   2.307
 4017TIP3   OH211927   3.416   4.203   3.460
 4017TIP3    H111928   3.392   4.216   3.368
 4017TIP3    H211929   3.333   4.191   3.505
 4018TIP3   OH211930   4.469   2.621   2.162
 4018TIP3    H111931   4.393   2.644   2.217
 4018TIP3    H211932   4.480   2.697   2.105
 4019TIP3   OH211933   3.231   3.362   2.469
 4019TIP3    H111934   3.155   3.413   2.441
 4019TIP3    H211935   3.199   3.272   2.476
 4020TIP3   OH211936   4.298   4.001   1.716
 4020TIP3    H111937   4.293   4.095   1.697
 4020TIP3    H211938   4.388   3.978   1.692
 4021TIP3   OH211939   3.016   3.768   3.406
 4021TIP3    H111940   2.946   3.748   3.344
 4021TIP3    H211941   3.050   3.682   3.431
 4022TIP3   OH211942   2.856   3.962   3.068
 4022TIP3    H111943   2.945   3.989   3.090
 4022TIP3    H211944   2.802   4.037   3.094
 4023TIP3   OH211945   4.712   4.407   3.109
 4023TIP3    H111946   4.717   4.312   3.123
 4023TIP3    H211947   4.633   4.434   3.156
 4024TIP3   OH211948   3.817   4.194   3.238
 4024TIP3    H111949   3.807   4.285   3.267
 4024TIP3    H211950   3.750   4.146   3.286
 4025TIP3   OH211951   3.590   4.292   2.181
 4025TIP3    H111952   3.534   4.272   2.107
 4025TIP3    H211953   3.556   4.374   2.216
 4026TIP3   OH211954   3.033   4.146   2.568
 4026TIP3    H111955   3.078   4.139   2.651
 4026TIP3    H211956   2.985   4.063   2.559
 4027TIP3   OH211957   3.792   4.226   1.811
 4027TIP3    H111958   3.844   4.153   1.778
 4027TIP3    H211959   3.825   4.239   1.901
 4028TIP3   OH211960   3.844   4.267   2.081
 4028TIP3    H111961   3.757   4.272   2.119
 4028TIP3    H211962   3.898   4.228   2.149
 4029TIP3   OH211963   4.605   3.515   3.371
 4029TIP3    H111964   4.521   3.531   3.329
 4029TIP3    H211965   4.619   3.421   3.362
 4030TIP3   OH211966   3.216   3.954   3.373
 4030TIP3    H111967   3.268   3.940   3.453
 4030TIP3    H211968   3.143   3.892   3.380
 4031TIP3   OH211969   3.594   2.752   3.190
 4031TIP3    H111970   3.509   2.720   3.159
 4031TIP3    H211971   3.573   2.834   3.235
 4032TIP3   OH211972   4.136   2.881   3.392
 4032TIP3    H111973   4.204   2.857   3.454
 4032TIP3    H211974   4.054   2.866   3.439
 4033TIP3   OH211975   4.351   3.299   3.311
 4033TIP3    H111976   4.314   3.295   3.399
 4033TIP3    H211977   4.339   3.390   3.284
 4034TIP3   OH211978   4.045   3.372   1.840
 4034TIP3    H111979   3.999   3.379   1.756
 4034TIP3    H211980   4.127   3.419   1.826
 4035TIP3   OH211981   3.741   2.809   2.161
 4035TIP3    H111982   3.710   2.815   2.251
 4035TIP3    H211983   3.711   2.723   2.131
 4036TIP3   OH211984   3.532   3.290   3.196
 4036TIP3    H111985   3.490   3.297   3.281
 4036TIP3    H211986   3.511   3.372   3.152
 4037TIP3   OH211987   3.414   3.169   2.729
 4037TIP3    H111988   3.324   3.146   2.753
 4037TIP3    H211989   3.423   3.138   2.639
 4038TIP3   OH211990   3.894   3.243   2.446
 4038TIP3    H111991   3.846   3.316   2.406
 4038TIP3    H211992   3.952   3.211   2.377
 4039TIP3   OH211993   4.079   3.506   3.518
 4039TIP3    H111994   4.053   3.438   3.581
 4039TIP3    H211995   4.170   3.523   3.539
 4040TIP3   OH211996   4.063   3.256   2.667
 4040TIP3    H111997   3.995   3.276   2.604
 4040TIP3    H211998   4.111   3.183   2.628
 4041TIP3   OH211999   3.377   3.305   3.422
 4041TIP3    H112000   3.390   3.369   3.491
 4041TIP3    H212001   3.359   3.223   3.469
 4042TIP3   OH212002   3.403   2.777   2.146
 4042TIP3    H112003   3.394   2.787   2.240
 4042TIP3    H212004   3.331   2.828   2.109
 4043TIP3   OH212005   3.001   2.821   2.966
 4043TIP3    H112006   3.038   2.842   3.052
 4043TIP3    H212007   3.047   2.879   2.905
 4044TIP3   OH212008   2.874   2.803   2.509
 4044TIP3    H112009   2.921   2.834   2.432
 4044TIP3    H212010   2.814   2.874   2.531
 4045TIP3   OH212011   4.113   3.510   3.094
 4045TIP3    H112012   4.135   3.443   3.030
 4045TIP3    H212013   4.066   3.463   3.163
 4046TIP3   OH212014   3.781   2.954   2.773
 4046TIP3    H112015   3.703   2.953   2.829
 4046TIP3    H212016   3.855   2.945   2.834
 4047TIP3   OH212017   3.175   3.036   2.788
 4047TIP3    H112018   3.091   3.045   2.743
 4047TIP3    H212019   3.209   2.952   2.757
 4048TIP3   OH212020   3.430   3.050   2.483
 4048TIP3    H112021   3.524   3.061   2.472
 4048TIP3    H212022   3.393   3.069   2.397
 4049TIP3   OH212023   4.221   3.044   2.978
 4049TIP3    H112024   4.203   3.062   3.070
 4049TIP3    H212025   4.154   2.982   2.951
 4050TIP3   OH212026   3.314   3.074   2.238
 4050TIP3    H112027   3.251   3.029   2.180
 4050TIP3    H212028   3.372   3.120   2.178
 4051TIP3   OH212029   4.426   4.751   3.200
 4051TIP3    H112030   4.423   4.767   3.105
 4051TIP3    H212031   4.505   4.796   3.229
 4052TIP3   OH212032   3.370   3.862   3.605
 4052TIP3    H112033   3.450   3.880   3.654
 4052TIP3    H212034   3.300   3.871   3.670
 4053TIP3   OH212035   3.828   3.334   2.876
 4053TIP3    H112036   3.896   3.285   2.829
 4053TIP3    H212037   3.825   3.294   2.963
 4054TIP3   OH212038   3.312   2.791   2.760
 4054TIP3    H112039   3.286   2.716   2.813
 4054TIP3    H212040   3.337   2.754   2.675
 4055TIP3   OH212041   3.799   3.236   3.138
 4055TIP3    H112042   3.712   3.268   3.163
 4055TIP3    H212043   3.860   3.289   3.192
 4056TIP3   OH212044   3.535   3.588   2.251
 4056TIP3    H112045   3.461   3.534   2.226
 4056TIP3    H212046   3.509   3.629   2.334
 4057TIP3   OH212047   4.424   3.843   2.860
 4057TIP3    H112048   4.461   3.892   2.786
 4057TIP3    H212049   4.346   3.801   2.824
 4058TIP3   OH212050   3.999   2.903   2.168
 4058TIP3    H112051   3.905   2.885   2.162
 4058TIP3    H212052   4.004   2.998   2.178
 4059TIP3   OH212053   3.946   3.927   3.278
 4059TIP3    H112054   3.997   3.914   3.358
 4059TIP3    H212055   3.906   4.013   3.288
 4060TIP3   OH212056   4.060   3.169   2.231
 4060TIP3    H112057   4.154   3.172   2.242
 4060TIP3    H212058   4.039   3.248   2.180
 4061TIP3   OH212059   3.222   3.592   2.901
 4061TIP3    H112060   3.261   3.576   2.814
 4061TIP3    H212061   3.290   3.566   2.963
 4062TIP3   OH212062   3.689   3.748   2.093
 4062TIP3    H112063   3.644   3.832   2.090
 4062TIP3    H212064   3.633   3.692   2.146
 4063TIP3   OH212065   3.112   3.539   3.536
 4063TIP3    H112066   3.122   3.523   3.630
 4063TIP3    H212067   3.037   3.484   3.511
 4064TIP3   OH212068   3.850   3.666   3.558
 4064TIP3    H112069   3.779   3.606   3.532
 4064TIP3    H212070   3.930   3.622   3.529
 4065TIP3   OH212071   4.088   4.218   3.164
 4065TIP3    H112072   3.994   4.203   3.167
 4065TIP3    H212073   4.110   4.251   3.250
 4066TIP3   OH212074   4.469   3.254   2.046
 4066TIP3    H112075   4.411   3.210   1.984
 4066TIP3    H212076   4.477   3.343   2.011
 4067TIP3   OH212077   4.727   4.128   3.130
 4067TIP3    H112078   4.633   4.112   3.122
 4067TIP3    H212079   4.763   4.099   3.047
 4068TIP3   OH212080   4.215   4.071   1.982
 4068TIP3    H112081   4.188   4.001   2.042
 4068TIP3    H212082   4.235   4.026   1.900
 4069TIP3   OH212083   4.198   3.705   2.755
 4069TIP3    H112084   4.109   3.684   2.782
 4069TIP3    H212085   4.232   3.624   2.717
 4070TIP3   OH212086   3.352   3.939   2.579
 4070TIP3    H112087   3.345   4.015   2.521
 4070TIP3    H212088   3.265   3.931   2.618
 4071TIP3   OH212089   2.919   3.235   2.284
 4071TIP3    H112090   2.961   3.319   2.301
 4071TIP3    H212091   2.835   3.240   2.331
 4072TIP3   OH212092   3.436   3.697   2.477
 4072TIP3    H112093   3.417   3.786   2.506
 4072TIP3    H212094   3.409   3.642   2.549
 4073TIP3   OH212095   3.636   4.265   3.028
 4073TIP3    H112096   3.672   4.339   2.979
 4073TIP3    H212097   3.711   4.232   3.079
 4074TIP3   OH212098   3.272   4.161   2.430
 4074TIP3    H112099   3.183   4.169   2.465
 4074TIP3    H212100   3.307   4.249   2.432
 4075TIP3   OH212101   3.983   3.934   3.003
 4075TIP3    H112102   3.968   3.930   3.097
 4075TIP3    H212103   4.063   3.884   2.989
 4076TIP3   OH212104   3.985   3.811   1.868
 4076TIP3    H112105   4.036   3.782   1.943
 4076TIP3    H212106   3.902   3.764   1.875
 4077TIP3   OH212107   4.242   4.420   3.041
 4077TIP3    H112108   4.173   4.358   3.064
 4077TIP3    H212109   4.204   4.473   2.970
 4078TIP3   OH212110   4.295   4.275   1.679
 4078TIP3    H112111   4.330   4.343   1.621
 4078TIP3    H212112   4.220   4.316   1.722
 4079TIP3   OH212113   3.325   3.049   3.539
 4079TIP3    H112114   3.230   3.057   3.547
 4079TIP3    H212115   3.353   3.004   3.619
 4080TIP3   OH212116   4.161   3.719   2.056
 4080TIP3    H112117   4.145   3.668   2.136
 4080TIP3    H212118   4.256   3.727   2.052
 4081TIP3   OH212119   3.064   4.159   3.190
 4081TIP3    H112120   3.117   4.100   3.245
 4081TIP3    H212121   3.078   4.245   3.228
 4082TIP3   OH212122   3.363   3.748   1.854
 4082TIP3    H112123   3.353   3.654   1.837
 4082TIP3    H212124   3.334   3.759   1.945
 4083TIP3   OH212125   3.288   3.783   2.117
 4083TIP3    H112126   3.341   3.745   2.187
 4083TIP3    H212127   3.287   3.877   2.136
 4084TIP3   OH212128   3.009   3.487   2.361
 4084TIP3    H112129   2.944   3.530   2.417
 4084TIP3    H212130   3.023   3.549   2.289
 4085TIP3   OH212131   4.165   3.108   3.239
 4085TIP3    H112132   4.241   3.156   3.272
 4085TIP3    H212133   4.157   3.033   3.297
 4086TIP3   OH212134   4.061   2.851   2.435
 4086TIP3    H112135   4.039   2.869   2.343
 4086TIP3    H212136   4.105   2.930   2.465
 4087TIP3   OH212137   3.552   3.982   2.087
 4087TIP3    H112138   3.469   3.999   2.132
 4087TIP3    H212139   3.564   4.056   2.028
 4088TIP3   OH212140   3.709   3.054   2.524
 4088TIP3    H112141   3.771   3.122   2.497
 4088TIP3    H212142   3.734   3.033   2.613
 4089TIP3   OH212143   4.006   3.348   3.290
 4089TIP3    H112144   4.030   3.390   3.372
 4089TIP3    H212145   4.055   3.265   3.290
 4090TIP3   OH212146   3.874   2.744   2.610
 4090TIP3    H112147   3.851   2.820   2.662
 4090TIP3    H212148   3.945   2.774   2.553
 4091TIP3   OH212149   3.303   4.050   2.182
 4091TIP3    H112150   3.279   4.123   2.125
 4091TIP3    H212151   3.291   4.083   2.271
 4092TIP3   OH212152   3.393   2.779   2.430
 4092TIP3    H112153   3.384   2.870   2.456
 4092TIP3    H212154   3.487   2.763   2.429
 4093TIP3   OH212155   4.613   3.242   3.277
 4093TIP3    H112156   4.519   3.252   3.292
 4093TIP3    H212157   4.619   3.180   3.203
 4094TIP3   OH212158   4.288   3.446   2.668
 4094TIP3    H112159   4.211   3.390   2.679
 4094TIP3    H212160   4.355   3.406   2.724
 4095TIP3   OH212161   3.021   3.682   2.157
 4095TIP3    H112162   3.057   3.766   2.184
 4095TIP3    H212163   3.074   3.656   2.081
 4096TIP3   OH212164   2.940   2.956   2.289
 4096TIP3    H112165   2.955   3.049   2.301
 4096TIP3    H212166   2.874   2.951   2.220
 4097TIP3   OH212167   4.269   4.421   2.609
 4097TIP3    H112168   4.229   4.475   2.541
 4097TIP3    H212169   4.363   4.433   2.596
 4098TIP3   OH212170   3.328   2.670   3.154
 4098TIP3    H112171   3.300   2.637   3.068
 4098TIP3    H212172   3.322   2.595   3.212
 4099TIP3   OH212173   2.868   3.915   2.566
 4099TIP3    H112174   2.831   3.953   2.646
 4099TIP3    H212175   2.814   3.951   2.495
 4100TIP3   OH212176   3.069   4.463   3.613
 4100TIP3    H112177   3.150   4.471   3.664
 4100TIP3    H212178   3.060   4.369   3.598
 4101TIP3   OH212179   3.528   4.365   3.653
 4101TIP3    H112180   3.619   4.335   3.661
 4101TIP3    H212181   3.492   4.311   3.582
 4102TIP3   OH212182   3.495   3.970   1.768
 4102TIP3    H112183   3.447   3.896   1.808
 4102TIP3    H212184   3.573   3.930   1.731
 4103TIP3   OH212185   4.145   4.310   3.416
 4103TIP3    H112186   4.161   4.240   3.479
 4103TIP3    H212187   4.218   4.370   3.427
 4104TIP3   OH212188   3.929   4.017   1.697
 4104TIP3    H112189   3.963   3.955   1.761
 4104TIP3    H212190   3.989   4.010   1.623
 4105TIP3   OH212191   3.163   3.867   3.793
 4105TIP3    H112192   3.186   3.775   3.807
 4105TIP3    H212193   3.075   3.865   3.757
 4106TIP3   OH212194   3.081   3.524   1.904
 4106TIP3    H112195   3.095   3.467   1.980
 4106TIP3    H212196   3.163   3.518   1.854
 4107TIP3   OH212197   3.786   3.943   3.576
 4107TIP3    H112198   3.739   3.964   3.495
 4107TIP3    H212199   3.819   3.854   3.561
 4108TIP3   OH212200   3.738   3.684   1.831
 4108TIP3    H112201   3.710   3.699   1.921
 4108TIP3    H212202   3.715   3.592   1.814
 4109TIP3   OH212203   4.257   3.992   3.191
 4109TIP3    H112204   4.334   4.019   3.143
 4109TIP3    H212205   4.193   4.062   3.178
 4110TIP3   OH212206   3.269   3.611   3.803
 4110TIP3    H112207   3.346   3.576   3.758
 4110TIP3    H212208   3.297   3.620   3.894
 4111TIP3   OH212209   3.324   3.420   2.205
 4111TIP3    H112210   3.299   3.391   2.292
 4111TIP3    H212211   3.372   3.346   2.168
 4112TIP3   OH212212   3.645   3.491   3.462
 4112TIP3    H112213   3.559   3.531   3.473
 4112TIP3    H212214   3.674   3.520   3.376
 4113TIP3   OH212215   3.480   3.225   2.081
 4113TIP3    H112216   3.450   3.228   1.990
 4113TIP3    H212217   3.575   3.236   2.075
 4114TIP3   OH212218   4.136   3.864   3.537
 4114TIP3    H112219   4.206   3.826   3.484
 4114TIP3    H212220   4.132   3.809   3.615
 4115TIP3   OH212221   4.259   3.512   1.734
 4115TIP3    H112222   4.247   3.471   1.649
 4115TIP3    H212223   4.236   3.604   1.721
 4116TIP3   OH212224   3.744   3.257   3.569
 4116TIP3    H112225   3.747   3.188   3.503
 4116TIP3    H212226   3.711   3.334   3.523
 4117TIP3   OH212227   3.753   3.061   3.364
 4117TIP3    H112228   3.779   3.099   3.280
 4117TIP3    H212229   3.662   3.032   3.351
 4118TIP3   OH212230   3.753   3.588   3.233
 4118TIP3    H112231   3.840   3.627   3.226
 4118TIP3    H212232   3.696   3.647   3.183
 4119TIP3   OH212233   4.346   3.551   3.614
 4119TIP3    H112234   4.395   3.469   3.619
 4119TIP3    H212235   4.414   3.619   3.611
 4120TIP3   OH212236   4.377   3.812   3.356
 4120TIP3    H112237   4.324   3.875   3.306
 4120TIP3    H212238   4.466   3.827   3.325
 4121TIP3   OH212239   3.632   3.339   3.816
 4121TIP3    H112240   3.560   3.281   3.837
 4121TIP3    H212241   3.658   3.313   3.727
 4122TIP3   OH212242   3.872   2.832   3.473
 4122TIP3    H112243   3.832   2.912   3.439
 4122TIP3    H212244   3.806   2.765   3.460
 4123TIP3   OH212245   3.998   3.296   3.677
 4123TIP3    H112246   3.985   3.283   3.771
 4123TIP3    H212247   3.912   3.276   3.639
 4124TIP3   OH212248   4.247   3.255   3.555
 4124TIP3    H112249   4.167   3.254   3.608
 4124TIP3    H212250   4.317   3.232   3.615
 4125TIP3   OH212251   4.487   3.221   3.699
 4125TIP3    H112252   4.498   3.126   3.705
 4125TIP3    H212253   4.481   3.250   3.789
 4126TIP3   OH212254   3.459   3.125   3.876
 4126TIP3    H112255   3.466   3.035   3.843
 4126TIP3    H212256   3.494   3.120   3.965
 4127TIP3   OH212257   3.941   2.801   3.737
 4127TIP3    H112258   4.009   2.734   3.727
 4127TIP3    H212259   3.910   2.816   3.648
 4128TIP3   OH212260   4.035   3.015   3.885
 4128TIP3    H112261   4.003   2.944   3.830
 4128TIP3    H212262   3.963   3.078   3.887
 4129TIP3   OH212263   3.282   4.265   2.009
 4129TIP3    H112264   3.361   4.256   1.955
 4129TIP3    H212265   3.211   4.273   1.946
 4130TIP3   OH212266   2.751   3.636   2.203
 4130TIP3    H112267   2.838   3.669   2.178
 4130TIP3    H212268   2.743   3.553   2.156
 4131TIP3   OH212269   2.657   4.234   2.631
 4131TIP3    H112270   2.593   4.182   2.583
 4131TIP3    H212271   2.701   4.171   2.688
 4132TIP3   OH212272   2.804   4.063   2.800
 4132TIP3    H112273   2.795   3.998   2.869
 4132TIP3    H212274   2.856   4.133   2.839
 4133TIP3   OH212275   4.541   4.469   2.604
 4133TIP3    H112276   4.560   4.497   2.694
 4133TIP3    H212277   4.595   4.526   2.550
 4134TIP3   OH212278   4.557   4.503   2.885
 4134TIP3    H112279   4.510   4.420   2.880
 4134TIP3    H212280   4.627   4.488   2.948
 4135TIP3   OH212281   4.621   4.202   3.457
 4135TIP3    H112282   4.546   4.212   3.515
 4135TIP3    H212283   4.667   4.286   3.462
 4136TIP3   OH212284   4.440   3.720   2.062
 4136TIP3    H112285   4.496   3.792   2.033
 4136TIP3    H212286   4.486   3.683   2.137
 4137TIP3   OH212287   4.569   3.578   2.264
 4137TIP3    H112288   4.502   3.542   2.321
 4137TIP3    H212289   4.635   3.615   2.323
 4138TIP3   OH212290   4.611   3.980   2.702
 4138TIP3    H112291   4.662   3.912   2.658
 4138TIP3    H212292   4.613   4.055   2.641
 4139TIP3   OH212293   4.415   4.265   2.889
 4139TIP3    H112294   4.349   4.310   2.941
 4139TIP3    H212295   4.366   4.224   2.818
 4140TIP3   OH212296   4.470   3.493   1.910
 4140TIP3    H112297   4.397   3.494   1.847
 4140TIP3    H212298   4.456   3.572   1.962
 4141TIP3   OH212299   4.314   3.141   1.852
 4141TIP3    H112300   4.268   3.173   1.774
 4141TIP3    H212301   4.311   3.046   1.843
 4142TIP3   OH212302   4.364   3.441   2.400
 4142TIP3    H112303   4.367   3.346   2.385
 4142TIP3    H212304   4.343   3.450   2.493
 4143TIP3   OH212305   2.977   3.502   3.179
 4143TIP3    H112306   2.969   3.473   3.089
 4143TIP3    H212307   3.071   3.495   3.198
 4144TIP3   OH212308   4.635   3.854   3.263
 4144TIP3    H112309   4.703   3.788   3.246
 4144TIP3    H212310   4.649   3.921   3.196
 4145TIP3   OH212311   4.815   3.644   3.253
 4145TIP3    H112312   4.742   3.601   3.296
 4145TIP3    H212313   4.891   3.590   3.274
 4146TIP3   OH212314   4.287   2.868   1.821
 4146TIP3    H112315   4.351   2.842   1.888
 4146TIP3    H212316   4.204   2.832   1.852
 4147TIP3   OH212317   4.351   3.162   2.287
 4147TIP3    H112318   4.397   3.080   2.300
 4147TIP3    H212319   4.391   3.201   2.209
 4148TIP3   OH212320   4.504   3.326   2.812
 4148TIP3    H112321   4.584   3.343   2.763
 4148TIP3    H212322   4.517   3.367   2.897
 4149TIP3   OH212323   4.575   3.477   3.038
 4149TIP3    H112324   4.504   3.504   3.096
 4149TIP3    H212325   4.605   3.558   2.997
 4150TIP3   OH212326   3.198   3.183   3.800
 4150TIP3    H112327   3.290   3.187   3.827
 4150TIP3    H212328   3.163   3.105   3.843
 4151TIP3   OH212329   5.029   3.095   3.566
 4151TIP3    H112330   5.089   3.028   3.534
 4151TIP3    H212331   4.996   3.138   3.487
 4152TIP3   OH212332   4.469   2.913   2.340
 4152TIP3    H112333   4.514   2.898   2.423
 4152TIP3    H212334   4.406   2.842   2.333
 4153TIP3   OH212335   3.163   2.892   3.184
 4153TIP3    H112336   3.220   2.815   3.185
 4153TIP3    H212337   3.222   2.965   3.164
 4154TIP3   OH212338   2.939   3.163   3.214
 4154TIP3    H112339   3.000   3.161   3.141
 4154TIP3    H212340   2.963   3.241   3.264
 4155TIP3   OH212341   4.883   3.203   3.367
 4155TIP3    H112342   4.809   3.239   3.415
 4155TIP3    H212343   4.845   3.132   3.315
 4156TIP3   OH212344   4.511   2.822   1.979
 4156TIP3    H112345   4.562   2.763   1.923
 4156TIP3    H212346   4.563   2.902   1.983
 4157TIP3   OH212347   2.963   2.656   2.725
 4157TIP3    H112348   2.965   2.707   2.806
 4157TIP3    H212349   2.936   2.719   2.658
 4158TIP3   OH212350   4.093   4.396   2.243
 4158TIP3    H112351   4.150   4.382   2.167
 4158TIP3    H212352   4.138   4.461   2.296
 4159TIP3   OH212353   3.174   2.733   3.566
 4159TIP3    H112354   3.125   2.731   3.648
 4159TIP3    H212355   3.115   2.775   3.504
 4160TIP3   OH212356   3.187   4.185   3.624
 4160TIP3    H112357   3.095   4.159   3.617
 4160TIP3    H212358   3.209   4.171   3.716
 4161TIP3   OH212359   3.408   4.231   3.177
 4161TIP3    H112360   3.358   4.306   3.146
 4161TIP3    H212361   3.493   4.238   3.133
 4162TIP3   OH212362   3.801   4.461   3.314
 4162TIP3    H112363   3.838   4.453   3.402
 4162TIP3    H212364   3.863   4.516   3.267
 4163TIP3   OH212365   3.993   4.617   3.190
 4163TIP3    H112366   4.055   4.563   3.141
 4163TIP3    H212367   4.048   4.673   3.244
 4164TIP3   OH212368   4.795   2.948   3.268
 4164TIP3    H112369   4.713   2.953   3.220
 4164TIP3    H212370   4.821   2.856   3.261
 4165TIP3   OH212371   3.069   4.464   3.226
 4165TIP3    H112372   2.977   4.481   3.203
 4165TIP3    H212373   3.090   4.531   3.291
 4166TIP3   OH212374   3.299   4.463   3.075
 4166TIP3    H112375   3.216   4.465   3.122
 4166TIP3    H212376   3.276   4.484   2.985
 4167TIP3   OH212377   3.709   4.479   2.868
 4167TIP3    H112378   3.636   4.489   2.807
 4167TIP3    H212379   3.718   4.565   2.908
 4168TIP3   OH212380   3.971   4.411   2.916
 4168TIP3    H112381   3.880   4.433   2.896
 4168TIP3    H212382   4.023   4.477   2.869
 4169TIP3   OH212383   4.172   4.577   2.814
 4169TIP3    H112384   4.177   4.665   2.777
 4169TIP3    H212385   4.203   4.519   2.744
 4170TIP3   OH212386   2.979   4.243   2.939
 4170TIP3    H112387   3.004   4.220   3.028
 4170TIP3    H212388   3.050   4.210   2.885
 4171TIP3   OH212389   3.182   4.129   2.799
 4171TIP3    H112390   3.193   4.044   2.840
 4171TIP3    H212391   3.269   4.170   2.804
 4172TIP3   OH212392   3.450   4.214   2.826
 4172TIP3    H112393   3.471   4.122   2.810
 4172TIP3    H212394   3.505   4.238   2.900
 4173TIP3   OH212395   4.008   2.860   2.911
 4173TIP3    H112396   3.970   2.789   2.962
 4173TIP3    H212397   4.077   2.818   2.860
 4174TIP3   OH212398   4.510   2.791   2.806
 4174TIP3    H112399   4.545   2.838   2.730
 4174TIP3    H212400   4.416   2.807   2.803
 4175TIP3   OH212401   4.625   2.857   2.564
 4175TIP3    H112402   4.693   2.796   2.536
 4175TIP3    H212403   4.664   2.944   2.551
 4176TIP3   OH212404   3.244   2.565   2.911
 4176TIP3    H112405   3.155   2.529   2.919
 4176TIP3    H212406   3.301   2.488   2.906
 4177TIP3   OH212407   3.065   2.460   2.560
 4177TIP3    H112408   3.103   2.509   2.487
 4177TIP3    H212409   3.032   2.527   2.619
 4178TIP3   OH212410   3.731   2.595   2.807
 4178TIP3    H112411   3.778   2.644   2.739
 4178TIP3    H212412   3.771   2.624   2.889
 4179TIP3   OH212413   4.225   2.744   2.781
 4179TIP3    H112414   4.241   2.707   2.694
 4179TIP3    H212415   4.231   2.669   2.841
 4180TIP3   OH212416   4.283   2.704   2.349
 4180TIP3    H112417   4.203   2.750   2.374
 4180TIP3    H212418   4.274   2.617   2.390
 4181TIP3   OH212419   2.718   4.017   2.368
 4181TIP3    H112420   2.637   3.980   2.331
 4181TIP3    H212421   2.730   4.100   2.320
 4182TIP3   OH212422   3.196   2.600   2.355
 4182TIP3    H112423   3.242   2.538   2.299
 4182TIP3    H212424   3.265   2.659   2.387
 4183TIP3   OH212425   3.667   2.803   2.426
 4183TIP3    H112426   3.725   2.750   2.480
 4183TIP3    H212427   3.681   2.893   2.456
 4184TIP3   OH212428   3.531   4.202   1.905
 4184TIP3    H112429   3.617   4.228   1.871
 4184TIP3    H212430   3.507   4.126   1.852
 4185TIP3   OH212431   4.246   4.340   2.018
 4185TIP3    H112432   4.240   4.245   2.011
 4185TIP3    H212433   4.204   4.373   1.938
 4186TIP3   OH212434   3.480   2.854   3.786
 4186TIP3    H112435   3.444   2.790   3.847
 4186TIP3    H212436   3.572   2.863   3.811
 4187TIP3   OH212437   3.727   2.852   3.909
 4187TIP3    H112438   3.804   2.827   3.858
 4187TIP3    H212439   3.720   2.785   3.977
 4188TIP3   OH212440   4.545   2.947   3.698
 4188TIP3    H112441   4.563   2.919   3.788
 4188TIP3    H212442   4.631   2.943   3.654
 4189TIP3   OH212443   4.462   4.477   3.205
 4189TIP3    H112444   4.388   4.447   3.152
 4189TIP3    H212445   4.450   4.572   3.213
 4190TIP3   OH212446   5.742   3.866   1.942
 4190TIP3    H112447   5.712   3.953   1.916
 4190TIP3    H212448   5.672   3.807   1.916
 4191TIP3   OH212449   5.739   3.857   2.370
 4191TIP3    H112450   5.794   3.841   2.446
 4191TIP3    H212451   5.695   3.774   2.354
 4192TIP3   OH212452   5.036   3.717   2.710
 4192TIP3    H112453   5.077   3.667   2.781
 4192TIP3    H212454   5.109   3.742   2.654
 4193TIP3   OH212455   6.008   4.167   2.043
 4193TIP3    H112456   5.998   4.100   2.111
 4193TIP3    H212457   6.029   4.247   2.091
 4194TIP3   OH212458   5.031   4.141   2.389
 4194TIP3    H112459   5.012   4.048   2.398
 4194TIP3    H212460   5.127   4.146   2.384
 4195TIP3   OH212461   4.711   3.348   2.181
 4195TIP3    H112462   4.675   3.433   2.206
 4195TIP3    H212463   4.638   3.301   2.141
 4196TIP3   OH212464   4.796   3.665   2.407
 4196TIP3    H112465   4.847   3.588   2.432
 4196TIP3    H212466   4.862   3.731   2.385
 4197TIP3   OH212467   5.674   4.585   2.064
 4197TIP3    H112468   5.697   4.523   1.994
 4197TIP3    H212469   5.688   4.536   2.145
 4198TIP3   OH212470   5.550   4.078   2.373
 4198TIP3    H112471   5.597   3.999   2.347
 4198TIP3    H212472   5.618   4.137   2.404
 4199TIP3   OH212473   6.588   3.395   2.390
 4199TIP3    H112474   6.601   3.481   2.431
 4199TIP3    H212475   6.616   3.407   2.300
 4200TIP3   OH212476   5.949   3.564   2.407
 4200TIP3    H112477   5.981   3.479   2.435
 4200TIP3    H212478   5.913   3.550   2.320
 4201TIP3   OH212479   5.309   3.221   2.365
 4201TIP3    H112480   5.289   3.294   2.307
 4201TIP3    H212481   5.254   3.149   2.334
 4202TIP3   OH212482   6.007   3.328   2.006
 4202TIP3    H112483   6.070   3.323   2.077
 4202TIP3    H212484   6.057   3.362   1.932
 4203TIP3   OH212485   4.933   3.440   2.498
 4203TIP3    H112486   5.017   3.423   2.540
 4203TIP3    H212487   4.936   3.389   2.417
 4204TIP3   OH212488   5.351   3.639   2.314
 4204TIP3    H112489   5.445   3.625   2.319
 4204TIP3    H212490   5.316   3.557   2.280
 4205TIP3   OH212491   6.634   3.617   2.556
 4205TIP3    H112492   6.549   3.659   2.547
 4205TIP3    H212493   6.672   3.656   2.635
 4206TIP3   OH212494   5.288   3.231   2.819
 4206TIP3    H112495   5.242   3.266   2.742
 4206TIP3    H212496   5.231   3.250   2.893
 4207TIP3   OH212497   5.640   4.084   1.805
 4207TIP3    H112498   5.600   4.053   1.723
 4207TIP3    H212499   5.587   4.160   1.829
 4208TIP3   OH212500   5.377   4.005   2.578
 4208TIP3    H112501   5.326   4.079   2.612
 4208TIP3    H212502   5.429   4.043   2.506
 4209TIP3   OH212503   6.161   3.351   2.230
 4209TIP3    H112504   6.118   3.330   2.313
 4209TIP3    H212505   6.217   3.425   2.251
 4210TIP3   OH212506   5.183   3.336   2.585
 4210TIP3    H112507   5.237   3.412   2.607
 4210TIP3    H212508   5.229   3.293   2.513
 4211TIP3   OH212509   5.228   4.211   2.687
 4211TIP3    H112510   5.216   4.301   2.658
 4211TIP3    H212511   5.150   4.192   2.740
 4212TIP3   OH212512   4.607   3.914   1.945
 4212TIP3    H112513   4.573   3.934   1.858
 4212TIP3    H212514   4.630   3.999   1.983
 4213TIP3   OH212515   6.040   4.413   2.185
 4213TIP3    H112516   5.951   4.408   2.221
 4213TIP3    H212517   6.041   4.496   2.137
 4214TIP3   OH212518   6.393   3.276   2.558
 4214TIP3    H112519   6.307   3.299   2.522
 4214TIP3    H212520   6.455   3.306   2.492
 4215TIP3   OH212521   5.633   2.920   2.554
 4215TIP3    H112522   5.626   2.828   2.578
 4215TIP3    H212523   5.555   2.961   2.593
 4216TIP3   OH212524   5.753   4.443   1.838
 4216TIP3    H112525   5.807   4.365   1.826
 4216TIP3    H212526   5.809   4.515   1.809
 4217TIP3   OH212527   5.891   4.213   1.797
 4217TIP3    H112528   5.818   4.151   1.797
 4217TIP3    H212529   5.941   4.189   1.875
 4218TIP3   OH212530   6.277   4.301   2.526
 4218TIP3    H112531   6.260   4.226   2.468
 4218TIP3    H212532   6.263   4.378   2.471
 4219TIP3   OH212533   5.568   3.703   1.796
 4219TIP3    H112534   5.484   3.746   1.777
 4219TIP3    H212535   5.615   3.703   1.713
 4220TIP3   OH212536   5.533   3.518   1.483
 4220TIP3    H112537   5.600   3.565   1.533
 4220TIP3    H212538   5.582   3.450   1.436
 4221TIP3   OH212539   6.454   3.961   2.396
 4221TIP3    H112540   6.371   4.007   2.394
 4221TIP3    H212541   6.491   3.973   2.309
 4222TIP3   OH212542   5.929   3.792   1.755
 4222TIP3    H112543   5.875   3.821   1.828
 4222TIP3    H212544   6.013   3.769   1.795
 4223TIP3   OH212545   6.156   3.819   2.708
 4223TIP3    H112546   6.152   3.904   2.752
 4223TIP3    H212547   6.076   3.815   2.656
 4224TIP3   OH212548   5.154   3.771   2.158
 4224TIP3    H112549   5.118   3.710   2.094
 4224TIP3    H212550   5.227   3.724   2.198
 4225TIP3   OH212551   5.296   4.193   2.302
 4225TIP3    H112552   5.274   4.182   2.210
 4225TIP3    H212553   5.384   4.156   2.310
 4226TIP3   OH212554   5.247   3.769   2.534
 4226TIP3    H112555   5.286   3.733   2.455
 4226TIP3    H212556   5.294   3.851   2.549
 4227TIP3   OH212557   5.796   4.410   2.308
 4227TIP3    H112558   5.786   4.491   2.360
 4227TIP3    H212559   5.782   4.340   2.372
 4228TIP3   OH212560   5.425   4.302   2.860
 4228TIP3    H112561   5.364   4.359   2.907
 4228TIP3    H212562   5.371   4.252   2.799
 4229TIP3   OH212563   5.757   3.654   1.588
 4229TIP3    H112564   5.818   3.712   1.635
 4229TIP3    H212565   5.788   3.657   1.497
 4230TIP3   OH212566   5.176   3.844   3.015
 4230TIP3    H112567   5.183   3.939   3.028
 4230TIP3    H212568   5.083   3.827   3.005
 4231TIP3   OH212569   5.504   4.325   1.840
 4231TIP3    H112570   5.587   4.372   1.849
 4231TIP3    H212571   5.446   4.386   1.794
 4232TIP3   OH212572   5.215   4.460   2.946
 4232TIP3    H112573   5.193   4.475   2.854
 4232TIP3    H212574   5.131   4.449   2.989
 4233TIP3   OH212575   6.268   2.880   1.650
 4233TIP3    H112576   6.192   2.901   1.705
 4233TIP3    H212577   6.278   2.955   1.593
 4234TIP3   OH212578   5.028   3.611   1.960
 4234TIP3    H112579   4.950   3.659   1.932
 4234TIP3    H212580   4.998   3.522   1.974
 4235TIP3   OH212581   6.099   4.256   1.202
 4235TIP3    H112582   6.090   4.349   1.183
 4235TIP3    H212583   6.187   4.233   1.172
 4236TIP3   OH212584   4.813   4.021   2.895
 4236TIP3    H112585   4.743   4.004   2.832
 4236TIP3    H212586   4.846   3.934   2.918
 4237TIP3   OH212587   4.655   4.216   2.552
 4237TIP3    H112588   4.745   4.242   2.569
 4237TIP3    H212589   4.603   4.293   2.578
 4238TIP3   OH212590   6.507   4.665   2.596
 4238TIP3    H112591   6.511   4.570   2.608
 4238TIP3    H212592   6.428   4.691   2.642
 4239TIP3   OH212593   5.614   4.450   2.725
 4239TIP3    H112594   5.604   4.541   2.754
 4239TIP3    H212595   5.546   4.402   2.773
 4240TIP3   OH212596   5.395   4.541   1.676
 4240TIP3    H112597   5.352   4.524   1.593
 4240TIP3    H212598   5.359   4.626   1.704
 4241TIP3   OH212599   4.829   4.405   2.053
 4241TIP3    H112600   4.875   4.397   2.136
 4241TIP3    H212601   4.782   4.322   2.044
 4242TIP3   OH212602   5.593   4.482   1.301
 4242TIP3    H112603   5.644   4.410   1.265
 4242TIP3    H212604   5.630   4.497   1.388
 4243TIP3   OH212605   5.649   4.523   1.570
 4243TIP3    H112606   5.564   4.524   1.614
 4243TIP3    H212607   5.709   4.488   1.636
 4244TIP3   OH212608   6.398   3.781   2.869
 4244TIP3    H112609   6.316   3.791   2.821
 4244TIP3    H212610   6.418   3.687   2.862
 4245TIP3   OH212611   5.013   4.208   2.860
 4245TIP3    H112612   5.063   4.195   2.941
 4245TIP3    H212613   4.940   4.147   2.867
 4246TIP3   OH212614   5.394   3.008   2.684
 4246TIP3    H112615   5.312   2.976   2.648
 4246TIP3    H212616   5.371   3.091   2.727
 4247TIP3   OH212617   5.927   3.140   2.881
 4247TIP3    H112618   5.997   3.115   2.941
 4247TIP3    H212619   5.846   3.124   2.931
 4248TIP3   OH212620   6.155   3.551   2.791
 4248TIP3    H112621   6.118   3.548   2.880
 4248TIP3    H212622   6.143   3.642   2.764
 4249TIP3   OH212623   5.836   3.622   1.325
 4249TIP3    H112624   5.790   3.630   1.241
 4249TIP3    H212625   5.918   3.671   1.311
 4250TIP3   OH212626   5.545   3.053   1.646
 4250TIP3    H112627   5.507   3.061   1.733
 4250TIP3    H212628   5.509   2.970   1.612
 4251TIP3   OH212629   5.333   3.549   2.682
 4251TIP3    H112630   5.288   3.557   2.766
 4251TIP3    H212631   5.311   3.630   2.635
 4252TIP3   OH212632   5.211   3.423   2.208
 4252TIP3    H112633   5.122   3.400   2.232
 4252TIP3    H212634   5.220   3.392   2.117
 4253TIP3   OH212635   5.688   3.498   1.933
 4253TIP3    H112636   5.642   3.571   1.893
 4253TIP3    H212637   5.747   3.466   1.865
 4254TIP3   OH212638   5.881   3.762   3.002
 4254TIP3    H112639   5.856   3.695   3.066
 4254TIP3    H212640   5.972   3.781   3.022
 4255TIP3   OH212641   5.857   3.512   2.155
 4255TIP3    H112642   5.789   3.533   2.091
 4255TIP3    H212643   5.906   3.440   2.116
 4256TIP3   OH212644   5.174   3.570   2.905
 4256TIP3    H112645   5.180   3.636   2.973
 4256TIP3    H212646   5.152   3.489   2.951
 4257TIP3   OH212647   5.212   3.033   1.625
 4257TIP3    H112648   5.203   3.039   1.720
 4257TIP3    H212649   5.134   3.076   1.590
 4258TIP3   OH212650   4.760   3.078   2.491
 4258TIP3    H112651   4.832   3.116   2.541
 4258TIP3    H212652   4.796   3.066   2.403
 4259TIP3   OH212653   4.657   3.057   1.988
 4259TIP3    H112654   4.702   3.093   1.911
 4259TIP3    H212655   4.593   3.125   2.011
 4260TIP3   OH212656   5.908   3.767   2.581
 4260TIP3    H112657   5.930   3.700   2.517
 4260TIP3    H212658   5.860   3.720   2.650
 4261TIP3   OH212659   5.579   3.210   2.256
 4261TIP3    H112660   5.501   3.210   2.312
 4261TIP3    H212661   5.652   3.202   2.318
 4262TIP3   OH212662   4.971   3.299   2.266
 4262TIP3    H112663   4.883   3.304   2.227
 4262TIP3    H212664   5.000   3.210   2.249
 4263TIP3   OH212665   5.224   3.304   1.960
 4263TIP3    H112666   5.318   3.313   1.951
 4263TIP3    H212667   5.189   3.321   1.872
 4264TIP3   OH212668   6.015   3.302   2.466
 4264TIP3    H112669   5.996   3.320   2.558
 4264TIP3    H212670   5.948   3.239   2.439
 4265TIP3   OH212671   5.115   3.324   1.710
 4265TIP3    H112672   5.053   3.274   1.657
 4265TIP3    H212673   5.168   3.371   1.646
 4266TIP3   OH212674   6.224   5.007   2.683
 4266TIP3    H112675   6.218   5.024   2.589
 4266TIP3    H212676   6.303   5.053   2.711
 4267TIP3   OH212677   5.162   4.114   3.096
 4267TIP3    H112678   5.243   4.136   3.143
 4267TIP3    H212679   5.093   4.127   3.161
 4268TIP3   OH212680   5.624   3.587   2.363
 4268TIP3    H112681   5.691   3.541   2.313
 4268TIP3    H212682   5.624   3.544   2.448
 4269TIP3   OH212683   5.112   3.051   2.247
 4269TIP3    H112684   5.085   2.975   2.298
 4269TIP3    H212685   5.131   3.016   2.160
 4270TIP3   OH212686   5.597   3.487   2.627
 4270TIP3    H112687   5.511   3.521   2.649
 4270TIP3    H212688   5.658   3.540   2.678
 4271TIP3   OH212689   5.328   3.834   1.741
 4271TIP3    H112690   5.252   3.781   1.714
 4271TIP3    H212691   5.300   3.878   1.821
 4272TIP3   OH212692   6.222   4.099   2.346
 4272TIP3    H112693   6.260   4.147   2.272
 4272TIP3    H212694   6.143   4.058   2.309
 4273TIP3   OH212695   5.797   3.157   1.655
 4273TIP3    H112696   5.704   3.135   1.649
 4273TIP3    H212697   5.799   3.252   1.665
 4274TIP3   OH212698   5.739   4.183   2.764
 4274TIP3    H112699   5.795   4.174   2.841
 4274TIP3    H212700   5.702   4.271   2.770
 4275TIP3   OH212701   5.854   3.424   1.719
 4275TIP3    H112702   5.949   3.428   1.730
 4275TIP3    H212703   5.833   3.502   1.667
 4276TIP3   OH212704   5.016   3.849   2.385
 4276TIP3    H112705   5.055   3.833   2.299
 4276TIP3    H212706   5.084   3.823   2.447
 4277TIP3   OH212707   5.483   3.997   1.586
 4277TIP3    H112708   5.435   4.079   1.582
 4277TIP3    H212709   5.427   3.939   1.639
 4278TIP3   OH212710   4.901   3.783   3.024
 4278TIP3    H112711   4.900   3.755   3.115
 4278TIP3    H212712   4.825   3.740   2.985
 4279TIP3   OH212713   5.651   3.921   3.049
 4279TIP3    H112714   5.580   3.863   3.020
 4279TIP3    H212715   5.731   3.880   3.016
 4280TIP3   OH212716   5.885   4.472   2.652
 4280TIP3    H112717   5.790   4.461   2.654
 4280TIP3    H212718   5.907   4.509   2.737
 4281TIP3   OH212719   6.263   3.508   1.531
 4281TIP3    H112720   6.207   3.461   1.468
 4281TIP3    H212721   6.269   3.597   1.497
 4282TIP3   OH212722   6.521   4.384   2.617
 4282TIP3    H112723   6.427   4.369   2.608
 4282TIP3    H212724   6.559   4.356   2.534
 4283TIP3   OH212725   6.013   4.327   1.468
 4283TIP3    H112726   5.986   4.258   1.528
 4283TIP3    H212727   6.033   4.282   1.386
 4284TIP3   OH212728   5.995   3.963   2.241
 4284TIP3    H112729   5.905   3.942   2.266
 4284TIP3    H212730   6.028   3.881   2.203
 4285TIP3   OH212731   5.152   4.200   2.060
 4285TIP3    H112732   5.148   4.275   2.001
 4285TIP3    H212733   5.065   4.196   2.099
 4286TIP3   OH212734   4.711   3.481   1.775
 4286TIP3    H112735   4.752   3.565   1.798
 4286TIP3    H212736   4.629   3.482   1.825
 4287TIP3   OH212737   5.223   3.954   1.958
 4287TIP3    H112738   5.210   4.044   1.990
 4287TIP3    H212739   5.200   3.899   2.032
 4288TIP3   OH212740   5.433   4.520   2.515
 4288TIP3    H112741   5.467   4.596   2.466
 4288TIP3    H212742   5.509   4.489   2.565
 4289TIP3   OH212743   5.065   4.421   1.909
 4289TIP3    H112744   4.978   4.429   1.948
 4289TIP3    H212745   5.102   4.509   1.915
 4290TIP3   OH212746   5.778   4.191   2.489
 4290TIP3    H112747   5.763   4.186   2.583
 4290TIP3    H212748   5.862   4.146   2.475
 4291TIP3   OH212749   5.779   4.064   1.355
 4291TIP3    H112750   5.830   4.035   1.431
 4291TIP3    H212751   5.695   4.017   1.363
 4292TIP3   OH212752   6.039   4.676   2.527
 4292TIP3    H112753   5.968   4.616   2.548
 4292TIP3    H212754   6.005   4.731   2.456
 4293TIP3   OH212755   6.093   4.528   1.175
 4293TIP3    H112756   6.146   4.605   1.153
 4293TIP3    H212757   6.010   4.564   1.206
 4294TIP3   OH212758   5.109   3.318   3.016
 4294TIP3    H112759   5.014   3.329   3.014
 4294TIP3    H212760   5.126   3.276   3.101
 4295TIP3   OH212761   5.954   3.974   1.545
 4295TIP3    H112762   5.939   3.922   1.624
 4295TIP3    H212763   6.049   3.984   1.541
 4296TIP3   OH212764   4.859   4.424   2.675
 4296TIP3    H112765   4.914   4.368   2.730
 4296TIP3    H212766   4.872   4.512   2.709
 4297TIP3   OH212767   5.125   4.026   1.373
 4297TIP3    H112768   5.137   3.934   1.347
 4297TIP3    H212769   5.114   4.022   1.468
 4298TIP3   OH212770   5.068   4.043   1.646
 4298TIP3    H112771   5.129   4.019   1.716
 4298TIP3    H212772   5.066   4.139   1.649
 4299TIP3   OH212773   4.802   3.734   1.855
 4299TIP3    H112774   4.738   3.783   1.906
 4299TIP3    H212775   4.822   3.791   1.781
 4300TIP3   OH212776   5.959   3.367   2.728
 4300TIP3    H112777   6.039   3.411   2.757
 4300TIP3    H212778   5.951   3.291   2.786
 4301TIP3   OH212779   5.859   3.107   1.921
 4301TIP3    H112780   5.838   3.126   1.830
 4301TIP3    H212781   5.903   3.187   1.952
 4302TIP3   OH212782   5.335   4.223   1.577
 4302TIP3    H112783   5.251   4.249   1.615
 4302TIP3    H212784   5.362   4.299   1.525
 4303TIP3   OH212785   5.503   3.308   2.007
 4303TIP3    H112786   5.565   3.376   1.980
 4303TIP3    H212787   5.529   3.286   2.096
 4304TIP3   OH212788   5.802   3.603   2.777
 4304TIP3    H112789   5.830   3.647   2.857
 4304TIP3    H212790   5.853   3.522   2.774
 4305TIP3   OH212791   5.669   3.001   2.091
 4305TIP3    H112792   5.645   3.078   2.143
 4305TIP3    H212793   5.740   3.031   2.035
 4306TIP3   OH212794   5.087   4.316   1.657
 4306TIP3    H112795   5.069   4.388   1.597
 4306TIP3    H212796   5.079   4.355   1.744
 4307TIP3   OH212797   5.180   3.030   1.906
 4307TIP3    H112798   5.169   3.121   1.931
 4307TIP3    H212799   5.275   3.015   1.911
 4308TIP3   OH212800   6.424   3.512   2.778
 4308TIP3    H112801   6.329   3.511   2.785
 4308TIP3    H212802   6.442   3.473   2.692
 4309TIP3   OH212803   6.084   3.703   2.155
 4309TIP3    H112804   6.008   3.646   2.166
 4309TIP3    H212805   6.151   3.664   2.211
 4310TIP3   OH212806   4.826   3.908   1.636
 4310TIP3    H112807   4.898   3.970   1.646
 4310TIP3    H212808   4.857   3.845   1.570
 4311TIP3   OH212809   4.729   3.203   1.768
 4311TIP3    H112810   4.742   3.297   1.777
 4311TIP3    H212811   4.674   3.194   1.689
 4312TIP3   OH212812   6.064   4.676   2.095
 4312TIP3    H112813   6.024   4.730   2.027
 4312TIP3    H212814   6.158   4.688   2.082
 4313TIP3   OH212815   5.133   2.927   2.631
 4313TIP3    H112816   5.104   2.898   2.544
 4313TIP3    H212817   5.122   2.851   2.687
 4314TIP3   OH212818   4.655   4.181   2.033
 4314TIP3    H112819   4.615   4.218   2.111
 4314TIP3    H212820   4.611   4.225   1.960
 4315TIP3   OH212821   4.862   4.722   3.094
 4315TIP3    H112822   4.943   4.729   3.144
 4315TIP3    H212823   4.851   4.628   3.078
 4316TIP3   OH212824   5.321   4.619   3.145
 4316TIP3    H112825   5.414   4.596   3.150
 4316TIP3    H212826   5.289   4.567   3.071
 4317TIP3   OH212827   5.277   4.229   1.261
 4317TIP3    H112828   5.231   4.159   1.307
 4317TIP3    H212829   5.353   4.186   1.221
 4318TIP3   OH212830   5.940   4.567   2.904
 4318TIP3    H112831   5.959   4.497   2.966
 4318TIP3    H212832   6.013   4.629   2.914
 4319TIP3   OH212833   5.720   4.270   1.184
 4319TIP3    H112834   5.756   4.206   1.247
 4319TIP3    H212835   5.779   4.264   1.109
 4320TIP3   OH212836   4.957   4.121   3.286
 4320TIP3    H112837   4.974   4.028   3.300
 4320TIP3    H212838   4.869   4.124   3.247
 4321TIP3   OH212839   4.945   3.719   1.478
 4321TIP3    H112840   4.995   3.694   1.556
 4321TIP3    H212841   5.011   3.733   1.410
 4322TIP3   OH212842   5.580   4.198   3.064
 4322TIP3    H112843   5.537   4.221   2.982
 4322TIP3    H212844   5.618   4.112   3.049
 4323TIP3   OH212845   5.527   3.940   1.322
 4323TIP3    H112846   5.503   3.950   1.414
 4323TIP3    H212847   5.506   3.849   1.301
 4324TIP3   OH212848   6.051   4.246   2.677
 4324TIP3    H112849   6.129   4.273   2.629
 4324TIP3    H212850   5.989   4.318   2.665
 4325TIP3   OH212851   5.070   3.865   3.299
 4325TIP3    H112852   5.142   3.851   3.238
 4325TIP3    H212853   5.112   3.885   3.383
 4326TIP3   OH212854   5.116   3.661   1.691
 4326TIP3    H112855   5.098   3.631   1.780
 4326TIP3    H212856   5.166   3.590   1.652
 4327TIP3   OH212857   5.442   3.749   2.957
 4327TIP3    H112858   5.355   3.787   2.969
 4327TIP3    H212859   5.470   3.779   2.871
 4328TIP3   OH212860   5.263   3.481   1.540
 4328TIP3    H112861   5.233   3.484   1.449
 4328TIP3    H212862   5.358   3.491   1.534
 4329TIP3   OH212863   5.935   4.120   3.026
 4329TIP3    H112864   6.004   4.082   2.971
 4329TIP3    H212865   5.932   4.063   3.103
 4330TIP3   OH212866   6.051   3.765   1.222
 4330TIP3    H112867   6.039   3.726   1.136
 4330TIP3    H212868   6.030   3.857   1.210
 4331TIP3   OH212869   5.544   3.514   3.059
 4331TIP3    H112870   5.546   3.446   2.991
 4331TIP3    H212871   5.511   3.592   3.013
 4332TIP3   OH212872   5.548   3.317   2.855
 4332TIP3    H112873   5.577   3.354   2.772
 4332TIP3    H212874   5.458   3.291   2.840
 4333TIP3   OH212875   5.548   3.850   2.728
 4333TIP3    H112876   5.635   3.889   2.718
 4333TIP3    H212877   5.490   3.906   2.676
 4334TIP3   OH212878   6.148   3.809   3.100
 4334TIP3    H112879   6.202   3.730   3.101
 4334TIP3    H212880   6.212   3.880   3.095
 4335TIP3   OH212881   6.173   4.068   2.842
 4335TIP3    H112882   6.120   4.130   2.791
 4335TIP3    H212883   6.262   4.082   2.812
 4336TIP3   OH212884   5.425   3.586   3.304
 4336TIP3    H112885   5.352   3.526   3.320
 4336TIP3    H212886   5.451   3.567   3.213
 4337TIP3   OH212887   5.663   3.092   2.973
 4337TIP3    H112888   5.627   3.172   2.934
 4337TIP3    H212889   5.598   3.025   2.953
 4338TIP3   OH212890   5.800   3.552   3.163
 4338TIP3    H112891   5.787   3.545   3.258
 4338TIP3    H212892   5.713   3.534   3.126
 4339TIP3   OH212893   6.047   3.509   3.035
 4339TIP3    H112894   5.969   3.511   3.090
 4339TIP3    H212895   6.119   3.490   3.095
 4340TIP3   OH212896   6.279   3.472   3.187
 4340TIP3    H112897   6.293   3.378   3.193
 4340TIP3    H212898   6.275   3.502   3.278
 4341TIP3   OH212899   5.255   3.359   3.366
 4341TIP3    H112900   5.258   3.266   3.341
 4341TIP3    H212901   5.289   3.361   3.455
 4342TIP3   OH212902   5.731   3.035   3.229
 4342TIP3    H112903   5.812   2.988   3.209
 4342TIP3    H212904   5.694   3.057   3.144
 4343TIP3   OH212905   5.829   3.269   3.364
 4343TIP3    H112906   5.801   3.209   3.295
 4343TIP3    H212907   5.761   3.336   3.368
 4344TIP3   OH212908   5.086   4.526   1.476
 4344TIP3    H112909   5.176   4.505   1.450
 4344TIP3    H212910   5.050   4.572   1.400
 4345TIP3   OH212911   4.552   3.913   1.649
 4345TIP3    H112912   4.648   3.922   1.648
 4345TIP3    H212913   4.535   3.827   1.611
 4346TIP3   OH212914   4.454   4.490   2.118
 4346TIP3    H112915   4.389   4.437   2.071
 4346TIP3    H212916   4.499   4.429   2.176
 4347TIP3   OH212917   4.600   4.320   2.282
 4347TIP3    H112918   4.593   4.252   2.348
 4347TIP3    H212919   4.654   4.388   2.323
 4348TIP3   OH212920   6.337   4.723   2.090
 4348TIP3    H112921   6.356   4.756   2.178
 4348TIP3    H212922   6.394   4.775   2.033
 4349TIP3   OH212923   6.348   4.765   2.372
 4349TIP3    H112924   6.303   4.680   2.366
 4349TIP3    H212925   6.419   4.750   2.434
 4350TIP3   OH212926   6.416   4.458   2.951
 4350TIP3    H112927   6.345   4.470   3.013
 4350TIP3    H212928   6.462   4.542   2.949
 4351TIP3   OH212929   6.234   3.976   1.550
 4351TIP3    H112930   6.290   4.047   1.519
 4351TIP3    H212931   6.281   3.938   1.624
 4352TIP3   OH212932   6.366   3.833   1.750
 4352TIP3    H112933   6.299   3.799   1.809
 4352TIP3    H212934   6.432   3.871   1.808
 4353TIP3   OH212935   6.410   4.234   2.187
 4353TIP3    H112936   6.461   4.165   2.144
 4353TIP3    H212937   6.413   4.308   2.127
 4354TIP3   OH212938   6.212   4.521   2.377
 4354TIP3    H112939   6.146   4.567   2.428
 4354TIP3    H212940   6.163   4.482   2.304
 4355TIP3   OH212941   6.261   3.748   1.399
 4355TIP3    H112942   6.189   3.749   1.336
 4355TIP3    H212943   6.249   3.827   1.451
 4356TIP3   OH212944   6.114   3.391   1.332
 4356TIP3    H112945   6.069   3.429   1.257
 4356TIP3    H212946   6.108   3.296   1.319
 4357TIP3   OH212947   6.158   3.698   1.887
 4357TIP3    H112948   6.163   3.604   1.872
 4357TIP3    H212949   6.138   3.708   1.980
 4358TIP3   OH212950   4.771   3.753   2.664
 4358TIP3    H112951   4.762   3.724   2.574
 4358TIP3    H212952   4.866   3.750   2.681
 4359TIP3   OH212953   6.432   4.111   2.751
 4359TIP3    H112954   6.499   4.045   2.732
 4359TIP3    H212955   6.446   4.178   2.684
 4360TIP3   OH212956   6.610   3.898   2.740
 4360TIP3    H112957   6.537   3.859   2.787
 4360TIP3    H212958   6.685   3.843   2.762
 4361TIP3   OH212959   6.083   3.116   1.301
 4361TIP3    H112960   6.145   3.097   1.372
 4361TIP3    H212961   5.999   3.086   1.335
 4362TIP3   OH212962   6.146   3.418   1.774
 4362TIP3    H112963   6.192   3.336   1.787
 4362TIP3    H212964   6.185   3.456   1.696
 4363TIP3   OH212965   6.300   3.584   2.299
 4363TIP3    H112966   6.380   3.602   2.250
 4363TIP3    H212967   6.315   3.624   2.385
 4364TIP3   OH212968   6.375   3.732   2.528
 4364TIP3    H112969   6.303   3.761   2.584
 4364TIP3    H212970   6.405   3.811   2.485
 4365TIP3   OH212971   4.998   3.441   3.297
 4365TIP3    H112972   5.090   3.433   3.320
 4365TIP3    H212973   4.957   3.361   3.330
 4366TIP3   OH212974   6.837   3.326   3.065
 4366TIP3    H112975   6.903   3.272   3.022
 4366TIP3    H212976   6.798   3.378   2.994
 4367TIP3   OH212977   6.264   3.170   1.827
 4367TIP3    H112978   6.310   3.155   1.910
 4367TIP3    H212979   6.202   3.097   1.821
 4368TIP3   OH212980   4.972   3.153   2.656
 4368TIP3    H112981   5.026   3.074   2.658
 4368TIP3    H212982   5.034   3.223   2.635
 4369TIP3   OH212983   4.747   3.416   2.711
 4369TIP3    H112984   4.800   3.406   2.633
 4369TIP3    H212985   4.769   3.504   2.743
 4370TIP3   OH212986   6.686   3.446   2.872
 4370TIP3    H112987   6.604   3.487   2.901
 4370TIP3    H212988   6.657   3.373   2.817
 4371TIP3   OH212989   6.305   3.078   1.463
 4371TIP3    H112990   6.355   3.018   1.407
 4371TIP3    H212991   6.359   3.157   1.468
 4372TIP3   OH212992   4.737   2.931   2.217
 4372TIP3    H112993   4.652   2.917   2.258
 4372TIP3    H212994   4.718   2.983   2.139
 4373TIP3   OH212995   5.886   4.651   1.732
 4373TIP3    H112996   5.942   4.640   1.656
 4373TIP3    H212997   5.929   4.718   1.784
 4374TIP3   OH212998   4.968   2.975   3.043
 4374TIP3    H112999   4.916   2.972   3.123
 4374TIP3    H213000   4.915   3.026   2.982
 4375TIP3   OH213001   4.986   4.442   3.107
 4375TIP3    H113002   4.893   4.419   3.102
 4375TIP3    H213003   5.008   4.436   3.200
 4376TIP3   OH213004   5.205   4.488   2.664
 4376TIP3    H113005   5.155   4.563   2.632
 4376TIP3    H213006   5.290   4.496   2.620
 4377TIP3   OH213007   5.595   4.715   2.803
 4377TIP3    H113008   5.632   4.710   2.891
 4377TIP3    H213009   5.656   4.770   2.754
 4378TIP3   OH213010   5.786   4.870   2.679
 4378TIP3    H113011   5.845   4.822   2.620
 4378TIP3    H213012   5.843   4.925   2.732
 4379TIP3   OH213013   6.596   3.204   2.758
 4379TIP3    H113014   6.515   3.208   2.706
 4379TIP3    H213015   6.624   3.112   2.750
 4380TIP3   OH213016   4.863   4.715   2.714
 4380TIP3    H113017   4.772   4.732   2.690
 4380TIP3    H213018   4.885   4.784   2.776
 4381TIP3   OH213019   5.092   4.717   2.560
 4381TIP3    H113020   5.009   4.719   2.607
 4381TIP3    H213021   5.070   4.741   2.470
 4382TIP3   OH213022   5.504   4.736   2.357
 4382TIP3    H113023   5.434   4.749   2.293
 4382TIP3    H213024   5.516   4.821   2.398
 4383TIP3   OH213025   5.766   4.666   2.405
 4383TIP3    H113026   5.676   4.690   2.385
 4383TIP3    H213027   5.819   4.731   2.359
 4384TIP3   OH213028   5.967   4.829   2.303
 4384TIP3    H113029   5.970   4.919   2.269
 4384TIP3    H213030   5.999   4.775   2.230
 4385TIP3   OH213031   4.774   4.501   2.422
 4385TIP3    H113032   4.799   4.479   2.512
 4385TIP3    H213033   4.846   4.469   2.368
 4386TIP3   OH213034   4.979   4.387   2.284
 4386TIP3    H113035   4.990   4.302   2.326
 4386TIP3    H213036   5.065   4.428   2.290
 4387TIP3   OH213037   5.246   4.470   2.313
 4387TIP3    H113038   5.267   4.378   2.298
 4387TIP3    H213039   5.302   4.496   2.387
 4388TIP3   OH213040   5.806   3.116   2.398
 4388TIP3    H113041   5.764   3.046   2.448
 4388TIP3    H213042   5.874   3.072   2.348
 4389TIP3   OH213043   6.308   3.040   2.287
 4389TIP3    H113044   6.344   3.088   2.213
 4389TIP3    H213045   6.215   3.062   2.288
 4390TIP3   OH213046   6.422   3.115   2.049
 4390TIP3    H113047   6.489   3.052   2.022
 4390TIP3    H213048   6.463   3.201   2.036
 4391TIP3   OH213049   5.042   2.823   2.392
 4391TIP3    H113050   4.953   2.789   2.401
 4391TIP3    H213051   5.097   2.745   2.384
 4392TIP3   OH213052   4.869   2.736   2.053
 4392TIP3    H113053   4.894   2.784   1.974
 4392TIP3    H213054   4.831   2.804   2.110
 4393TIP3   OH213055   5.527   2.861   2.293
 4393TIP3    H113056   5.574   2.906   2.223
 4393TIP3    H213057   5.570   2.891   2.373
 4394TIP3   OH213058   6.019   2.989   2.275
 4394TIP3    H113059   6.040   2.953   2.188
 4394TIP3    H213060   6.030   2.915   2.334
 4395TIP3   OH213061   6.079   2.958   1.836
 4395TIP3    H113062   6.001   3.005   1.862
 4395TIP3    H213063   6.069   2.871   1.873
 4396TIP3   OH213064   4.536   4.304   1.818
 4396TIP3    H113065   4.453   4.268   1.788
 4396TIP3    H213066   4.539   4.392   1.781
 4397TIP3   OH213067   4.974   2.859   1.813
 4397TIP3    H113068   5.021   2.798   1.756
 4397TIP3    H213069   5.043   2.916   1.848
 4398TIP3   OH213070   5.455   3.056   1.909
 4398TIP3    H113071   5.515   3.003   1.961
 4398TIP3    H213072   5.471   3.146   1.938
 4399TIP3   OH213073   5.341   4.451   1.407
 4399TIP3    H113074   5.424   4.478   1.369
 4399TIP3    H213075   5.311   4.380   1.350
 4400TIP3   OH213076   6.039   4.597   1.505
 4400TIP3    H113077   6.034   4.502   1.497
 4400TIP3    H213078   5.997   4.629   1.425
 4401TIP3   OH213079   5.277   3.071   3.319
 4401TIP3    H113080   5.243   3.004   3.379
 4401TIP3    H213081   5.367   3.086   3.348
 4402TIP3   OH213082   5.532   3.109   3.421
 4402TIP3    H113083   5.594   3.105   3.348
 4402TIP3    H213084   5.564   3.044   3.484
 4403TIP3   OH213085   4.657   4.298   1.463
 4403TIP3    H113086   4.660   4.306   1.559
 4403TIP3    H213087   4.736   4.249   1.440
 4404TIP3   OH213088   6.340   3.199   3.186
 4404TIP3    H113089   6.358   3.169   3.275
 4404TIP3    H213090   6.425   3.196   3.142
 4405TIP3   OH213091   6.257   4.733   2.694
 4405TIP3    H113092   6.184   4.704   2.640
 4405TIP3    H213093   6.246   4.828   2.698
 4406TIP3   OH213094   7.539   4.098   1.437
 4406TIP3    H113095   7.488   4.170   1.474
 4406TIP3    H213096   7.473   4.039   1.400
 4407TIP3   OH213097   7.549   4.149   1.786
 4407TIP3    H113098   7.504   4.083   1.839
 4407TIP3    H213099   7.490   4.166   1.713
 4408TIP3   OH213100   6.832   3.970   2.204
 4408TIP3    H113101   6.875   3.919   2.273
 4408TIP3    H213102   6.904   3.997   2.146
 4409TIP3   OH213103   7.818   4.422   1.521
 4409TIP3    H113104   7.805   4.356   1.588
 4409TIP3    H213105   7.829   4.504   1.569
 4410TIP3   OH213106   6.805   4.402   1.898
 4410TIP3    H113107   6.789   4.308   1.898
 4410TIP3    H213108   6.898   4.410   1.877
 4411TIP3   OH213109   6.504   3.601   1.667
 4411TIP3    H113110   6.470   3.687   1.692
 4411TIP3    H213111   6.429   3.556   1.626
 4412TIP3   OH213112   6.589   3.920   1.895
 4412TIP3    H113113   6.642   3.843   1.918
 4412TIP3    H213114   6.654   3.988   1.875
 4413TIP3   OH213115   7.456   4.858   1.560
 4413TIP3    H113116   7.513   4.803   1.506
 4413TIP3    H213117   7.433   4.803   1.635
 4414TIP3   OH213118   7.310   4.353   1.839
 4414TIP3    H113119   7.315   4.326   1.747
 4414TIP3    H213120   7.399   4.381   1.860
 4415TIP3   OH213121   8.379   3.647   1.875
 4415TIP3    H113122   8.381   3.737   1.907
 4415TIP3    H213123   8.414   3.652   1.786
 4416TIP3   OH213124   7.734   3.828   1.899
 4416TIP3    H113125   7.768   3.743   1.925
 4416TIP3    H213126   7.705   3.816   1.808
 4417TIP3   OH213127   7.098   3.478   1.853
 4417TIP3    H113128   7.078   3.552   1.796
 4417TIP3    H213129   7.042   3.408   1.821
 4418TIP3   OH213130   7.798   3.590   1.497
 4418TIP3    H113131   7.862   3.582   1.568
 4418TIP3    H213132   7.848   3.625   1.424
 4419TIP3   OH213133   6.728   3.695   1.985
 4419TIP3    H113134   6.813   3.681   2.026
 4419TIP3    H213135   6.732   3.645   1.904
 4420TIP3   OH213136   7.140   3.888   1.813
 4420TIP3    H113137   7.233   3.865   1.818
 4420TIP3    H213138   7.099   3.812   1.770
 4421TIP3   OH213139   8.404   3.867   2.054
 4421TIP3    H113140   8.339   3.928   2.019
 4421TIP3    H213141   8.362   3.829   2.131
 4422TIP3   OH213142   7.083   3.487   2.306
 4422TIP3    H113143   7.037   3.525   2.231
 4422TIP3    H213144   7.027   3.506   2.381
 4423TIP3   OH213145   7.178   4.263   2.062
 4423TIP3    H113146   7.125   4.335   2.096
 4423TIP3    H213147   7.221   4.299   1.985
 4424TIP3   OH213148   7.957   3.605   1.721
 4424TIP3    H113149   7.909   3.592   1.802
 4424TIP3    H213150   8.014   3.680   1.739
 4425TIP3   OH213151   6.977   3.595   2.075
 4425TIP3    H113152   7.032   3.671   2.095
 4425TIP3    H213153   7.022   3.552   2.002
 4426TIP3   OH213154   7.024   4.465   2.175
 4426TIP3    H113155   7.010   4.553   2.142
 4426TIP3    H213156   6.946   4.446   2.227
 4427TIP3   OH213157   6.401   4.168   1.433
 4427TIP3    H113158   6.366   4.198   1.349
 4427TIP3    H213159   6.427   4.248   1.479
 4428TIP3   OH213160   7.844   4.671   1.662
 4428TIP3    H113161   7.762   4.658   1.710
 4428TIP3    H213162   7.831   4.751   1.612
 4429TIP3   OH213163   8.178   3.542   2.043
 4429TIP3    H113164   8.093   3.553   2.001
 4429TIP3    H213165   8.242   3.565   1.976
 4430TIP3   OH213166   7.426   3.179   2.046
 4430TIP3    H113167   7.417   3.087   2.071
 4430TIP3    H213168   7.349   3.222   2.083
 4431TIP3   OH213169   7.626   4.732   1.391
 4431TIP3    H113170   7.641   4.645   1.355
 4431TIP3    H213171   7.663   4.792   1.326
 4432TIP3   OH213172   7.697   4.488   1.282
 4432TIP3    H113173   7.706   4.415   1.220
 4432TIP3    H213174   7.739   4.457   1.362
 4433TIP3   OH213175   8.076   4.553   2.018
 4433TIP3    H113176   8.052   4.480   1.961
 4433TIP3    H213177   8.060   4.631   1.966
 4434TIP3   OH213178   7.366   3.947   1.279
 4434TIP3    H113179   7.297   4.013   1.269
 4434TIP3    H213180   7.413   3.950   1.195
 4435TIP3   OH213181   7.334   3.778   0.960
 4435TIP3    H113182   7.400   3.826   1.010
 4435TIP3    H213183   7.382   3.707   0.917
 4436TIP3   OH213184   8.255   4.229   1.875
 4436TIP3    H113185   8.171   4.275   1.873
 4436TIP3    H213186   8.286   4.233   1.785
 4437TIP3   OH213187   7.719   4.065   1.237
 4437TIP3    H113188   7.661   4.085   1.311
 4437TIP3    H213189   7.800   4.034   1.278
 4438TIP3   OH213190   7.963   4.083   2.197
 4438TIP3    H113191   7.953   4.166   2.243
 4438TIP3    H213192   7.880   4.071   2.151
 4439TIP3   OH213193   6.916   4.012   1.667
 4439TIP3    H113194   6.898   3.966   1.585
 4439TIP3    H213195   7.007   3.989   1.686
 4440TIP3   OH213196   7.057   4.456   1.793
 4440TIP3    H113197   7.030   4.443   1.702
 4440TIP3    H213198   7.144   4.416   1.798
 4441TIP3   OH213199   7.040   4.028   2.027
 4441TIP3    H113200   7.075   3.989   1.947
 4441TIP3    H213201   7.090   4.109   2.037
 4442TIP3   OH213202   7.624   4.654   1.818
 4442TIP3    H113203   7.599   4.729   1.871
 4442TIP3    H213204   7.597   4.578   1.870
 4443TIP3   OH213205   7.220   4.559   2.348
 4443TIP3    H113206   7.158   4.615   2.393
 4443TIP3    H213207   7.166   4.508   2.287
 4444TIP3   OH213208   7.554   3.917   1.072
 4444TIP3    H113209   7.612   3.977   1.119
 4444TIP3    H213210   7.578   3.927   0.980
 4445TIP3   OH213211   6.973   4.100   2.502
 4445TIP3    H113212   6.979   4.195   2.515
 4445TIP3    H213213   6.880   4.083   2.490
 4446TIP3   OH213214   7.325   4.553   1.325
 4446TIP3    H113215   7.367   4.479   1.369
 4446TIP3    H213216   7.244   4.567   1.376
 4447TIP3   OH213217   7.009   4.716   2.433
 4447TIP3    H113218   6.986   4.728   2.341
 4447TIP3    H213219   6.926   4.703   2.478
 4448TIP3   OH213220   8.059   3.151   1.194
 4448TIP3    H113221   7.977   3.184   1.231
 4448TIP3    H213222   8.073   3.204   1.115
 4449TIP3   OH213223   6.826   3.871   1.436
 4449TIP3    H113224   6.745   3.915   1.411
 4449TIP3    H213225   6.799   3.781   1.455
 4450TIP3   OH213226   7.874   4.485   0.691
 4450TIP3    H113227   7.879   4.579   0.675
 4450TIP3    H213228   7.964   4.454   0.684
 4451TIP3   OH213229   6.609   4.278   2.383
 4451TIP3    H113230   6.540   4.260   2.318
 4451TIP3    H213231   6.643   4.191   2.405
 4452TIP3   OH213232   6.456   4.466   2.034
 4452TIP3    H113233   6.550   4.484   2.037
 4452TIP3    H213234   6.415   4.545   2.068
 4453TIP3   OH213235   8.314   4.935   2.090
 4453TIP3    H113236   8.318   4.840   2.098
 4453TIP3    H213237   8.233   4.959   2.135
 4454TIP3   OH213238   7.409   4.703   2.211
 4454TIP3    H113239   7.399   4.795   2.238
 4454TIP3    H213240   7.342   4.656   2.260
 4455TIP3   OH213241   7.170   4.844   1.125
 4455TIP3    H113242   7.106   4.832   1.055
 4455TIP3    H213243   7.132   4.912   1.181
 4456TIP3   OH213244   6.618   4.654   1.552
 4456TIP3    H113245   6.670   4.649   1.632
 4456TIP3    H213246   6.576   4.568   1.546
 4457TIP3   OH213247   7.379   4.705   0.823
 4457TIP3    H113248   7.435   4.635   0.788
 4457TIP3    H213249   7.398   4.706   0.917
 4458TIP3   OH213250   7.404   4.711   1.104
 4458TIP3    H113251   7.324   4.761   1.120
 4458TIP3    H213252   7.411   4.652   1.179
 4459TIP3   OH213253   8.199   4.031   2.345
 4459TIP3    H113254   8.116   4.046   2.300
 4459TIP3    H213255   8.210   3.936   2.344
 4460TIP3   OH213256   6.810   4.465   2.350
 4460TIP3    H113257   6.860   4.449   2.430
 4460TIP3    H213258   6.736   4.404   2.355
 4461TIP3   OH213259   7.187   3.269   2.166
 4461TIP3    H113260   7.104   3.236   2.133
 4461TIP3    H213261   7.164   3.351   2.210
 4462TIP3   OH213262   7.727   3.391   2.365
 4462TIP3    H113263   7.794   3.371   2.431
 4462TIP3    H213264   7.644   3.378   2.410
 4463TIP3   OH213265   7.972   3.818   2.295
 4463TIP3    H113266   7.923   3.810   2.377
 4463TIP3    H213267   7.945   3.903   2.260
 4464TIP3   OH213268   7.621   3.927   0.810
 4464TIP3    H113269   7.581   3.920   0.724
 4464TIP3    H213270   7.710   3.959   0.793
 4465TIP3   OH213271   7.335   3.314   1.140
 4465TIP3    H113272   7.297   3.317   1.227
 4465TIP3    H213273   7.302   3.233   1.101
 4466TIP3   OH213274   7.130   3.806   2.171
 4466TIP3    H113275   7.085   3.815   2.255
 4466TIP3    H213276   7.108   3.887   2.124
 4467TIP3   OH213277   7.003   3.677   1.692
 4467TIP3    H113278   6.913   3.657   1.716
 4467TIP3    H213279   7.012   3.646   1.602
 4468TIP3   OH213280   7.483   3.750   1.425
 4468TIP3    H113281   7.433   3.820   1.384
 4468TIP3    H213282   7.545   3.723   1.358
 4469TIP3   OH213283   7.675   4.019   2.494
 4469TIP3    H113284   7.649   3.953   2.558
 4469TIP3    H213285   7.767   4.038   2.514
 4470TIP3   OH213286   7.657   3.779   1.644
 4470TIP3    H113287   7.583   3.801   1.587
 4470TIP3    H213288   7.700   3.705   1.600
 4471TIP3   OH213289   6.973   3.822   2.396
 4471TIP3    H113290   6.982   3.888   2.464
 4471TIP3    H213291   6.953   3.741   2.444
 4472TIP3   OH213292   7.003   3.292   1.115
 4472TIP3    H113293   6.994   3.298   1.210
 4472TIP3    H213294   6.925   3.337   1.081
 4473TIP3   OH213295   6.558   3.336   1.980
 4473TIP3    H113296   6.629   3.375   2.032
 4473TIP3    H213297   6.595   3.330   1.892
 4474TIP3   OH213298   6.453   3.313   1.474
 4474TIP3    H113299   6.498   3.348   1.397
 4474TIP3    H213300   6.390   3.380   1.498
 4475TIP3   OH213301   7.721   4.021   2.092
 4475TIP3    H113302   7.725   3.967   2.013
 4475TIP3    H213303   7.661   3.975   2.150
 4476TIP3   OH213304   7.363   3.466   1.749
 4476TIP3    H113305   7.284   3.472   1.803
 4476TIP3    H213306   7.435   3.474   1.812
 4477TIP3   OH213307   6.763   3.555   1.753
 4477TIP3    H113308   6.676   3.559   1.714
 4477TIP3    H213309   6.793   3.466   1.735
 4478TIP3   OH213310   7.017   3.558   1.445
 4478TIP3    H113311   7.112   3.571   1.438
 4478TIP3    H213312   6.984   3.577   1.357
 4479TIP3   OH213313   7.816   3.568   1.958
 4479TIP3    H113314   7.802   3.587   2.051
 4479TIP3    H213315   7.743   3.510   1.935
 4480TIP3   OH213316   6.912   3.585   1.194
 4480TIP3    H113317   6.850   3.538   1.138
 4480TIP3    H213318   6.963   3.638   1.134
 4481TIP3   OH213319   8.014   5.269   2.170
 4481TIP3    H113320   8.011   5.272   2.074
 4481TIP3    H213321   8.092   5.319   2.193
 4482TIP3   OH213322   6.957   4.370   2.584
 4482TIP3    H113323   7.038   4.392   2.630
 4482TIP3    H213324   6.888   4.384   2.649
 4483TIP3   OH213325   7.401   3.803   1.856
 4483TIP3    H113326   7.489   3.791   1.820
 4483TIP3    H213327   7.407   3.770   1.946
 4484TIP3   OH213328   6.904   3.307   1.734
 4484TIP3    H113329   6.877   3.231   1.786
 4484TIP3    H213330   6.921   3.272   1.647
 4485TIP3   OH213331   7.393   3.733   2.128
 4485TIP3    H113332   7.307   3.772   2.142
 4485TIP3    H213333   7.454   3.790   2.175
 4486TIP3   OH213334   7.169   4.142   1.269
 4486TIP3    H113335   7.089   4.094   1.289
 4486TIP3    H213336   7.194   4.184   1.351
 4487TIP3   OH213337   8.020   4.361   1.832
 4487TIP3    H113338   8.052   4.411   1.757
 4487TIP3    H213339   7.942   4.316   1.800
 4488TIP3   OH213340   7.581   3.431   1.155
 4488TIP3    H113341   7.488   3.409   1.150
 4488TIP3    H213342   7.583   3.526   1.166
 4489TIP3   OH213343   7.535   4.434   2.236
 4489TIP3    H113344   7.590   4.432   2.314
 4489TIP3    H213345   7.494   4.521   2.238
 4490TIP3   OH213346   7.650   3.694   1.210
 4490TIP3    H113347   7.745   3.698   1.217
 4490TIP3    H213348   7.626   3.769   1.155
 4491TIP3   OH213349   6.800   4.112   1.890
 4491TIP3    H113350   6.834   4.089   1.803
 4491TIP3    H213351   6.872   4.090   1.950
 4492TIP3   OH213352   7.286   4.256   1.036
 4492TIP3    H113353   7.246   4.342   1.045
 4492TIP3    H213354   7.257   4.208   1.114
 4493TIP3   OH213355   6.697   4.041   2.512
 4493TIP3    H113356   6.697   4.012   2.604
 4493TIP3    H213357   6.622   3.996   2.473
 4494TIP3   OH213358   7.445   4.179   2.536
 4494TIP3    H113359   7.374   4.122   2.506
 4494TIP3    H213360   7.525   4.137   2.504
 4495TIP3   OH213361   7.678   4.730   2.141
 4495TIP3    H113362   7.584   4.717   2.143
 4495TIP3    H213363   7.701   4.764   2.227
 4496TIP3   OH213364   8.065   3.778   1.026
 4496TIP3    H113365   7.997   3.740   0.972
 4496TIP3    H213366   8.076   3.867   0.992
 4497TIP3   OH213367   8.320   4.656   2.098
 4497TIP3    H113368   8.226   4.636   2.101
 4497TIP3    H213369   8.351   4.615   2.017
 4498TIP3   OH213370   7.815   4.549   0.960
 4498TIP3    H113371   7.784   4.476   1.014
 4498TIP3    H213372   7.829   4.511   0.873
 4499TIP3   OH213373   7.811   4.217   1.720
 4499TIP3    H113374   7.720   4.199   1.746
 4499TIP3    H213375   7.842   4.134   1.684
 4500TIP3   OH213376   6.928   4.465   1.552
 4500TIP3    H113377   6.907   4.538   1.493
 4500TIP3    H213378   6.881   4.390   1.515
 4501TIP3   OH213379   6.498   3.738   1.257
 4501TIP3    H113380   6.542   3.820   1.279
 4501TIP3    H213381   6.418   3.738   1.309
 4502TIP3   OH213382   7.227   4.773   2.003
 4502TIP3    H113383   7.263   4.847   1.954
 4502TIP3    H213384   7.301   4.737   2.051
 4503TIP3   OH213385   6.839   4.675   1.393
 4503TIP3    H113386   6.754   4.677   1.438
 4503TIP3    H213387   6.877   4.761   1.410
 4504TIP3   OH213388   7.563   4.419   1.958
 4504TIP3    H113389   7.558   4.417   2.054
 4504TIP3    H213390   7.610   4.338   1.935
 4505TIP3   OH213391   7.561   4.307   0.877
 4505TIP3    H113392   7.622   4.302   0.950
 4505TIP3    H213393   7.475   4.290   0.916
 4506TIP3   OH213394   7.842   4.923   2.021
 4506TIP3    H113395   7.773   4.861   2.046
 4506TIP3    H213396   7.802   4.980   1.956
 4507TIP3   OH213397   7.909   4.755   0.649
 4507TIP3    H113398   7.950   4.801   0.576
 4507TIP3    H213399   7.831   4.806   0.669
 4508TIP3   OH213400   6.913   3.567   2.512
 4508TIP3    H113401   6.817   3.576   2.515
 4508TIP3    H213402   6.935   3.516   2.590
 4509TIP3   OH213403   7.754   4.287   1.077
 4509TIP3    H113404   7.730   4.212   1.133
 4509TIP3    H213405   7.847   4.274   1.058
 4510TIP3   OH213406   6.652   4.684   2.165
 4510TIP3    H113407   6.708   4.626   2.217
 4510TIP3    H213408   6.669   4.771   2.202
 4511TIP3   OH213409   6.900   4.274   0.867
 4511TIP3    H113410   6.919   4.185   0.836
 4511TIP3    H213411   6.894   4.265   0.962
 4512TIP3   OH213412   6.877   4.288   1.141
 4512TIP3    H113413   6.960   4.260   1.178
 4512TIP3    H213414   6.878   4.383   1.147
 4513TIP3   OH213415   6.592   3.987   1.339
 4513TIP3    H113416   6.529   4.036   1.392
 4513TIP3    H213417   6.614   4.046   1.267
 4514TIP3   OH213418   7.772   3.626   2.224
 4514TIP3    H113419   7.849   3.667   2.264
 4514TIP3    H213420   7.756   3.548   2.277
 4515TIP3   OH213421   7.637   3.378   1.420
 4515TIP3    H113422   7.619   3.395   1.328
 4515TIP3    H213423   7.681   3.458   1.450
 4516TIP3   OH213424   7.150   4.489   1.075
 4516TIP3    H113425   7.061   4.514   1.101
 4516TIP3    H213426   7.206   4.558   1.110
 4517TIP3   OH213427   7.295   3.563   1.496
 4517TIP3    H113428   7.357   3.631   1.470
 4517TIP3    H213429   7.316   3.544   1.587
 4518TIP3   OH213430   7.595   3.854   2.274
 4518TIP3    H113431   7.623   3.902   2.352
 4518TIP3    H213432   7.653   3.777   2.273
 4519TIP3   OH213433   7.457   3.262   1.590
 4519TIP3    H113434   7.429   3.337   1.642
 4519TIP3    H213435   7.526   3.297   1.533
 4520TIP3   OH213436   6.893   4.559   1.155
 4520TIP3    H113437   6.875   4.631   1.095
 4520TIP3    H213438   6.874   4.596   1.242
 4521TIP3   OH213439   6.975   3.285   1.395
 4521TIP3    H113440   6.965   3.377   1.420
 4521TIP3    H213441   7.069   3.268   1.401
 4522TIP3   OH213442   8.224   3.744   2.230
 4522TIP3    H113443   8.136   3.767   2.257
 4522TIP3    H213444   8.212   3.674   2.166
 4523TIP3   OH213445   7.887   3.954   1.639
 4523TIP3    H113446   7.806   3.905   1.652
 4523TIP3    H213447   7.950   3.911   1.698
 4524TIP3   OH213448   6.626   4.166   1.128
 4524TIP3    H113449   6.700   4.225   1.142
 4524TIP3    H213450   6.658   4.103   1.063
 4525TIP3   OH213451   6.521   3.460   1.253
 4525TIP3    H113452   6.536   3.554   1.264
 4525TIP3    H213453   6.467   3.453   1.174
 4526TIP3   OH213454   7.849   4.953   1.597
 4526TIP3    H113455   7.807   5.007   1.530
 4526TIP3    H213456   7.943   4.966   1.584
 4527TIP3   OH213457   6.926   3.183   2.122
 4527TIP3    H113458   6.896   3.152   2.036
 4527TIP3    H213459   6.915   3.108   2.180
 4528TIP3   OH213460   6.454   4.424   1.537
 4528TIP3    H113461   6.415   4.465   1.614
 4528TIP3    H213462   6.409   4.465   1.463
 4529TIP3   OH213463   6.660   4.974   2.584
 4529TIP3    H113464   6.741   4.979   2.634
 4529TIP3    H213465   6.647   4.880   2.569
 4530TIP3   OH213466   7.120   4.876   2.629
 4530TIP3    H113467   7.211   4.847   2.637
 4530TIP3    H213468   7.085   4.823   2.557
 4531TIP3   OH213469   7.082   4.446   0.761
 4531TIP3    H113470   7.014   4.396   0.805
 4531TIP3    H213471   7.156   4.386   0.755
 4532TIP3   OH213472   7.738   4.824   2.390
 4532TIP3    H113473   7.754   4.754   2.454
 4532TIP3    H213474   7.812   4.884   2.401
 4533TIP3   OH213475   7.519   4.516   0.693
 4533TIP3    H113476   7.557   4.446   0.746
 4533TIP3    H213477   7.571   4.517   0.613
 4534TIP3   OH213478   6.751   4.376   2.773
 4534TIP3    H113479   6.769   4.282   2.786
 4534TIP3    H213480   6.665   4.379   2.733
 4535TIP3   OH213481   6.751   3.977   0.976
 4535TIP3    H113482   6.806   3.962   1.053
 4535TIP3    H213483   6.813   3.988   0.904
 4536TIP3   OH213484   7.376   4.457   2.551
 4536TIP3    H113485   7.332   4.479   2.469
 4536TIP3    H213486   7.413   4.370   2.536
 4537TIP3   OH213487   7.249   4.213   0.769
 4537TIP3    H113488   7.259   4.222   0.864
 4537TIP3    H213489   7.252   4.118   0.753
 4538TIP3   OH213490   7.851   4.511   2.179
 4538TIP3    H113491   7.926   4.535   2.125
 4538TIP3    H213492   7.784   4.576   2.157
 4539TIP3   OH213493   6.865   4.119   2.785
 4539TIP3    H113494   6.937   4.108   2.723
 4539TIP3    H213495   6.908   4.141   2.868
 4540TIP3   OH213496   6.933   3.944   1.187
 4540TIP3    H113497   6.909   3.909   1.273
 4540TIP3    H213498   6.986   3.874   1.148
 4541TIP3   OH213499   7.239   4.006   2.440
 4541TIP3    H113500   7.152   4.045   2.451
 4541TIP3    H213501   7.268   4.038   2.354
 4542TIP3   OH213502   7.063   3.749   1.031
 4542TIP3    H113503   7.029   3.752   0.942
 4542TIP3    H213504   7.158   3.756   1.021
 4543TIP3   OH213505   7.731   4.377   2.520
 4543TIP3    H113506   7.797   4.337   2.463
 4543TIP3    H213507   7.727   4.319   2.596
 4544TIP3   OH213508   7.859   4.020   0.705
 4544TIP3    H113509   7.846   3.976   0.621
 4544TIP3    H213510   7.824   4.108   0.692
 4545TIP3   OH213511   7.338   3.772   2.545
 4545TIP3    H113512   7.339   3.702   2.480
 4545TIP3    H213513   7.306   3.849   2.497
 4546TIP3   OH213514   7.342   3.568   2.348
 4546TIP3    H113515   7.370   3.609   2.267
 4546TIP3    H213516   7.251   3.543   2.333
 4547TIP3   OH213517   7.349   4.113   2.216
 4547TIP3    H113518   7.435   4.154   2.205
 4547TIP3    H213519   7.291   4.166   2.161
 4548TIP3   OH213520   7.942   4.066   2.591
 4548TIP3    H113521   7.998   3.988   2.592
 4548TIP3    H213522   8.004   4.139   2.586
 4549TIP3   OH213523   7.964   4.326   2.339
 4549TIP3    H113524   7.911   4.389   2.291
 4549TIP3    H213525   8.053   4.340   2.306
 4550TIP3   OH213526   7.225   3.847   2.791
 4550TIP3    H113527   7.153   3.786   2.808
 4550TIP3    H213528   7.252   3.827   2.701
 4551TIP3   OH213529   7.465   3.340   2.447
 4551TIP3    H113530   7.424   3.421   2.415
 4551TIP3    H213531   7.399   3.273   2.433
 4552TIP3   OH213532   7.593   3.808   2.650
 4552TIP3    H113533   7.579   3.795   2.744
 4552TIP3    H213534   7.508   3.790   2.611
 4553TIP3   OH213535   7.838   3.760   2.522
 4553TIP3    H113536   7.758   3.764   2.574
 4553TIP3    H213537   7.907   3.743   2.586
 4554TIP3   OH213538   8.076   3.731   2.672
 4554TIP3    H113539   8.088   3.636   2.681
 4554TIP3    H213540   8.070   3.762   2.762
 4555TIP3   OH213541   7.050   3.633   2.853
 4555TIP3    H113542   7.057   3.544   2.817
 4555TIP3    H213543   7.089   3.627   2.940
 4556TIP3   OH213544   7.529   3.314   2.712
 4556TIP3    H113545   7.596   3.247   2.704
 4556TIP3    H213546   7.498   3.329   2.623
 4557TIP3   OH213547   7.629   3.527   2.858
 4557TIP3    H113548   7.596   3.456   2.803
 4557TIP3    H213549   7.558   3.591   2.860
 4558TIP3   OH213550   6.885   4.774   0.987
 4558TIP3    H113551   6.965   4.745   0.944
 4558TIP3    H213552   6.825   4.795   0.915
 4559TIP3   OH213553   6.351   4.174   1.121
 4559TIP3    H113554   6.446   4.181   1.129
 4559TIP3    H213555   6.336   4.084   1.091
 4560TIP3   OH213556   6.250   4.741   1.604
 4560TIP3    H113557   6.183   4.690   1.559
 4560TIP3    H213558   6.293   4.679   1.662
 4561TIP3   OH213559   6.393   4.574   1.773
 4561TIP3    H113560   6.387   4.508   1.842
 4561TIP3    H213561   6.446   4.644   1.811
 4562TIP3   OH213562   8.110   5.019   1.576
 4562TIP3    H113563   8.146   5.027   1.664
 4562TIP3    H213564   8.187   5.018   1.519
 4563TIP3   OH213565   8.168   4.999   1.852
 4563TIP3    H113566   8.120   4.916   1.848
 4563TIP3    H213567   8.233   4.986   1.921
 4564TIP3   OH213568   8.207   4.712   2.426
 4564TIP3    H113569   8.132   4.718   2.486
 4564TIP3    H213570   8.244   4.800   2.425
 4565TIP3   OH213571   8.021   4.235   1.041
 4565TIP3    H113572   8.084   4.301   1.012
 4565TIP3    H213573   8.064   4.192   1.115
 4566TIP3   OH213574   8.142   4.088   1.239
 4566TIP3    H113575   8.072   4.049   1.292
 4566TIP3    H213576   8.205   4.120   1.303
 4567TIP3   OH213577   8.213   4.484   1.667
 4567TIP3    H113578   8.255   4.412   1.621
 4567TIP3    H213579   8.226   4.560   1.611
 4568TIP3   OH213580   8.012   4.770   1.863
 4568TIP3    H113581   7.946   4.818   1.914
 4568TIP3    H213582   7.963   4.735   1.788
 4569TIP3   OH213583   8.063   4.014   0.885
 4569TIP3    H113584   7.990   4.009   0.822
 4569TIP3    H213585   8.045   4.092   0.937
 4570TIP3   OH213586   7.878   3.686   0.857
 4570TIP3    H113587   7.811   3.713   0.795
 4570TIP3    H213588   7.878   3.590   0.852
 4571TIP3   OH213589   7.939   3.955   1.369
 4571TIP3    H113590   7.940   3.860   1.352
 4571TIP3    H213591   7.923   3.962   1.463
 4572TIP3   OH213592   6.569   4.003   2.154
 4572TIP3    H113593   6.560   3.977   2.062
 4572TIP3    H213594   6.663   4.002   2.170
 4573TIP3   OH213595   8.216   4.369   2.234
 4573TIP3    H113596   8.289   4.311   2.213
 4573TIP3    H213597   8.207   4.425   2.156
 4574TIP3   OH213598   8.408   4.165   2.233
 4574TIP3    H113599   8.330   4.121   2.268
 4574TIP3    H213600   8.481   4.116   2.270
 4575TIP3   OH213601   7.865   3.416   0.837
 4575TIP3    H113602   7.920   3.368   0.898
 4575TIP3    H213603   7.777   3.380   0.850
 4576TIP3   OH213604   7.939   3.688   1.265
 4576TIP3    H113605   7.985   3.606   1.284
 4576TIP3    H213606   7.982   3.723   1.188
 4577TIP3   OH213607   8.099   3.834   1.789
 4577TIP3    H113608   8.179   3.854   1.740
 4577TIP3    H213609   8.108   3.882   1.871
 4578TIP3   OH213610   8.162   4.002   2.004
 4578TIP3    H113611   8.092   4.029   2.064
 4578TIP3    H213612   8.190   4.083   1.961
 4579TIP3   OH213613   6.786   3.690   2.788
 4579TIP3    H113614   6.880   3.689   2.807
 4579TIP3    H213615   6.753   3.610   2.827
 4580TIP3   OH213616   8.635   3.582   2.548
 4580TIP3    H113617   8.691   3.519   2.502
 4580TIP3    H213618   8.599   3.638   2.479
 4581TIP3   OH213619   8.054   3.447   1.344
 4581TIP3    H113620   8.096   3.439   1.429
 4581TIP3    H213621   7.989   3.377   1.342
 4582TIP3   OH213622   6.768   3.411   2.149
 4582TIP3    H113623   6.822   3.332   2.149
 4582TIP3    H213624   6.829   3.482   2.127
 4583TIP3   OH213625   6.541   3.678   2.197
 4583TIP3    H113626   6.595   3.663   2.120
 4583TIP3    H213627   6.559   3.768   2.223
 4584TIP3   OH213628   8.481   3.721   2.369
 4584TIP3    H113629   8.413   3.757   2.425
 4584TIP3    H213630   8.435   3.663   2.308
 4585TIP3   OH213631   8.105   3.331   0.975
 4585TIP3    H113632   8.145   3.283   0.902
 4585TIP3    H213633   8.154   3.413   0.979
 4586TIP3   OH213634   6.531   3.184   1.702
 4586TIP3    H113635   6.447   3.173   1.745
 4586TIP3    H213636   6.512   3.237   1.625
 4587TIP3   OH213637   7.718   4.927   1.217
 4587TIP3    H113638   7.732   4.877   1.136
 4587TIP3    H213639   7.794   4.986   1.221
 4588TIP3   OH213640   6.763   3.229   2.527
 4588TIP3    H113641   6.714   3.228   2.609
 4588TIP3    H213642   6.710   3.280   2.467
 4589TIP3   OH213643   6.783   4.695   2.599
 4589TIP3    H113644   6.690   4.673   2.591
 4589TIP3    H213645   6.801   4.687   2.693
 4590TIP3   OH213646   6.998   4.743   2.152
 4590TIP3    H113647   6.948   4.818   2.120
 4590TIP3    H213648   7.082   4.749   2.107
 4591TIP3   OH213649   7.392   4.970   2.288
 4591TIP3    H113650   7.429   4.963   2.376
 4591TIP3    H213651   7.453   5.026   2.240
 4592TIP3   OH213652   7.580   5.130   2.164
 4592TIP3    H113653   7.639   5.075   2.112
 4592TIP3    H213654   7.639   5.185   2.216
 4593TIP3   OH213655   8.390   3.465   2.247
 4593TIP3    H113656   8.307   3.464   2.198
 4593TIP3    H213657   8.422   3.375   2.240
 4594TIP3   OH213658   6.661   4.977   2.203
 4594TIP3    H113659   6.569   4.994   2.180
 4594TIP3    H213660   6.683   5.045   2.266
 4595TIP3   OH213661   6.889   4.975   2.050
 4595TIP3    H113662   6.806   4.977   2.098
 4595TIP3    H213663   6.866   4.997   1.960
 4596TIP3   OH213664   7.304   4.987   1.843
 4596TIP3    H113665   7.229   4.997   1.784
 4596TIP3    H213666   7.313   5.073   1.884
 4597TIP3   OH213667   7.565   4.920   1.901
 4597TIP3    H113668   7.474   4.937   1.876
 4597TIP3    H213669   7.617   4.982   1.850
 4598TIP3   OH213670   7.773   5.097   1.814
 4598TIP3    H113671   7.753   5.182   1.774
 4598TIP3    H213672   7.800   5.042   1.742
 4599TIP3   OH213673   6.565   4.760   1.914
 4599TIP3    H113674   6.591   4.739   2.004
 4599TIP3    H213675   6.637   4.728   1.860
 4600TIP3   OH213676   6.771   4.650   1.780
 4600TIP3    H113677   6.780   4.562   1.818
 4600TIP3    H213678   6.860   4.685   1.780
 4601TIP3   OH213679   7.042   4.731   1.798
 4601TIP3    H113680   7.051   4.638   1.781
 4601TIP3    H213681   7.099   4.747   1.874
 4602TIP3   OH213682   7.600   3.394   1.892
 4602TIP3    H113683   7.561   3.319   1.937
 4602TIP3    H213684   7.665   3.355   1.833
 4603TIP3   OH213685   8.091   3.341   1.817
 4603TIP3    H113686   8.131   3.386   1.742
 4603TIP3    H213687   7.998   3.364   1.812
 4604TIP3   OH213688   8.202   3.408   1.576
 4604TIP3    H113689   8.274   3.348   1.553
 4604TIP3    H213690   8.236   3.495   1.557
 4605TIP3   OH213691   6.836   3.080   1.881
 4605TIP3    H113692   6.747   3.046   1.891
 4605TIP3    H213693   6.890   3.001   1.871
 4606TIP3   OH213694   6.664   2.992   1.541
 4606TIP3    H113695   6.688   3.040   1.462
 4606TIP3    H213696   6.625   3.059   1.598
 4607TIP3   OH213697   7.323   3.113   1.789
 4607TIP3    H113698   7.362   3.166   1.720
 4607TIP3    H213699   7.361   3.146   1.870
 4608TIP3   OH213700   7.811   3.279   1.760
 4608TIP3    H113701   7.860   3.240   1.686
 4608TIP3    H213702   7.808   3.209   1.825
 4609TIP3   OH213703   7.870   3.241   1.374
 4609TIP3    H113704   7.787   3.286   1.389
 4609TIP3    H213705   7.858   3.155   1.414
 4610TIP3   OH213706   6.332   4.531   1.320
 4610TIP3    H113707   6.250   4.493   1.289
 4610TIP3    H213708   6.329   4.623   1.292
 4611TIP3   OH213709   6.763   3.122   1.303
 4611TIP3    H113710   6.807   3.058   1.246
 4611TIP3    H213711   6.834   3.176   1.338
 4612TIP3   OH213712   7.250   3.310   1.403
 4612TIP3    H113713   7.310   3.262   1.459
 4612TIP3    H213714   7.262   3.402   1.428
 4613TIP3   OH213715   7.108   4.702   0.855
 4613TIP3    H113716   7.202   4.717   0.847
 4613TIP3    H213717   7.096   4.611   0.829
 4614TIP3   OH213718   7.833   4.819   0.981
 4614TIP3    H113719   7.834   4.723   0.985
 4614TIP3    H213720   7.786   4.839   0.900
 4615TIP3   OH213721   7.068   3.362   2.765
 4615TIP3    H113722   7.034   3.295   2.824
 4615TIP3    H213723   7.160   3.372   2.789
 4616TIP3   OH213724   7.315   3.370   2.888
 4616TIP3    H113725   7.392   3.347   2.836
 4616TIP3    H213726   7.308   3.300   2.953
 4617TIP3   OH213727   6.447   4.544   0.954
 4617TIP3    H113728   6.454   4.557   1.048
 4617TIP3    H213729   6.528   4.498   0.930
 4618TIP3   OH213730   8.142   3.458   2.674
 4618TIP3    H113731   8.161   3.427   2.763
 4618TIP3    H213732   8.227   3.454   2.630
 4619TIP3   OH213733   8.060   4.996   2.180
 4619TIP3    H113734   7.987   4.961   2.129
 4619TIP3    H213735   8.043   5.090   2.186
 4620TIP3   OH213736   8.640   4.261   1.672
 4620TIP3    H113737   8.661   4.187   1.730
 4620TIP3    H213738   8.695   4.332   1.703
 4621TIP3   OH213739   8.578   4.662   1.408
 4621TIP3    H113740   8.573   4.566   1.410
 4621TIP3    H213741   8.669   4.680   1.383
 4622TIP3   OH213742   8.298   3.868   1.160
 4622TIP3    H113743   8.257   3.951   1.185
 4622TIP3    H213744   8.228   3.819   1.118
 4623TIP3   OH213745   8.375   4.155   1.373
 4623TIP3    H113746   8.426   4.080   1.402
 4623TIP3    H213747   8.427   4.196   1.304
 4624TIP3   OH213748   9.170   5.064   1.036
 4624TIP3    H113749   9.213   5.141   0.998
 4624TIP3    H213750   9.151   5.090   1.126
 4625TIP3   OH213751   9.073   4.597   1.314
 4625TIP3    H113752   9.090   4.544   1.236
 4625TIP3    H213753   9.150   4.654   1.321
 4626TIP3   OH213754   8.853   3.739   1.361
 4626TIP3    H113755   8.863   3.809   1.297
 4626TIP3    H213756   8.801   3.672   1.316
 4627TIP3   OH213757   8.523   3.946   1.473
 4627TIP3    H113758   8.603   3.924   1.521
 4627TIP3    H213759   8.533   3.902   1.389
 4628TIP3   OH213760   8.936   4.158   1.249
 4628TIP3    H113761   9.017   4.159   1.199
 4628TIP3    H213762   8.897   4.073   1.231
 4629TIP3   OH213763   8.860   3.748   1.832
 4629TIP3    H113764   8.818   3.781   1.752
 4629TIP3    H213765   8.799   3.772   1.902
 4630TIP3   OH213766   8.969   4.520   1.563
 4630TIP3    H113767   8.902   4.580   1.594
 4630TIP3    H213768   8.999   4.558   1.480
 4631TIP3   OH213769   8.754   3.841   1.591
 4631TIP3    H113770   8.812   3.913   1.614
 4631TIP3    H213771   8.795   3.799   1.515
 4632TIP3   OH213772   8.787   4.701   1.662
 4632TIP3    H113773   8.783   4.792   1.633
 4632TIP3    H213774   8.707   4.688   1.712
 4633TIP3   OH213775   8.207   4.409   0.936
 4633TIP3    H113776   8.171   4.429   0.850
 4633TIP3    H213777   8.231   4.494   0.972
 4634TIP3   OH213778   8.705   4.279   1.156
 4634TIP3    H113779   8.672   4.227   1.083
 4634TIP3    H213780   8.785   4.234   1.184
 4635TIP3   OH213781   8.817   4.703   1.271
 4635TIP3    H113782   8.789   4.685   1.181
 4635TIP3    H213783   8.903   4.660   1.278
 4636TIP3   OH213784   8.920   4.250   1.511
 4636TIP3    H113785   8.923   4.226   1.418
 4636TIP3    H213786   8.923   4.346   1.511
 4637TIP3   OH213787   9.000   4.789   1.817
 4637TIP3    H113788   8.951   4.853   1.867
 4637TIP3    H213789   8.934   4.746   1.762
 4638TIP3   OH213790   8.744   4.390   1.952
 4638TIP3    H113791   8.736   4.480   1.983
 4638TIP3    H213792   8.658   4.352   1.970
 4639TIP3   OH213793   9.075   4.861   0.874
 4639TIP3    H113794   9.111   4.929   0.931
 4639TIP3    H213795   8.988   4.893   0.851
 4640TIP3   OH213796   8.804   4.959   1.911
 4640TIP3    H113797   8.776   4.967   1.820
 4640TIP3    H213798   8.723   4.949   1.961
 4641TIP3   OH213799   8.615   4.121   0.938
 4641TIP3    H113800   8.540   4.171   0.906
 4641TIP3    H213801   8.599   4.031   0.909
 4642TIP3   OH213802   8.394   4.517   1.874
 4642TIP3    H113803   8.325   4.511   1.808
 4642TIP3    H213804   8.424   4.427   1.886
 4643TIP3   OH213805   8.319   4.697   1.520
 4643TIP3    H113806   8.404   4.684   1.479
 4643TIP3    H213807   8.331   4.773   1.578
 4644TIP3   OH213808   9.182   4.962   1.693
 4644TIP3    H113809   9.192   5.054   1.720
 4644TIP3    H213810   9.120   4.925   1.756
 4645TIP3   OH213811   8.433   4.886   1.016
 4645TIP3    H113812   8.472   4.889   1.104
 4645TIP3    H213813   8.391   4.801   1.011
 4646TIP3   OH213814   8.567   4.728   1.830
 4646TIP3    H113815   8.617   4.726   1.912
 4646TIP3    H213816   8.502   4.658   1.839
 4647TIP3   OH213817   8.966   3.531   1.697
 4647TIP3    H113818   8.887   3.507   1.649
 4647TIP3    H213819   8.940   3.607   1.750
 4648TIP3   OH213820   8.905   4.043   1.687
 4648TIP3    H113821   8.853   4.072   1.762
 4648TIP3    H213822   8.908   4.119   1.629
 4649TIP3   OH213823   8.811   3.932   1.166
 4649TIP3    H113824   8.720   3.911   1.184
 4649TIP3    H213825   8.825   3.904   1.076
 4650TIP3   OH213826   8.701   4.078   1.881
 4650TIP3    H113827   8.638   4.132   1.928
 4650TIP3    H213828   8.700   3.994   1.927
 4651TIP3   OH213829   8.787   3.669   0.615
 4651TIP3    H113830   8.757   3.634   0.700
 4651TIP3    H213831   8.706   3.698   0.573
 4652TIP3   OH213832   8.326   3.628   1.481
 4652TIP3    H113833   8.408   3.649   1.527
 4652TIP3    H213834   8.354   3.599   1.394
 4653TIP3   OH213835   8.250   3.576   0.980
 4653TIP3    H113836   8.312   3.617   0.920
 4653TIP3    H213837   8.181   3.642   0.991
 4654TIP3   OH213838   8.561   3.832   1.227
 4654TIP3    H113839   8.471   3.837   1.195
 4654TIP3    H213840   8.586   3.740   1.216
 4655TIP3   OH213841   8.848   3.845   0.906
 4655TIP3    H113842   8.921   3.872   0.850
 4655TIP3    H213843   8.770   3.865   0.854
 4656TIP3   OH213844   8.629   3.898   0.748
 4656TIP3    H113845   8.550   3.848   0.727
 4656TIP3    H213846   8.672   3.911   0.664
 4657TIP3   OH213847   8.712   4.645   2.059
 4657TIP3    H113848   8.792   4.677   2.100
 4657TIP3    H213849   8.646   4.650   2.128
 4658TIP3   OH213850   8.681   3.584   1.205
 4658TIP3    H113851   8.659   3.502   1.249
 4658TIP3    H213852   8.706   3.557   1.117
 4659TIP3   OH213853   8.854   4.433   0.730
 4659TIP3    H113854   8.830   4.343   0.709
 4659TIP3    H213855   8.891   4.429   0.818
 4660TIP3   OH213856   9.293   4.712   1.721
 4660TIP3    H113857   9.212   4.662   1.714
 4660TIP3    H213858   9.268   4.802   1.701
 4661TIP3   OH213859   8.618   4.390   1.400
 4661TIP3    H113860   8.647   4.355   1.316
 4661TIP3    H213861   8.644   4.324   1.464
 4662TIP3   OH213862   8.504   4.249   1.990
 4662TIP3    H113863   8.490   4.233   2.084
 4662TIP3    H213864   8.420   4.229   1.949
 4663TIP3   OH213865   9.208   4.402   1.999
 4663TIP3    H113866   9.125   4.355   1.997
 4663TIP3    H213867   9.243   4.392   1.910
 4664TIP3   OH213868   8.723   4.680   1.005
 4664TIP3    H113869   8.725   4.768   0.968
 4664TIP3    H213870   8.663   4.632   0.949
 4665TIP3   OH213871   8.286   4.008   0.726
 4665TIP3    H113872   8.335   4.087   0.748
 4665TIP3    H213873   8.207   4.012   0.781
 4666TIP3   OH213874   8.883   4.452   1.015
 4666TIP3    H113875   8.844   4.539   1.002
 4666TIP3    H213876   8.815   4.403   1.060
 4667TIP3   OH213877   9.015   5.018   1.481
 4667TIP3    H113878   9.057   5.081   1.423
 4667TIP3    H213879   9.083   4.994   1.544
 4668TIP3   OH213880   8.670   4.926   0.877
 4668TIP3    H113881   8.583   4.925   0.918
 4668TIP3    H213882   8.699   5.017   0.883
 4669TIP3   OH213883   8.677   3.820   2.032
 4669TIP3    H113884   8.585   3.843   2.038
 4669TIP3    H213885   8.682   3.731   2.067
 4670TIP3   OH213886   8.431   4.922   1.671
 4670TIP3    H113887   8.483   4.865   1.728
 4670TIP3    H213888   8.435   5.008   1.712
 4671TIP3   OH213889   8.625   4.584   0.747
 4671TIP3    H113890   8.704   4.531   0.731
 4671TIP3    H213891   8.637   4.662   0.692
 4672TIP3   OH213892   8.399   4.243   0.822
 4672TIP3    H113893   8.336   4.294   0.873
 4672TIP3    H213894   8.423   4.301   0.749
 4673TIP3   OH213895   8.654   4.826   0.622
 4673TIP3    H113896   8.660   4.902   0.565
 4673TIP3    H213897   8.663   4.861   0.710
 4674TIP3   OH213898   8.789   3.576   0.940
 4674TIP3    H113899   8.823   3.665   0.941
 4674TIP3    H213900   8.868   3.521   0.936
 4675TIP3   OH213901   8.392   4.478   0.640
 4675TIP3    H113902   8.459   4.530   0.685
 4675TIP3    H213903   8.442   4.416   0.587
 4676TIP3   OH213904   8.351   3.748   0.782
 4676TIP3    H113905   8.334   3.842   0.773
 4676TIP3    H213906   8.277   3.706   0.738
 4677TIP3   OH213907   8.713   3.447   1.615
 4677TIP3    H113908   8.690   3.424   1.525
 4677TIP3    H213909   8.706   3.364   1.663
 4678TIP3   OH213910   8.259   4.667   1.034
 4678TIP3    H113911   8.224   4.705   1.115
 4678TIP3    H213912   8.205   4.705   0.965
 4679TIP3   OH213913   8.426   5.233   2.068
 4679TIP3    H113914   8.501   5.232   2.127
 4679TIP3    H213915   8.401   5.142   2.058
 4680TIP3   OH213916   8.860   5.178   2.074
 4680TIP3    H113917   8.955   5.192   2.077
 4680TIP3    H213918   8.849   5.101   2.018
 4681TIP3   OH213919   8.533   4.633   2.272
 4681TIP3    H113920   8.557   4.540   2.276
 4681TIP3    H213921   8.449   4.635   2.227
 4682TIP3   OH213922   8.539   4.275   0.546
 4682TIP3    H113923   8.623   4.238   0.576
 4682TIP3    H213924   8.512   4.217   0.475
 4683TIP3   OH213925   9.107   4.666   2.038
 4683TIP3    H113926   9.089   4.693   1.948
 4683TIP3    H213927   9.162   4.589   2.029
 4684TIP3   OH213928   8.663   4.385   2.270
 4684TIP3    H113929   8.738   4.342   2.228
 4684TIP3    H213930   8.690   4.395   2.362
 4685TIP3   OH213931   8.761   4.177   0.693
 4685TIP3    H113932   8.721   4.147   0.774
 4685TIP3    H213933   8.794   4.097   0.651
 4686TIP3   OH213934   8.979   4.255   1.938
 4686TIP3    H113935   8.895   4.301   1.936
 4686TIP3    H213936   9.019   4.275   1.853
 4687TIP3   OH213937   8.833   3.950   0.552
 4687TIP3    H113938   8.829   3.962   0.457
 4687TIP3    H213939   8.892   3.876   0.564
 4688TIP3   OH213940   9.132   4.034   2.041
 4688TIP3    H113941   9.141   3.958   1.983
 4688TIP3    H213942   9.095   4.102   1.985
 4689TIP3   OH213943   9.124   3.827   1.864
 4689TIP3    H113944   9.164   3.798   1.782
 4689TIP3    H213945   9.032   3.800   1.856
 4690TIP3   OH213946   9.111   4.337   1.715
 4690TIP3    H113947   9.107   4.265   1.652
 4690TIP3    H213948   9.068   4.410   1.671
 4691TIP3   OH213949   8.917   4.136   2.187
 4691TIP3    H113950   8.893   4.191   2.113
 4691TIP3    H213951   8.999   4.094   2.161
 4692TIP3   OH213952   8.834   3.882   2.280
 4692TIP3    H113953   8.826   3.898   2.186
 4692TIP3    H213954   8.835   3.787   2.288
 4693TIP3   OH213955   8.131   4.399   0.662
 4693TIP3    H113956   8.218   4.436   0.645
 4693TIP3    H213957   8.127   4.322   0.606
 4694TIP3   OH213958   8.024   4.961   1.114
 4694TIP3    H113959   7.969   4.907   1.057
 4694TIP3    H213960   8.070   4.899   1.169
 4695TIP3   OH213961   8.189   4.806   1.274
 4695TIP3    H113962   8.184   4.737   1.340
 4695TIP3    H213963   8.239   4.876   1.315
 4696TIP3   OH213964   8.369   4.247   1.629
 4696TIP3    H113965   8.357   4.223   1.537
 4696TIP3    H213966   8.463   4.260   1.638
 4697TIP3   OH213967   8.586   3.982   2.341
 4697TIP3    H113968   8.675   3.954   2.318
 4697TIP3    H213969   8.538   3.901   2.354
 4698TIP3   OH213970   8.547   3.663   1.647
 4698TIP3    H113971   8.600   3.583   1.643
 4698TIP3    H213972   8.610   3.734   1.632
 4699TIP3   OH213973   8.338   3.939   1.691
 4699TIP3    H113974   8.390   3.913   1.615
 4699TIP3    H213975   8.341   4.035   1.691
 4700TIP3   OH213976   8.311   3.483   1.230
 4700TIP3    H113977   8.223   3.466   1.266
 4700TIP3    H213978   8.294   3.527   1.147
 4701TIP3   OH213979   8.566   3.512   2.027
 4701TIP3    H113980   8.515   3.506   2.107
 4701TIP3    H213981   8.507   3.553   1.964
 4702TIP3   OH213982   8.592   4.943   2.080
 4702TIP3    H113983   8.498   4.938   2.096
 4702TIP3    H213984   8.631   4.944   2.167
 4703TIP3   OH213985   8.791   4.972   1.633
 4703TIP3    H113986   8.732   5.043   1.608
 4703TIP3    H213987   8.872   4.991   1.586
 4704TIP3   OH213988   9.245   5.233   1.708
 4704TIP3    H113989   9.301   5.250   1.784
 4704TIP3    H213990   9.306   5.221   1.635
 4705TIP3   OH213991   8.437   5.205   1.733
 4705TIP3    H113992   8.349   5.233   1.710
 4705TIP3    H213993   8.469   5.273   1.792
 4706TIP3   OH213994   8.650   5.191   1.563
 4706TIP3    H113995   8.574   5.200   1.620
 4706TIP3    H213996   8.615   5.200   1.474
 4707TIP3   OH213997   9.116   5.186   1.286
 4707TIP3    H113998   9.030   5.190   1.243
 4707TIP3    H213999   9.151   5.275   1.278
 4708TIP3   OH214000   9.356   5.207   1.446
 4708TIP3    H114001   9.280   5.175   1.396
 4708TIP3    H214002   9.383   5.286   1.400
 4709TIP3   OH214003   8.345   4.995   1.421
 4709TIP3    H114004   8.381   4.975   1.507
 4709TIP3    H214005   8.417   4.979   1.361
 4710TIP3   OH214006   8.545   4.899   1.265
 4710TIP3    H114007   8.556   4.815   1.310
 4710TIP3    H214008   8.628   4.944   1.276
 4711TIP3   OH214009   8.812   4.972   1.301
 4711TIP3    H114010   8.819   4.878   1.286
 4711TIP3    H214011   8.875   4.990   1.371
 4712TIP3   OH214012   8.633   3.361   1.364
 4712TIP3    H114013   8.552   3.325   1.398
 4712TIP3    H214014   8.691   3.285   1.354
 4713TIP3   OH214015   8.445   3.286   1.091
 4713TIP3    H114016   8.416   3.307   1.002
 4713TIP3    H214017   8.410   3.355   1.146
 4714TIP3   OH214018   8.124   4.780   0.830
 4714TIP3    H114019   8.047   4.755   0.778
 4714TIP3    H214020   8.157   4.859   0.787
 4715TIP3   OH214021   8.635   3.451   0.755
 4715TIP3    H114022   8.629   3.363   0.792
 4715TIP3    H214023   8.674   3.504   0.824
 4716TIP3   OH214024   8.837   3.597   2.251
 4716TIP3    H114025   8.799   3.523   2.298
 4716TIP3    H214026   8.919   3.615   2.298
 4717TIP3   OH214027   9.046   3.657   2.418
 4717TIP3    H114028   9.138   3.650   2.391
 4717TIP3    H214029   9.035   3.588   2.483
 4718TIP3   OH214030   8.190   4.824   0.506
 4718TIP3    H114031   8.207   4.889   0.574
 4718TIP3    H214032   8.262   4.761   0.514
 4719TIP3   OH214033   0.046   4.910   3.141
 4719TIP3    H114034   0.003   4.989   3.109
 4719TIP3    H214035  -0.016   4.872   3.203
 4720TIP3   OH214036   0.060   4.899   3.516
 4720TIP3    H114037   0.052   4.870   3.607
 4720TIP3    H214038   0.004   4.839   3.467
 4721TIP3   OH214039   0.262   5.209   3.205
 4721TIP3    H114040   0.260   5.133   3.264
 4721TIP3    H214041   0.285   5.283   3.261
 4722TIP3   OH214042   9.699   5.578   3.282
 4722TIP3    H114043   9.678   5.489   3.309
 4722TIP3    H214044   9.735   5.619   3.360
 4723TIP3   OH214045   9.580   4.999   3.540
 4723TIP3    H114046   9.648   4.940   3.575
 4723TIP3    H214047   9.628   5.059   3.483
 4724TIP3   OH214048   0.840   4.440   3.565
 4724TIP3    H114049   0.855   4.524   3.607
 4724TIP3    H214050   0.870   4.452   3.475
 4725TIP3   OH214051   0.231   4.623   3.591
 4725TIP3    H114052   0.250   4.531   3.612
 4725TIP3    H214053   0.203   4.621   3.500
 4726TIP3   OH214054   9.358   4.346   3.534
 4726TIP3    H114055   9.304   4.408   3.583
 4726TIP3    H214056   9.342   4.262   3.577
 4727TIP3   OH214057   0.274   4.380   3.180
 4727TIP3    H114058   0.335   4.370   3.253
 4727TIP3    H214059   0.328   4.413   3.108
 4728TIP3   OH214060   9.302   4.719   3.487
 4728TIP3    H114061   9.311   4.809   3.456
 4728TIP3    H214062   9.236   4.681   3.429
 4729TIP3   OH214063   0.893   4.659   3.731
 4729TIP3    H114064   0.810   4.705   3.719
 4729TIP3    H214065   0.930   4.697   3.811
 4730TIP3   OH214066   9.697   5.108   3.004
 4730TIP3    H114067   9.713   5.118   2.910
 4730TIP3    H214068   9.674   5.196   3.034
 4731TIP3   OH214069   0.424   4.391   3.406
 4731TIP3    H114070   0.375   4.372   3.485
 4731TIP3    H214071   0.479   4.466   3.429
 4732TIP3   OH214072   0.310   5.424   3.382
 4732TIP3    H114073   0.224   5.425   3.425
 4732TIP3    H214074   0.319   5.513   3.347
 4733TIP3   OH214075   0.636   4.317   3.722
 4733TIP3    H114076   0.553   4.353   3.692
 4733TIP3    H214077   0.701   4.351   3.660
 4734TIP3   OH214078   9.719   3.949   3.723
 4734TIP3    H114079   9.709   3.859   3.755
 4734TIP3    H214080   9.639   3.994   3.750
 4735TIP3   OH214081   0.033   5.461   2.974
 4735TIP3    H114082   0.089   5.384   2.975
 4735TIP3    H214083   0.091   5.532   2.945
 4736TIP3   OH214084   0.185   5.245   2.945
 4736TIP3    H114085   0.198   5.166   2.892
 4736TIP3    H214086   0.217   5.222   3.032
 4737TIP3   OH214087   0.578   5.312   3.701
 4737TIP3    H114088   0.552   5.249   3.633
 4737TIP3    H214089   0.561   5.398   3.662
 4738TIP3   OH214090   9.658   4.736   2.970
 4738TIP3    H114091   9.602   4.813   2.968
 4738TIP3    H214092   9.720   4.749   2.899
 4739TIP3   OH214093   9.632   4.545   2.668
 4739TIP3    H114094   9.692   4.593   2.724
 4739TIP3    H214095   9.688   4.486   2.617
 4740TIP3   OH214096   0.715   5.000   3.565
 4740TIP3    H114097   0.629   5.043   3.562
 4740TIP3    H214098   0.752   5.015   3.477
 4741TIP3   OH214099   0.210   4.841   2.937
 4741TIP3    H114100   0.158   4.865   3.014
 4741TIP3    H214101   0.294   4.812   2.972
 4742TIP3   OH214102   0.445   4.876   3.883
 4742TIP3    H114103   0.437   4.958   3.933
 4742TIP3    H214104   0.362   4.868   3.836
 4743TIP3   OH214105   9.401   4.888   3.725
 4743TIP3    H114106   9.309   4.893   3.698
 4743TIP3    H214107   9.447   4.939   3.658
 4744TIP3   OH214108   0.068   5.421   3.517
 4744TIP3    H114109   0.006   5.483   3.554
 4744TIP3    H214110   0.072   5.350   3.580
 4745TIP3   OH214111   0.046   4.701   2.773
 4745TIP3    H114112   0.108   4.755   2.821
 4745TIP3    H214113   0.068   4.716   2.681
 4746TIP3   OH214114   9.604   5.358   3.088
 4746TIP3    H114115   9.683   5.406   3.065
 4746TIP3    H214116   9.533   5.421   3.078
 4747TIP3   OH214117   0.528   3.927   2.828
 4747TIP3    H114118   0.450   3.948   2.880
 4747TIP3    H214119   0.538   4.001   2.768
 4748TIP3   OH214120   0.362   5.310   2.376
 4748TIP3    H114121   0.366   5.402   2.352
 4748TIP3    H214122   0.448   5.276   2.352
 4749TIP3   OH214123   0.771   5.731   3.760
 4749TIP3    H114124   0.780   5.636   3.765
 4749TIP3    H214125   0.690   5.751   3.806
 4750TIP3   OH214126   9.761   5.401   3.902
 4750TIP3    H114127   9.755   5.468   3.970
 4750TIP3    H214128   9.674   5.399   3.862
 4751TIP3   OH214129   9.524   5.570   2.887
 4751TIP3    H114130   9.464   5.567   2.812
 4751TIP3    H214131   9.492   5.643   2.940
 4752TIP3   OH214132   9.704   5.558   2.460
 4752TIP3    H114133   9.768   5.492   2.434
 4752TIP3    H214134   9.721   5.572   2.553
 4753TIP3   OH214135   9.742   5.627   2.727
 4753TIP3    H114136   9.669   5.602   2.783
 4753TIP3    H214137   9.818   5.633   2.786
 4754TIP3   OH214138   0.653   4.830   4.067
 4754TIP3    H114139   0.582   4.835   4.004
 4754TIP3    H214140   0.682   4.739   4.064
 4755TIP3   OH214141   9.335   4.242   3.871
 4755TIP3    H114142   9.383   4.160   3.855
 4755TIP3    H214143   9.395   4.311   3.843
 4756TIP3   OH214144   0.206   4.165   4.068
 4756TIP3    H114145   0.283   4.146   4.122
 4756TIP3    H214146   0.132   4.134   4.120
 4757TIP3   OH214147   0.442   4.604   3.971
 4757TIP3    H114148   0.395   4.585   4.052
 4757TIP3    H214149   0.407   4.689   3.943
 4758TIP3   OH214150   0.109   4.729   2.515
 4758TIP3    H114151   0.064   4.705   2.435
 4758TIP3    H214152   0.192   4.768   2.485
 4759TIP3   OH214153   9.591   4.121   2.775
 4759TIP3    H114154   9.628   4.104   2.862
 4759TIP3    H214155   9.506   4.077   2.777
 4760TIP3   OH214156   9.286   4.636   3.835
 4760TIP3    H114157   9.313   4.655   3.925
 4760TIP3    H214158   9.327   4.705   3.783
 4761TIP3   OH214159   9.147   4.609   3.285
 4761TIP3    H114160   9.100   4.538   3.329
 4761TIP3    H214161   9.213   4.565   3.232
 4762TIP3   OH214162   9.783   4.538   3.107
 4762TIP3    H114163   9.741   4.615   3.068
 4762TIP3    H214164   9.842   4.506   3.039
 4763TIP3   OH214165   0.200   4.811   4.200
 4763TIP3    H114166   0.173   4.734   4.251
 4763TIP3    H214167   0.293   4.820   4.218
 4764TIP3   OH214168   0.146   4.580   3.330
 4764TIP3    H114169   0.073   4.601   3.272
 4764TIP3    H214170   0.188   4.503   3.290
 4765TIP3   OH214171   9.338   4.035   2.849
 4765TIP3    H114172   9.369   3.999   2.932
 4765TIP3    H214173   9.309   4.124   2.870
 4766TIP3   OH214174   0.203   4.817   3.779
 4766TIP3    H114175   0.214   4.755   3.707
 4766TIP3    H214176   0.171   4.763   3.851
 4767TIP3   OH214177   9.640   4.272   3.386
 4767TIP3    H114178   9.569   4.336   3.383
 4767TIP3    H214179   9.711   4.318   3.432
 4768TIP3   OH214180   9.321   4.435   3.167
 4768TIP3    H114181   9.411   4.403   3.172
 4768TIP3    H214182   9.287   4.396   3.086
 4769TIP3   OH214183   0.273   4.353   3.636
 4769TIP3    H114184   0.276   4.357   3.731
 4769TIP3    H214185   0.200   4.294   3.616
 4770TIP3   OH214186   9.008   4.366   2.859
 4770TIP3    H114187   8.915   4.354   2.882
 4770TIP3    H214188   9.027   4.295   2.798
 4771TIP3   OH214189   0.502   6.051   3.870
 4771TIP3    H114190   0.500   6.073   3.777
 4771TIP3    H214191   0.582   6.093   3.903
 4772TIP3   OH214192   9.775   4.462   3.520
 4772TIP3    H114193   9.829   4.521   3.467
 4772TIP3    H214194   9.780   4.499   3.608
 4773TIP3   OH214195   9.209   4.146   3.348
 4773TIP3    H114196   9.167   4.060   3.338
 4773TIP3    H214197   9.256   4.139   3.431
 4774TIP3   OH214198   9.771   4.556   3.773
 4774TIP3    H114199   9.707   4.510   3.828
 4774TIP3    H214200   9.845   4.574   3.831
 4775TIP3   OH214201   9.445   4.907   2.954
 4775TIP3    H114202   9.396   4.892   2.872
 4775TIP3    H214203   9.379   4.935   3.016
 4776TIP3   OH214204   0.488   5.142   3.511
 4776TIP3    H114205   0.520   5.197   3.440
 4776TIP3    H214206   0.409   5.101   3.476
 4777TIP3   OH214207   0.056   4.209   2.836
 4777TIP3    H114208  -0.033   4.211   2.801
 4777TIP3    H214209   0.081   4.301   2.842
 4778TIP3   OH214210   0.053   5.154   3.962
 4778TIP3    H114211   0.117   5.158   4.032
 4778TIP3    H214212   0.017   5.242   3.956
 4779TIP3   OH214213   0.140   4.465   2.886
 4779TIP3    H114214   0.234   4.471   2.901
 4779TIP3    H214215   0.119   4.544   2.836
 4780TIP3   OH214216   9.559   5.053   2.741
 4780TIP3    H114217   9.552   5.147   2.758
 4780TIP3    H214218   9.526   5.012   2.821
 4781TIP3   OH214219  -0.020   5.013   4.240
 4781TIP3    H114220  -0.032   4.923   4.210
 4781TIP3    H214221   0.068   5.036   4.211
 4782TIP3   OH214222   0.214   5.457   3.816
 4782TIP3    H114223   0.128   5.425   3.844
 4782TIP3    H214224   0.250   5.500   3.894
 4783TIP3   OH214225   0.521   4.560   2.712
 4783TIP3    H114226   0.461   4.514   2.652
 4783TIP3    H214227   0.527   4.648   2.676
 4784TIP3   OH214228   0.802   5.460   3.787
 4784TIP3    H114229   0.716   5.425   3.812
 4784TIP3    H214230   0.822   5.417   3.705
 4785TIP3   OH214231   0.254   5.376   2.632
 4785TIP3    H114232   0.237   5.303   2.692
 4785TIP3    H214233   0.284   5.334   2.551
 4786TIP3   OH214234   0.277   5.008   3.398
 4786TIP3    H114235   0.199   4.977   3.443
 4786TIP3    H214236   0.316   4.928   3.360
 4787TIP3   OH214237   9.212   4.955   3.084
 4787TIP3    H114238   9.223   5.049   3.097
 4787TIP3    H214239   9.171   4.924   3.165
 4788TIP3   OH214240   0.080   5.189   3.676
 4788TIP3    H114241   0.055   5.183   3.768
 4788TIP3    H214242   0.164   5.143   3.671
 4789TIP3   OH214243   0.056   5.121   2.531
 4789TIP3    H114244   0.097   5.093   2.613
 4789TIP3    H214245  -0.028   5.075   2.528
 4790TIP3   OH214246   0.311   5.719   3.653
 4790TIP3    H114247   0.235   5.667   3.624
 4790TIP3    H214248   0.316   5.791   3.590
 4791TIP3   OH214249   0.392   5.581   2.326
 4791TIP3    H114250   0.441   5.660   2.302
 4791TIP3    H214251   0.307   5.614   2.356
 4792TIP3   OH214252   0.211   5.043   2.752
 4792TIP3    H114253   0.199   4.970   2.812
 4792TIP3    H214254   0.304   5.043   2.732
 4793TIP3   OH214255   9.211   5.048   2.490
 4793TIP3    H114256   9.256   4.963   2.488
 4793TIP3    H214257   9.161   5.046   2.571
 4794TIP3   OH214258   0.279   4.374   3.907
 4794TIP3    H114259   0.355   4.410   3.953
 4794TIP3    H214260   0.247   4.304   3.964
 4795TIP3   OH214261   0.126   4.161   3.101
 4795TIP3    H114262   0.093   4.179   3.013
 4795TIP3    H214263   0.168   4.243   3.128
 4796TIP3   OH214264   9.363   5.277   2.842
 4796TIP3    H114265   9.314   5.357   2.861
 4796TIP3    H214266   9.341   5.256   2.751
 4797TIP3   OH214267   9.581   4.352   3.129
 4797TIP3    H114268   9.649   4.418   3.114
 4797TIP3    H214269   9.611   4.305   3.207
 4798TIP3   OH214270   0.150   4.616   3.962
 4798TIP3    H114271   0.083   4.579   4.019
 4798TIP3    H214272   0.211   4.544   3.947
 4799TIP3   OH214273   9.755   4.043   3.278
 4799TIP3    H114274   9.713   4.116   3.323
 4799TIP3    H214275   9.826   4.083   3.227
 4800TIP3   OH214276   9.326   3.868   3.090
 4800TIP3    H114277   9.235   3.847   3.111
 4800TIP3    H214278   9.339   3.956   3.127
 4801TIP3   OH214279   0.706   4.571   3.953
 4801TIP3    H114280   0.611   4.570   3.962
 4801TIP3    H214281   0.722   4.552   3.861
 4802TIP3   OH214282   0.366   4.753   3.324
 4802TIP3    H114283   0.285   4.702   3.331
 4802TIP3    H214284   0.427   4.710   3.385
 4803TIP3   OH214285   0.361   5.685   3.308
 4803TIP3    H114286   0.287   5.691   3.248
 4803TIP3    H214287   0.433   5.727   3.261
 4804TIP3   OH214288   9.333   5.271   2.569
 4804TIP3    H114289   9.294   5.190   2.536
 4804TIP3    H214290   9.425   5.264   2.546
 4805TIP3   OH214291   0.286   5.581   4.044
 4805TIP3    H114292   0.269   5.532   4.125
 4805TIP3    H214293   0.326   5.662   4.074
 4806TIP3   OH214294   0.038   5.343   2.363
 4806TIP3    H114295   0.056   5.274   2.426
 4806TIP3    H214296   0.082   5.314   2.283
 4807TIP3   OH214297   9.509   5.301   4.286
 4807TIP3    H114298   9.498   5.213   4.251
 4807TIP3    H214299   9.526   5.288   4.380
 4808TIP3   OH214300   9.615   4.979   2.484
 4808TIP3    H114301   9.585   5.001   2.572
 4808TIP3    H214302   9.592   4.887   2.473
 4809TIP3   OH214303   0.346   5.221   3.818
 4809TIP3    H114304   0.428   5.248   3.777
 4809TIP3    H214305   0.289   5.298   3.811
 4810TIP3   OH214306   9.211   4.661   2.837
 4810TIP3    H114307   9.292   4.620   2.867
 4810TIP3    H214308   9.181   4.605   2.765
 4811TIP3   OH214309   9.384   4.854   3.996
 4811TIP3    H114310   9.441   4.917   4.041
 4811TIP3    H214311   9.398   4.872   3.903
 4812TIP3   OH214312   9.363   4.424   2.702
 4812TIP3    H114313   9.347   4.460   2.615
 4812TIP3    H214314   9.445   4.463   2.730
 4813TIP3   OH214315   0.228   5.116   4.191
 4813TIP3    H114316   0.309   5.108   4.140
 4813TIP3    H214317   0.252   5.086   4.279
 4814TIP3   OH214318   0.328   4.828   2.380
 4814TIP3    H114319   0.311   4.782   2.297
 4814TIP3    H214320   0.304   4.919   2.362
 4815TIP3   OH214321   9.540   4.493   4.331
 4815TIP3    H114322   9.467   4.441   4.364
 4815TIP3    H214323   9.510   4.527   4.247
 4816TIP3   OH214324   9.615   4.232   4.012
 4816TIP3    H114325   9.666   4.313   4.023
 4816TIP3    H214326   9.548   4.255   3.948
 4817TIP3   OH214327   9.680   4.941   3.961
 4817TIP3    H114328   9.684   4.905   3.873
 4817TIP3    H214329   9.736   5.018   3.958
 4818TIP3   OH214330   0.464   4.807   4.294
 4818TIP3    H114331   0.493   4.719   4.320
 4818TIP3    H214332   0.533   4.838   4.235
 4819TIP3   OH214333   0.457   5.112   4.036
 4819TIP3    H114334   0.403   5.155   3.969
 4819TIP3    H214335   0.547   5.125   4.006
 4820TIP3   OH214336   9.757   4.034   4.132
 4820TIP3    H114337   9.713   4.105   4.087
 4820TIP3    H214338   9.697   3.960   4.125
 4821TIP3   OH214339   0.102   4.597   4.334
 4821TIP3    H114340   0.131   4.580   4.424
 4821TIP3    H214341   0.007   4.601   4.340
 4822TIP3   OH214342   0.325   4.508   4.194
 4822TIP3    H114343   0.244   4.524   4.242
 4822TIP3    H214344   0.393   4.504   4.261
 4823TIP3   OH214345   0.544   4.523   4.367
 4823TIP3    H114346   0.560   4.428   4.370
 4823TIP3    H214347   0.538   4.549   4.459
 4824TIP3   OH214348   0.018   4.066   4.401
 4824TIP3    H114349   0.092   4.006   4.394
 4824TIP3    H214350  -0.014   4.076   4.311
 4825TIP3   OH214351   0.131   4.301   4.504
 4825TIP3    H114352   0.107   4.210   4.490
 4825TIP3    H214353   0.058   4.338   4.553
 4826TIP3   OH214354   0.577   5.838   3.246
 4826TIP3    H114355   0.610   5.842   3.336
 4826TIP3    H214356   0.656   5.844   3.192
 4827TIP3   OH214357   0.613   5.806   3.532
 4827TIP3    H114358   0.573   5.719   3.521
 4827TIP3    H214359   0.681   5.793   3.597
 4828TIP3   OH214360   0.674   5.507   4.091
 4828TIP3    H114361   0.604   5.510   4.155
 4828TIP3    H214362   0.721   5.590   4.101
 4829TIP3   OH214363   0.483   5.023   2.729
 4829TIP3    H114364   0.538   5.093   2.694
 4829TIP3    H214365   0.534   4.986   2.801
 4830TIP3   OH214366   0.627   4.887   2.922
 4830TIP3    H114367   0.565   4.845   2.982
 4830TIP3    H214368   0.694   4.924   2.979
 4831TIP3   OH214369   0.667   5.289   3.356
 4831TIP3    H114370   0.715   5.214   3.320
 4831TIP3    H214371   0.680   5.359   3.292
 4832TIP3   OH214372   0.502   5.540   3.564
 4832TIP3    H114373   0.433   5.590   3.607
 4832TIP3    H214374   0.458   5.496   3.492
 4833TIP3   OH214375   0.515   4.797   2.577
 4833TIP3    H114376   0.451   4.803   2.506
 4833TIP3    H214377   0.502   4.876   2.629
 4834TIP3   OH214378   0.360   4.447   2.524
 4834TIP3    H114379   0.331   4.485   2.442
 4834TIP3    H214380   0.351   4.352   2.511
 4835TIP3   OH214381   0.435   4.737   3.059
 4835TIP3    H114382   0.438   4.643   3.045
 4835TIP3    H214383   0.418   4.747   3.153
 4836TIP3   OH214384   0.696   5.159   3.912
 4836TIP3    H114385   0.758   5.090   3.887
 4836TIP3    H214386   0.673   5.201   3.829
 4837TIP3   OH214387   0.861   4.935   3.912
 4837TIP3    H114388   0.791   4.904   3.970
 4837TIP3    H214389   0.936   4.881   3.935
 4838TIP3   OH214390   0.333   4.173   2.483
 4838TIP3    H114391   0.403   4.156   2.545
 4838TIP3    H214392   0.255   4.133   2.522
 4839TIP3   OH214393   0.417   4.466   2.953
 4839TIP3    H114394   0.461   4.381   2.963
 4839TIP3    H214395   0.457   4.503   2.874
 4840TIP3   OH214396   0.561   4.622   3.480
 4840TIP3    H114397   0.641   4.641   3.432
 4840TIP3    H214398   0.573   4.664   3.565
 4841TIP3   OH214399   0.640   4.774   3.704
 4841TIP3    H114400   0.571   4.804   3.764
 4841TIP3    H214401   0.666   4.853   3.657
 4842TIP3   OH214402   1.093   4.372   4.243
 4842TIP3    H114403   1.161   4.317   4.202
 4842TIP3    H214404   1.056   4.422   4.170
 4843TIP3   OH214405   0.522   4.213   2.999
 4843TIP3    H114406   0.567   4.198   3.082
 4843TIP3    H214407   0.459   4.142   2.992
 4844TIP3   OH214408   0.948   4.480   4.038
 4844TIP3    H114409   0.863   4.523   4.046
 4844TIP3    H214410   0.930   4.400   3.989
 4845TIP3   OH214411   0.558   4.125   2.635
 4845TIP3    H114412   0.610   4.063   2.584
 4845TIP3    H214413   0.613   4.203   2.643
 4846TIP3   OH214414   0.168   5.689   2.893
 4846TIP3    H114415   0.222   5.672   2.816
 4846TIP3    H214416   0.206   5.766   2.934
 4847TIP3   OH214417   9.544   5.718   3.895
 4847TIP3    H114418   9.533   5.676   3.980
 4847TIP3    H214419   9.619   5.776   3.905
 4848TIP3   OH214420   0.135   5.932   3.751
 4848TIP3    H114421   0.153   5.839   3.738
 4848TIP3    H214422   0.179   5.954   3.833
 4849TIP3   OH214423   0.855   4.238   3.935
 4849TIP3    H114424   0.768   4.236   3.894
 4849TIP3    H214425   0.886   4.148   3.931
 4850TIP3   OH214426   9.555   5.804   3.421
 4850TIP3    H114427   9.462   5.823   3.410
 4850TIP3    H214428   9.580   5.851   3.501
 4851TIP3   OH214429   0.060   5.756   3.482
 4851TIP3    H114430   0.003   5.789   3.551
 4851TIP3    H214431   0.129   5.822   3.474
 4852TIP3   OH214432   0.294   5.909   3.454
 4852TIP3    H114433   0.310   5.995   3.415
 4852TIP3    H214434   0.331   5.847   3.392
 4853TIP3   OH214435   0.074   4.153   3.597
 4853TIP3    H114436   0.039   4.072   3.634
 4853TIP3    H214437   0.137   4.123   3.531
 4854TIP3   OH214438   0.552   4.051   3.436
 4854TIP3    H114439   0.595   4.103   3.368
 4854TIP3    H214440   0.467   4.092   3.447
 4855TIP3   OH214441   0.677   4.160   3.219
 4855TIP3    H114442   0.744   4.097   3.193
 4855TIP3    H214443   0.719   4.245   3.209
 4856TIP3   OH214444   9.719   3.839   3.463
 4856TIP3    H114445   9.718   3.918   3.408
 4856TIP3    H214446   9.724   3.873   3.553
 4857TIP3   OH214447   0.265   4.048   3.430
 4857TIP3    H114448   0.269   4.011   3.341
 4857TIP3    H214449   0.270   3.972   3.488
 4858TIP3   OH214450   0.333   4.006   3.003
 4858TIP3    H114451   0.258   4.059   3.031
 4858TIP3    H214452   0.314   3.918   3.035
 4859TIP3   OH214453   9.610   4.051   3.038
 4859TIP3    H114454   9.667   4.037   3.113
 4859TIP3    H214455   9.535   4.099   3.073
 4860TIP3   OH214456   9.390   5.526   2.655
 4860TIP3    H114457   9.414   5.555   2.567
 4860TIP3    H214458   9.349   5.441   2.641
 4861TIP3   OH214459   0.295   5.643   2.654
 4861TIP3    H114460   0.290   5.547   2.653
 4861TIP3    H214461   0.260   5.670   2.569
 4862TIP3   OH214462   9.589   4.165   4.516
 4862TIP3    H114463   9.670   4.134   4.477
 4862TIP3    H214464   9.582   4.117   4.598
 4863TIP3   OH214465   0.608   4.255   4.367
 4863TIP3    H114466   0.623   4.222   4.455
 4863TIP3    H214467   0.693   4.246   4.323
 4864TIP3   OH214468   0.518   5.774   3.862
 4864TIP3    H114469   0.444   5.741   3.810
 4864TIP3    H214470   0.502   5.869   3.866
 4865TIP3   OH214471   1.787   5.176   2.607
 4865TIP3    H114472   1.752   5.261   2.581
 4865TIP3    H214473   1.716   5.114   2.589
 4866TIP3   OH214474   1.820   5.169   3.036
 4866TIP3    H114475   1.866   5.139   3.114
 4866TIP3    H214476   1.763   5.096   3.012
 4867TIP3   OH214477   1.075   5.011   3.384
 4867TIP3    H114478   1.121   4.960   3.452
 4867TIP3    H214479   1.145   5.039   3.325
 4868TIP3   OH214480   2.054   5.472   2.705
 4868TIP3    H114481   2.047   5.401   2.769
 4868TIP3    H214482   2.076   5.549   2.757
 4869TIP3   OH214483   1.061   5.438   3.056
 4869TIP3    H114484   1.046   5.344   3.042
 4869TIP3    H214485   1.153   5.451   3.032
 4870TIP3   OH214486   0.758   4.649   2.845
 4870TIP3    H114487   0.726   4.737   2.867
 4870TIP3    H214488   0.685   4.606   2.802
 4871TIP3   OH214489   0.856   4.973   3.062
 4871TIP3    H114490   0.905   4.895   3.091
 4871TIP3    H214491   0.923   5.033   3.030
 4872TIP3   OH214492   1.717   5.899   2.728
 4872TIP3    H114493   1.739   5.837   2.658
 4872TIP3    H214494   1.721   5.846   2.808
 4873TIP3   OH214495   1.572   5.398   3.033
 4873TIP3    H114496   1.601   5.331   2.971
 4873TIP3    H214497   1.653   5.437   3.066
 4874TIP3   OH214498   2.628   4.698   3.055
 4874TIP3    H114499   2.644   4.783   3.094
 4874TIP3    H214500   2.644   4.711   2.961
 4875TIP3   OH214501   2.005   4.866   3.071
 4875TIP3    H114502   2.034   4.779   3.099
 4875TIP3    H214503   1.966   4.852   2.985
 4876TIP3   OH214504   1.353   4.524   3.027
 4876TIP3    H114505   1.333   4.600   2.972
 4876TIP3    H214506   1.295   4.455   2.994
 4877TIP3   OH214507   2.053   4.629   2.669
 4877TIP3    H114508   2.116   4.622   2.741
 4877TIP3    H214509   2.104   4.662   2.595
 4878TIP3   OH214510   0.980   4.743   3.162
 4878TIP3    H114511   1.065   4.727   3.203
 4878TIP3    H214512   0.983   4.692   3.080
 4879TIP3   OH214513   1.401   4.921   3.026
 4879TIP3    H114514   1.494   4.915   3.006
 4879TIP3    H214515   1.359   4.865   2.960
 4880TIP3   OH214516   2.682   4.922   3.215
 4880TIP3    H114517   2.592   4.955   3.211
 4880TIP3    H214518   2.716   4.955   3.298
 4881TIP3   OH214519   1.336   4.530   3.480
 4881TIP3    H114520   1.288   4.569   3.407
 4881TIP3    H214521   1.281   4.547   3.556
 4882TIP3   OH214522   1.678   5.393   2.472
 4882TIP3    H114523   1.632   5.355   2.397
 4882TIP3    H214524   1.623   5.467   2.499
 4883TIP3   OH214525   1.428   5.307   3.250
 4883TIP3    H114526   1.372   5.378   3.284
 4883TIP3    H214527   1.472   5.345   3.175
 4884TIP3   OH214528   2.205   4.650   2.894
 4884TIP3    H114529   2.163   4.628   2.978
 4884TIP3    H214530   2.262   4.724   2.915
 4885TIP3   OH214531   1.229   4.639   3.249
 4885TIP3    H114532   1.284   4.715   3.270
 4885TIP3    H214533   1.274   4.597   3.176
 4886TIP3   OH214534   1.273   5.511   3.354
 4886TIP3    H114535   1.259   5.600   3.323
 4886TIP3    H214536   1.194   5.491   3.405
 4887TIP3   OH214537   0.641   5.213   2.609
 4887TIP3    H114538   0.618   5.240   2.520
 4887TIP3    H214539   0.661   5.295   2.654
 4888TIP3   OH214540   2.088   5.719   2.849
 4888TIP3    H114541   2.000   5.710   2.887
 4888TIP3    H214542   2.085   5.803   2.803
 4889TIP3   OH214543   2.429   4.590   3.225
 4889TIP3    H114544   2.345   4.610   3.185
 4889TIP3    H214545   2.494   4.616   3.159
 4890TIP3   OH214546   1.676   4.220   3.220
 4890TIP3    H114547   1.668   4.128   3.245
 4890TIP3    H214548   1.598   4.261   3.257
 4891TIP3   OH214549   1.794   5.758   2.500
 4891TIP3    H114550   1.845   5.677   2.492
 4891TIP3    H214551   1.854   5.827   2.470
 4892TIP3   OH214552   1.926   5.524   2.466
 4892TIP3    H114553   1.853   5.462   2.464
 4892TIP3    H214554   1.979   5.497   2.541
 4893TIP3   OH214555   2.328   5.600   3.191
 4893TIP3    H114556   2.306   5.526   3.135
 4893TIP3    H214557   2.314   5.677   3.136
 4894TIP3   OH214558   1.604   5.011   2.474
 4894TIP3    H114559   1.520   5.057   2.472
 4894TIP3    H214560   1.637   5.017   2.385
 4895TIP3   OH214561   1.579   4.826   2.143
 4895TIP3    H114562   1.643   4.873   2.197
 4895TIP3    H214563   1.630   4.757   2.099
 4896TIP3   OH214564   2.501   5.265   3.059
 4896TIP3    H114565   2.416   5.308   3.057
 4896TIP3    H214566   2.537   5.275   2.971
 4897TIP3   OH214567   1.970   5.103   2.417
 4897TIP3    H114568   1.916   5.132   2.491
 4897TIP3    H214569   2.052   5.075   2.458
 4898TIP3   OH214570   2.207   5.122   3.373
 4898TIP3    H114571   2.199   5.206   3.419
 4898TIP3    H214572   2.125   5.115   3.323
 4899TIP3   OH214573   1.321   5.487   2.947
 4899TIP3    H114574   1.299   5.423   2.878
 4899TIP3    H214575   1.408   5.461   2.976
 4900TIP3   OH214576   1.284   5.074   3.213
 4900TIP3    H114577   1.327   5.028   3.141
 4900TIP3    H214578   1.335   5.155   3.224
 4901TIP3   OH214579   1.848   5.711   2.979
 4901TIP3    H114580   1.838   5.786   3.037
 4901TIP3    H214581   1.834   5.635   3.035
 4902TIP3   OH214582   1.474   5.605   3.521
 4902TIP3    H114583   1.413   5.662   3.567
 4902TIP3    H214584   1.419   5.553   3.463
 4903TIP3   OH214585   1.798   4.959   2.256
 4903TIP3    H114586   1.856   5.018   2.305
 4903TIP3    H214587   1.832   4.961   2.166
 4904TIP3   OH214588   1.224   5.153   3.676
 4904TIP3    H114589   1.228   5.248   3.689
 4904TIP3    H214590   1.131   5.133   3.664
 4905TIP3   OH214591   1.546   5.636   2.510
 4905TIP3    H114592   1.629   5.684   2.515
 4905TIP3    H214593   1.490   5.690   2.454
 4906TIP3   OH214594   1.265   5.764   3.605
 4906TIP3    H114595   1.236   5.773   3.514
 4906TIP3    H214596   1.184   5.746   3.654
 4907TIP3   OH214597   2.310   4.180   2.306
 4907TIP3    H114598   2.235   4.204   2.361
 4907TIP3    H214599   2.326   4.257   2.252
 4908TIP3   OH214600   1.052   4.876   2.573
 4908TIP3    H114601   0.977   4.935   2.569
 4908TIP3    H214602   1.042   4.829   2.656
 4909TIP3   OH214603   2.139   5.558   1.871
 4909TIP3    H114604   2.131   5.651   1.849
 4909TIP3    H214605   2.229   5.536   1.846
 4910TIP3   OH214606   0.863   5.325   3.557
 4910TIP3    H114607   0.792   5.307   3.494
 4910TIP3    H214608   0.893   5.239   3.585
 4911TIP3   OH214609   0.765   5.498   3.190
 4911TIP3    H114610   0.847   5.475   3.147
 4911TIP3    H214611   0.789   5.567   3.252
 4912TIP3   OH214612   2.556   5.973   3.260
 4912TIP3    H114613   2.563   5.878   3.270
 4912TIP3    H214614   2.477   5.997   3.308
 4913TIP3   OH214615   1.658   5.753   3.382
 4913TIP3    H114616   1.648   5.844   3.412
 4913TIP3    H214617   1.593   5.704   3.432
 4914TIP3   OH214618   1.437   5.840   2.335
 4914TIP3    H114619   1.380   5.813   2.262
 4914TIP3    H214620   1.401   5.923   2.364
 4915TIP3   OH214621   0.872   5.715   2.743
 4915TIP3    H114622   0.932   5.708   2.817
 4915TIP3    H214623   0.888   5.638   2.690
 4916TIP3   OH214624   1.642   5.779   1.968
 4916TIP3    H114625   1.695   5.706   1.935
 4916TIP3    H214626   1.674   5.794   2.057
 4917TIP3   OH214627   1.692   5.826   2.235
 4917TIP3    H114628   1.604   5.826   2.272
 4917TIP3    H214629   1.746   5.785   2.303
 4918TIP3   OH214630   2.448   5.075   3.525
 4918TIP3    H114631   2.365   5.086   3.479
 4918TIP3    H214632   2.465   4.981   3.521
 4919TIP3   OH214633   1.054   5.518   3.524
 4919TIP3    H114634   1.106   5.506   3.604
 4919TIP3    H214635   0.985   5.451   3.530
 4920TIP3   OH214636   1.436   4.310   3.341
 4920TIP3    H114637   1.352   4.278   3.308
 4920TIP3    H214638   1.415   4.393   3.385
 4921TIP3   OH214639   1.981   4.437   3.544
 4921TIP3    H114640   2.050   4.412   3.605
 4921TIP3    H214641   1.900   4.421   3.592
 4922TIP3   OH214642   2.201   4.856   3.463
 4922TIP3    H114643   2.162   4.851   3.550
 4922TIP3    H214644   2.187   4.946   3.434
 4923TIP3   OH214645   1.887   4.932   1.998
 4923TIP3    H114646   1.838   4.940   1.916
 4923TIP3    H214647   1.970   4.978   1.981
 4924TIP3   OH214648   1.586   4.360   2.310
 4924TIP3    H114649   1.551   4.367   2.399
 4924TIP3    H214650   1.551   4.277   2.277
 4925TIP3   OH214651   1.380   4.849   3.353
 4925TIP3    H114652   1.334   4.855   3.436
 4925TIP3    H214653   1.356   4.929   3.306
 4926TIP3   OH214654   1.257   4.730   2.873
 4926TIP3    H114655   1.167   4.708   2.897
 4926TIP3    H214656   1.265   4.701   2.782
 4927TIP3   OH214657   1.734   4.803   2.601
 4927TIP3    H114658   1.685   4.876   2.562
 4927TIP3    H214659   1.791   4.773   2.530
 4928TIP3   OH214660   1.922   5.066   3.668
 4928TIP3    H114661   1.895   4.999   3.731
 4928TIP3    H214662   2.015   5.081   3.689
 4929TIP3   OH214663   1.905   4.813   2.821
 4929TIP3    H114664   1.835   4.833   2.758
 4929TIP3    H214665   1.953   4.740   2.781
 4930TIP3   OH214666   1.218   4.861   3.575
 4930TIP3    H114667   1.237   4.923   3.646
 4930TIP3    H214668   1.202   4.778   3.620
 4931TIP3   OH214669   1.248   4.332   2.293
 4931TIP3    H114670   1.242   4.345   2.387
 4931TIP3    H214671   1.173   4.381   2.258
 4932TIP3   OH214672   0.815   4.383   3.156
 4932TIP3    H114673   0.881   4.421   3.213
 4932TIP3    H214674   0.854   4.386   3.068
 4933TIP3   OH214675   0.704   4.359   2.653
 4933TIP3    H114676   0.750   4.394   2.576
 4933TIP3    H214677   0.643   4.428   2.678
 4934TIP3   OH214678   1.962   5.062   3.252
 4934TIP3    H114679   1.985   4.995   3.187
 4934TIP3    H214680   1.913   5.014   3.318
 4935TIP3   OH214681   1.622   4.511   2.921
 4935TIP3    H114682   1.543   4.513   2.975
 4935TIP3    H214683   1.694   4.505   2.984
 4936TIP3   OH214684   1.016   4.602   2.930
 4936TIP3    H114685   0.930   4.607   2.890
 4936TIP3    H214686   1.048   4.514   2.911
 4937TIP3   OH214687   1.269   4.604   2.628
 4937TIP3    H114688   1.363   4.617   2.618
 4937TIP3    H214689   1.232   4.624   2.542
 4938TIP3   OH214690   2.063   4.603   3.133
 4938TIP3    H114691   2.045   4.621   3.225
 4938TIP3    H214692   1.995   4.542   3.106
 4939TIP3   OH214693   1.172   4.616   2.372
 4939TIP3    H114694   1.102   4.578   2.319
 4939TIP3    H214695   1.220   4.673   2.311
 4940TIP3   OH214696   2.269   6.311   3.353
 4940TIP3    H114697   2.270   6.323   3.258
 4940TIP3    H214698   2.349   6.355   3.383
 4941TIP3   OH214699   1.210   5.423   3.757
 4941TIP3    H114700   1.292   5.441   3.803
 4941TIP3    H214701   1.142   5.431   3.824
 4942TIP3   OH214702   1.684   4.896   3.029
 4942TIP3    H114703   1.747   4.844   2.978
 4942TIP3    H214704   1.678   4.850   3.113
 4943TIP3   OH214705   1.154   4.354   2.912
 4943TIP3    H114706   1.127   4.277   2.962
 4943TIP3    H214707   1.172   4.320   2.824
 4944TIP3   OH214708   1.644   4.787   3.290
 4944TIP3    H114709   1.556   4.819   3.310
 4944TIP3    H214710   1.702   4.841   3.343
 4945TIP3   OH214711   1.362   5.160   2.460
 4945TIP3    H114712   1.291   5.103   2.431
 4945TIP3    H214713   1.334   5.190   2.547
 4946TIP3   OH214714   2.268   5.401   3.011
 4946TIP3    H114715   2.305   5.450   2.937
 4946TIP3    H214716   2.191   5.358   2.974
 4947TIP3   OH214717   1.839   4.464   2.325
 4947TIP3    H114718   1.746   4.443   2.318
 4947TIP3    H214719   1.842   4.559   2.336
 4948TIP3   OH214720   1.794   5.486   3.415
 4948TIP3    H114721   1.844   5.472   3.496
 4948TIP3    H214722   1.750   5.569   3.428
 4949TIP3   OH214723   1.898   4.730   2.384
 4949TIP3    H114724   1.993   4.734   2.392
 4949TIP3    H214725   1.875   4.807   2.333
 4950TIP3   OH214726   1.081   5.153   3.010
 4950TIP3    H114727   1.124   5.171   2.927
 4950TIP3    H214728   1.152   5.125   3.068
 4951TIP3   OH214729   1.509   5.291   2.266
 4951TIP3    H114730   1.467   5.377   2.256
 4951TIP3    H214731   1.455   5.246   2.330
 4952TIP3   OH214732   0.949   5.092   3.691
 4952TIP3    H114733   0.954   5.062   3.782
 4952TIP3    H214734   0.878   5.041   3.652
 4953TIP3   OH214735   1.694   5.226   3.707
 4953TIP3    H114736   1.624   5.167   3.679
 4953TIP3    H214737   1.774   5.183   3.678
 4954TIP3   OH214738   1.930   5.778   3.311
 4954TIP3    H114739   1.835   5.762   3.314
 4954TIP3    H214740   1.952   5.809   3.399
 4955TIP3   OH214741   2.323   4.807   2.189
 4955TIP3    H114742   2.264   4.762   2.129
 4955TIP3    H214743   2.324   4.898   2.159
 4956TIP3   OH214744   2.572   5.698   3.276
 4956TIP3    H114745   2.479   5.674   3.277
 4956TIP3    H214746   2.605   5.662   3.193
 4957TIP3   OH214747   2.055   5.625   2.138
 4957TIP3    H114748   2.027   5.556   2.199
 4957TIP3    H214749   2.075   5.579   2.057
 4958TIP3   OH214750   2.052   5.262   2.897
 4958TIP3    H114751   1.966   5.240   2.933
 4958TIP3    H214752   2.084   5.181   2.858
 4959TIP3   OH214753   1.116   5.552   2.681
 4959TIP3    H114754   1.211   5.556   2.669
 4959TIP3    H214755   1.098   5.462   2.706
 4960TIP3   OH214756   0.749   4.780   2.432
 4960TIP3    H114757   0.796   4.861   2.454
 4960TIP3    H214758   0.671   4.782   2.486
 4961TIP3   OH214759   1.478   5.811   3.169
 4961TIP3    H114760   1.514   5.887   3.123
 4961TIP3    H214761   1.550   5.779   3.223
 4962TIP3   OH214762   1.074   5.771   2.513
 4962TIP3    H114763   1.075   5.709   2.585
 4962TIP3    H214764   1.092   5.856   2.554
 4963TIP3   OH214765   1.818   5.478   3.138
 4963TIP3    H114766   1.815   5.478   3.234
 4963TIP3    H214767   1.866   5.399   3.116
 4964TIP3   OH214768   1.821   5.361   2.015
 4964TIP3    H114769   1.873   5.334   2.091
 4964TIP3    H214770   1.738   5.315   2.026
 4965TIP3   OH214771   2.087   5.976   3.192
 4965TIP3    H114772   2.021   5.912   3.219
 4965TIP3    H214773   2.044   6.027   3.124
 4966TIP3   OH214774   2.132   5.831   1.824
 4966TIP3    H114775   2.153   5.895   1.755
 4966TIP3    H214776   2.060   5.872   1.873
 4967TIP3   OH214777   1.169   4.605   3.690
 4967TIP3    H114778   1.074   4.612   3.695
 4967TIP3    H214779   1.193   4.553   3.767
 4968TIP3   OH214780   2.000   5.283   2.207
 4968TIP3    H114781   1.982   5.230   2.284
 4968TIP3    H214782   2.096   5.288   2.203
 4969TIP3   OH214783   0.894   5.705   3.350
 4969TIP3    H114784   0.949   5.646   3.401
 4969TIP3    H214785   0.906   5.791   3.391
 4970TIP3   OH214786   1.167   5.331   2.046
 4970TIP3    H114787   1.179   5.241   2.018
 4970TIP3    H214788   1.158   5.326   2.141
 4971TIP3   OH214789   1.117   5.354   2.321
 4971TIP3    H114790   1.168   5.331   2.399
 4971TIP3    H214791   1.118   5.449   2.320
 4972TIP3   OH214792   0.833   5.034   2.514
 4972TIP3    H114793   0.772   5.084   2.568
 4972TIP3    H214794   0.863   5.095   2.447
 4973TIP3   OH214795   2.008   4.667   3.395
 4973TIP3    H114796   2.086   4.713   3.427
 4973TIP3    H214797   2.000   4.590   3.451
 4974TIP3   OH214798   1.906   4.407   2.588
 4974TIP3    H114799   1.882   4.427   2.497
 4974TIP3    H214800   1.949   4.487   2.619
 4975TIP3   OH214801   1.387   5.533   2.238
 4975TIP3    H114802   1.299   5.556   2.269
 4975TIP3    H214803   1.409   5.603   2.176
 4976TIP3   OH214804   1.550   4.609   2.670
 4976TIP3    H114805   1.610   4.679   2.645
 4976TIP3    H214806   1.573   4.588   2.760
 4977TIP3   OH214807   1.847   4.901   3.443
 4977TIP3    H114808   1.872   4.943   3.525
 4977TIP3    H214809   1.896   4.819   3.442
 4978TIP3   OH214810   1.714   4.303   2.757
 4978TIP3    H114811   1.689   4.380   2.808
 4978TIP3    H214812   1.785   4.333   2.701
 4979TIP3   OH214813   1.133   5.629   2.292
 4979TIP3    H114814   1.112   5.692   2.223
 4979TIP3    H214815   1.110   5.674   2.373
 4980TIP3   OH214816   1.226   4.332   2.574
 4980TIP3    H114817   1.215   4.424   2.598
 4980TIP3    H214818   1.320   4.317   2.578
 4981TIP3   OH214819   2.464   4.797   3.432
 4981TIP3    H114820   2.370   4.808   3.447
 4981TIP3    H214821   2.470   4.734   3.361
 4982TIP3   OH214822   2.133   5.000   2.814
 4982TIP3    H114823   2.054   4.947   2.827
 4982TIP3    H214824   2.198   4.961   2.871
 4983TIP3   OH214825   0.880   5.215   2.304
 4983TIP3    H114826   0.954   5.273   2.318
 4983TIP3    H214827   0.911   5.152   2.239
 4984TIP3   OH214828   0.776   4.503   2.433
 4984TIP3    H114829   0.789   4.598   2.443
 4984TIP3    H214830   0.742   4.492   2.345
 4985TIP3   OH214831   2.112   5.986   2.765
 4985TIP3    H114832   2.074   6.041   2.697
 4985TIP3    H214833   2.207   5.994   2.752
 4986TIP3   OH214834   1.173   4.227   3.298
 4986TIP3    H114835   1.143   4.197   3.213
 4986TIP3    H214836   1.166   4.151   3.355
 4987TIP3   OH214837   0.679   5.466   2.711
 4987TIP3    H114838   0.674   5.525   2.786
 4987TIP3    H214839   0.667   5.524   2.635
 4988TIP3   OH214840   0.919   6.001   3.746
 4988TIP3    H114841   1.001   5.999   3.796
 4988TIP3    H214842   0.891   5.910   3.740
 4989TIP3   OH214843   1.375   5.924   3.800
 4989TIP3    H114844   1.464   5.891   3.811
 4989TIP3    H214845   1.339   5.872   3.728
 4990TIP3   OH214846   1.323   5.522   1.920
 4990TIP3    H114847   1.275   5.454   1.968
 4990TIP3    H214848   1.398   5.476   1.882
 4991TIP3   OH214849   1.986   5.867   3.564
 4991TIP3    H114850   2.001   5.797   3.627
 4991TIP3    H214851   2.060   5.927   3.577
 4992TIP3   OH214852   1.776   5.573   1.851
 4992TIP3    H114853   1.807   5.506   1.912
 4992TIP3    H214854   1.835   5.565   1.776
 4993TIP3   OH214855   1.015   5.421   3.956
 4993TIP3    H114856   1.025   5.327   3.966
 4993TIP3    H214857   0.933   5.431   3.907
 4994TIP3   OH214858   0.996   5.026   2.145
 4994TIP3    H114859   1.048   5.002   2.221
 4994TIP3    H214860   1.061   5.039   2.075
 4995TIP3   OH214861   1.627   5.502   3.726
 4995TIP3    H114862   1.583   5.523   3.644
 4995TIP3    H214863   1.663   5.414   3.712
 4996TIP3   OH214864   1.568   5.243   1.999
 4996TIP3    H114865   1.539   5.250   2.090
 4996TIP3    H214866   1.544   5.154   1.972
 4997TIP3   OH214867   2.106   5.557   3.354
 4997TIP3    H114868   2.181   5.581   3.301
 4997TIP3    H214869   2.038   5.621   3.331
 4998TIP3   OH214870   1.116   5.159   3.958
 4998TIP3    H114871   1.189   5.148   3.897
 4998TIP3    H214872   1.158   5.180   4.042
 4999TIP3   OH214873   1.175   4.975   2.352
 4999TIP3    H114874   1.139   4.935   2.431
 4999TIP3    H214875   1.226   4.905   2.311
 5000TIP3   OH214876   1.480   5.046   3.622
 5000TIP3    H114877   1.395   5.089   3.633
 5000TIP3    H214878   1.510   5.075   3.536
 5001TIP3   OH214879   1.310   4.785   2.202
 5001TIP3    H114880   1.278   4.789   2.112
 5001TIP3    H214881   1.405   4.795   2.195
 5002TIP3   OH214882   1.982   5.421   3.690
 5002TIP3    H114883   2.051   5.383   3.636
 5002TIP3    H214884   1.979   5.364   3.768
 5003TIP3   OH214885   2.099   5.071   1.881
 5003TIP3    H114886   2.088   5.029   1.796
 5003TIP3    H214887   2.075   5.162   1.866
 5004TIP3   OH214888   1.583   4.813   3.723
 5004TIP3    H114889   1.587   4.743   3.657
 5004TIP3    H214890   1.549   4.889   3.676
 5005TIP3   OH214891   1.595   4.616   3.518
 5005TIP3    H114892   1.622   4.654   3.435
 5005TIP3    H214893   1.504   4.589   3.503
 5006TIP3   OH214894   1.594   5.147   3.398
 5006TIP3    H114895   1.683   5.175   3.378
 5006TIP3    H214896   1.538   5.204   3.346
 5007TIP3   OH214897   2.190   5.102   3.767
 5007TIP3    H114898   2.229   5.015   3.774
 5007TIP3    H214899   2.265   5.161   3.759
 5008TIP3   OH214900   2.219   5.368   3.512
 5008TIP3    H114901   2.168   5.434   3.463
 5008TIP3    H214902   2.309   5.380   3.481
 5009TIP3   OH214903   1.471   4.896   3.967
 5009TIP3    H114904   1.402   4.832   3.988
 5009TIP3    H214905   1.499   4.873   3.879
 5010TIP3   OH214906   1.716   4.386   3.622
 5010TIP3    H114907   1.676   4.466   3.589
 5010TIP3    H214908   1.649   4.319   3.609
 5011TIP3   OH214909   1.839   4.857   3.825
 5011TIP3    H114910   1.829   4.843   3.920
 5011TIP3    H214911   1.753   4.834   3.789
 5012TIP3   OH214912   2.088   4.813   3.703
 5012TIP3    H114913   2.009   4.812   3.756
 5012TIP3    H214914   2.158   4.787   3.764
 5013TIP3   OH214915   2.325   4.778   3.849
 5013TIP3    H114916   2.339   4.683   3.856
 5013TIP3    H214917   2.321   4.807   3.940
 5014TIP3   OH214918   1.304   4.677   4.030
 5014TIP3    H114919   1.311   4.589   3.993
 5014TIP3    H214920   1.343   4.669   4.117
 5015TIP3   OH214921   1.779   4.361   3.888
 5015TIP3    H114922   1.848   4.294   3.884
 5015TIP3    H214923   1.751   4.372   3.797
 5016TIP3   OH214924   1.882   4.581   4.019
 5016TIP3    H114925   1.848   4.506   3.969
 5016TIP3    H214926   1.807   4.641   4.026
 5017TIP3   OH214927   1.128   5.838   2.106
 5017TIP3    H114928   1.218   5.814   2.085
 5017TIP3    H214929   1.093   5.876   2.026
 5018TIP3   OH214930   0.608   5.213   2.305
 5018TIP3    H114931   0.704   5.222   2.311
 5018TIP3    H214932   0.594   5.124   2.275
 5019TIP3   OH214933   0.494   5.797   2.771
 5019TIP3    H114934   0.437   5.737   2.723
 5019TIP3    H214935   0.539   5.742   2.835
 5020TIP3   OH214936   0.635   5.637   2.952
 5020TIP3    H114937   0.631   5.566   3.016
 5020TIP3    H214938   0.698   5.699   2.988
 5021TIP3   OH214939   2.385   6.027   2.756
 5021TIP3    H114940   2.405   6.052   2.846
 5021TIP3    H214941   2.444   6.080   2.703
 5022TIP3   OH214942   2.405   6.059   3.036
 5022TIP3    H114943   2.357   5.976   3.031
 5022TIP3    H214944   2.473   6.043   3.101
 5023TIP3   OH214945   2.458   5.764   3.604
 5023TIP3    H114946   2.385   5.773   3.665
 5023TIP3    H214947   2.505   5.848   3.611
 5024TIP3   OH214948   2.280   5.280   2.213
 5024TIP3    H114949   2.338   5.350   2.185
 5024TIP3    H214950   2.323   5.241   2.288
 5025TIP3   OH214951   2.405   5.136   2.415
 5025TIP3    H114952   2.336   5.097   2.469
 5025TIP3    H214953   2.469   5.169   2.477
 5026TIP3   OH214954   2.451   5.538   2.850
 5026TIP3    H114955   2.503   5.468   2.811
 5026TIP3    H214956   2.454   5.609   2.786
 5027TIP3   OH214957   2.261   5.821   3.040
 5027TIP3    H114958   2.195   5.866   3.093
 5027TIP3    H214959   2.212   5.780   2.969
 5028TIP3   OH214960   2.304   5.051   2.063
 5028TIP3    H114961   2.233   5.051   1.999
 5028TIP3    H214962   2.290   5.130   2.115
 5029TIP3   OH214963   2.160   4.704   1.997
 5029TIP3    H114964   2.108   4.733   1.922
 5029TIP3    H214965   2.158   4.608   1.992
 5030TIP3   OH214966   2.197   4.997   2.544
 5030TIP3    H114967   2.200   4.902   2.527
 5030TIP3    H214968   2.179   5.003   2.638
 5031TIP3   OH214969   0.819   5.060   3.319
 5031TIP3    H114970   0.814   5.032   3.228
 5031TIP3    H214971   0.911   5.052   3.342
 5032TIP3   OH214972   2.475   5.408   3.412
 5032TIP3    H114973   2.544   5.344   3.397
 5032TIP3    H214974   2.475   5.462   3.332
 5033TIP3   OH214975   2.659   5.201   3.404
 5033TIP3    H114976   2.584   5.158   3.447
 5033TIP3    H214977   2.734   5.145   3.424
 5034TIP3   OH214978   2.133   4.432   1.972
 5034TIP3    H114979   2.198   4.405   2.037
 5034TIP3    H214980   2.050   4.396   2.004
 5035TIP3   OH214981   2.193   4.723   2.433
 5035TIP3    H114982   2.236   4.639   2.450
 5035TIP3    H214983   2.236   4.757   2.355
 5036TIP3   OH214984   2.345   4.882   2.963
 5036TIP3    H114985   2.426   4.898   2.914
 5036TIP3    H214986   2.359   4.923   3.048
 5037TIP3   OH214987   2.420   5.033   3.189
 5037TIP3    H114988   2.349   5.061   3.247
 5037TIP3    H214989   2.450   5.114   3.147
 5038TIP3   OH214990   1.041   4.732   3.965
 5038TIP3    H114991   1.135   4.732   3.984
 5038TIP3    H214992   1.009   4.651   4.004
 5039TIP3   OH214993   2.883   4.626   3.729
 5039TIP3    H114994   2.950   4.572   3.686
 5039TIP3    H214995   2.845   4.677   3.657
 5040TIP3   OH214996   2.304   4.474   2.494
 5040TIP3    H114997   2.350   4.456   2.576
 5040TIP3    H214998   2.244   4.400   2.483
 5041TIP3   OH214999   1.019   4.457   3.329
 5041TIP3    H115000   1.072   4.377   3.328
 5041TIP3    H215001   1.081   4.527   3.305
 5042TIP3   OH215002   0.799   4.718   3.378
 5042TIP3    H115003   0.850   4.709   3.297
 5042TIP3    H215004   0.825   4.804   3.413
 5043TIP3   OH215005   2.732   4.748   3.535
 5043TIP3    H115006   2.653   4.787   3.571
 5043TIP3    H215007   2.701   4.677   3.479
 5044TIP3   OH215008   2.359   4.385   2.130
 5044TIP3    H115009   2.399   4.324   2.068
 5044TIP3    H215010   2.418   4.460   2.132
 5045TIP3   OH215011   0.783   4.215   2.871
 5045TIP3    H115012   0.700   4.209   2.918
 5045TIP3    H215013   0.765   4.274   2.798
 5046TIP3   OH215014   1.943   5.958   2.396
 5046TIP3    H115015   1.995   5.937   2.318
 5046TIP3    H215016   1.996   6.022   2.443
 5047TIP3   OH215017   1.012   4.270   3.701
 5047TIP3    H115018   0.961   4.265   3.782
 5047TIP3    H215019   0.958   4.323   3.642
 5048TIP3   OH215020   1.050   5.729   3.780
 5048TIP3    H115021   0.956   5.715   3.768
 5048TIP3    H215022   1.064   5.718   3.874
 5049TIP3   OH215023   1.249   5.786   3.321
 5049TIP3    H115024   1.201   5.864   3.293
 5049TIP3    H215025   1.332   5.791   3.273
 5050TIP3   OH215026   1.640   6.019   3.464
 5050TIP3    H115027   1.678   6.009   3.551
 5050TIP3    H215028   1.702   6.075   3.417
 5051TIP3   OH215029   1.830   6.177   3.337
 5051TIP3    H115030   1.888   6.118   3.290
 5051TIP3    H215031   1.888   6.231   3.390
 5052TIP3   OH215032   2.645   4.498   3.425
 5052TIP3    H115033   2.559   4.493   3.383
 5052TIP3    H215034   2.680   4.409   3.420
 5053TIP3   OH215035   0.913   6.031   3.373
 5053TIP3    H115036   0.824   6.057   3.351
 5053TIP3    H215037   0.939   6.092   3.442
 5054TIP3   OH215038   1.144   6.022   3.225
 5054TIP3    H115039   1.061   6.024   3.273
 5054TIP3    H215040   1.119   6.040   3.134
 5055TIP3   OH215041   1.552   6.033   3.016
 5055TIP3    H115042   1.476   6.041   2.957
 5055TIP3    H215043   1.557   6.118   3.060
 5056TIP3   OH215044   1.817   5.977   3.070
 5056TIP3    H115045   1.725   5.992   3.048
 5056TIP3    H215046   1.865   6.043   3.020
 5057TIP3   OH215047   2.018   6.148   2.967
 5057TIP3    H115048   2.019   6.234   2.925
 5057TIP3    H215049   2.050   6.088   2.900
 5058TIP3   OH215050   0.822   5.807   3.100
 5058TIP3    H115051   0.845   5.778   3.188
 5058TIP3    H215052   0.894   5.776   3.045
 5059TIP3   OH215053   1.032   5.700   2.968
 5059TIP3    H115054   1.038   5.608   2.994
 5059TIP3    H215055   1.123   5.728   2.958
 5060TIP3   OH215056   1.305   5.765   2.953
 5060TIP3    H115057   1.314   5.672   2.932
 5060TIP3    H215058   1.360   5.777   3.031
 5061TIP3   OH215059   1.852   4.422   3.063
 5061TIP3    H115060   1.813   4.350   3.113
 5061TIP3    H215061   1.919   4.380   3.010
 5062TIP3   OH215062   2.350   4.344   2.955
 5062TIP3    H115063   2.385   4.391   2.880
 5062TIP3    H215064   2.256   4.362   2.953
 5063TIP3   OH215065   2.462   4.415   2.715
 5063TIP3    H115066   2.533   4.357   2.687
 5063TIP3    H215067   2.500   4.503   2.709
 5064TIP3   OH215068   1.084   4.124   3.057
 5064TIP3    H115069   0.995   4.089   3.064
 5064TIP3    H215070   1.140   4.046   3.049
 5065TIP3   OH215071   0.917   4.027   2.712
 5065TIP3    H115072   0.943   4.078   2.635
 5065TIP3    H215073   0.877   4.091   2.770
 5066TIP3   OH215074   1.575   4.160   2.959
 5066TIP3    H115075   1.620   4.208   2.890
 5066TIP3    H215076   1.614   4.191   3.040
 5067TIP3   OH215077   2.063   4.301   2.931
 5067TIP3    H115078   2.079   4.267   2.843
 5067TIP3    H215079   2.071   4.225   2.988
 5068TIP3   OH215080   2.124   4.259   2.495
 5068TIP3    H115081   2.045   4.306   2.523
 5068TIP3    H215082   2.115   4.173   2.536
 5069TIP3   OH215083   0.622   5.609   2.482
 5069TIP3    H115084   0.543   5.567   2.448
 5069TIP3    H215085   0.622   5.696   2.443
 5070TIP3   OH215086   1.017   4.165   2.484
 5070TIP3    H115087   1.062   4.105   2.424
 5070TIP3    H215088   1.087   4.222   2.518
 5071TIP3   OH215089   1.502   4.357   2.574
 5071TIP3    H115090   1.562   4.306   2.628
 5071TIP3    H215091   1.515   4.447   2.602
 5072TIP3   OH215092   1.381   5.751   2.053
 5072TIP3    H115093   1.468   5.774   2.021
 5072TIP3    H215094   1.355   5.676   2.000
 5073TIP3   OH215095   2.090   5.894   2.168
 5073TIP3    H115096   2.083   5.799   2.163
 5073TIP3    H215097   2.046   5.926   2.089
 5074TIP3   OH215098   1.322   4.407   3.939
 5074TIP3    H115099   1.288   4.342   4.001
 5074TIP3    H215100   1.414   4.416   3.962
 5075TIP3   OH215101   1.567   4.411   4.067
 5075TIP3    H115102   1.644   4.390   4.014
 5075TIP3    H215103   1.565   4.344   4.135
 5076TIP3   OH215104   0.706   5.594   2.131
 5076TIP3    H115105   0.713   5.593   2.227
 5076TIP3    H215106   0.781   5.543   2.101
 5077TIP3   OH215107   2.387   4.506   3.851
 5077TIP3    H115108   2.404   4.476   3.940
 5077TIP3    H215109   2.472   4.500   3.807
 5078TIP3   OH215110   2.306   6.037   3.356
 5078TIP3    H115111   2.232   6.006   3.303
 5078TIP3    H215112   2.290   6.131   3.366
 5079TIP3   OH215113   3.588   5.430   2.085
 5079TIP3    H115114   3.553   5.515   2.059
 5079TIP3    H215115   3.517   5.368   2.069
 5080TIP3   OH215116   3.576   5.416   2.523
 5080TIP3    H115117   3.633   5.399   2.598
 5080TIP3    H215118   3.533   5.332   2.507
 5081TIP3   OH215119   2.876   5.273   2.862
 5081TIP3    H115120   2.916   5.222   2.933
 5081TIP3    H215121   2.950   5.297   2.806
 5082TIP3   OH215122   3.840   5.732   2.190
 5082TIP3    H115123   3.836   5.661   2.255
 5082TIP3    H215124   3.866   5.809   2.240
 5083TIP3   OH215125   2.876   5.702   2.536
 5083TIP3    H115126   2.855   5.609   2.546
 5083TIP3    H215127   2.971   5.706   2.538
 5084TIP3   OH215128   2.554   4.911   2.328
 5084TIP3    H115129   2.513   4.994   2.354
 5084TIP3    H215130   2.483   4.858   2.293
 5085TIP3   OH215131   2.634   5.218   2.560
 5085TIP3    H115132   2.683   5.140   2.585
 5085TIP3    H215133   2.701   5.281   2.532
 5086TIP3   OH215134   3.518   6.137   2.210
 5086TIP3    H115135   3.547   6.077   2.141
 5086TIP3    H215136   3.537   6.090   2.292
 5087TIP3   OH215137   3.393   5.638   2.523
 5087TIP3    H115138   3.438   5.556   2.502
 5087TIP3    H215139   3.461   5.697   2.554
 5088TIP3   OH215140   4.427   4.951   2.540
 5088TIP3    H115141   4.442   5.034   2.584
 5088TIP3    H215142   4.458   4.965   2.450
 5089TIP3   OH215143   3.791   5.125   2.558
 5089TIP3    H115144   3.822   5.040   2.588
 5089TIP3    H215145   3.757   5.109   2.470
 5090TIP3   OH215146   3.152   4.778   2.513
 5090TIP3    H115147   3.127   4.852   2.457
 5090TIP3    H215148   3.097   4.706   2.485
 5091TIP3   OH215149   3.848   4.883   2.153
 5091TIP3    H115150   3.909   4.878   2.226
 5091TIP3    H215151   3.900   4.917   2.080
 5092TIP3   OH215152   2.774   4.996   2.648
 5092TIP3    H115153   2.858   4.976   2.691
 5092TIP3    H215154   2.776   4.943   2.568
 5093TIP3   OH215155   3.189   5.198   2.462
 5093TIP3    H115156   3.283   5.182   2.469
 5093TIP3    H215157   3.153   5.115   2.431
 5094TIP3   OH215158   4.476   5.168   2.706
 5094TIP3    H115159   4.390   5.210   2.701
 5094TIP3    H215160   4.518   5.210   2.781
 5095TIP3   OH215161   3.130   4.788   2.968
 5095TIP3    H115162   3.081   4.822   2.894
 5095TIP3    H215163   3.075   4.804   3.044
 5096TIP3   OH215164   3.478   5.643   1.943
 5096TIP3    H115165   3.440   5.609   1.862
 5096TIP3    H215166   3.423   5.718   1.966
 5097TIP3   OH215167   3.221   5.563   2.728
 5097TIP3    H115168   3.169   5.636   2.763
 5097TIP3    H215169   3.273   5.603   2.658
 5098TIP3   OH215170   3.998   4.912   2.379
 5098TIP3    H115171   3.956   4.890   2.462
 5098TIP3    H215172   4.056   4.986   2.400
 5099TIP3   OH215173   3.025   4.893   2.734
 5099TIP3    H115174   3.080   4.968   2.757
 5099TIP3    H215175   3.073   4.850   2.663
 5100TIP3   OH215176   3.068   5.768   2.836
 5100TIP3    H115177   3.055   5.859   2.809
 5100TIP3    H215178   2.991   5.747   2.888
 5101TIP3   OH215179   2.450   5.472   2.095
 5101TIP3    H115180   2.413   5.491   2.009
 5101TIP3    H215181   2.473   5.557   2.131
 5102TIP3   OH215182   3.878   5.978   2.332
 5102TIP3    H115183   3.789   5.972   2.367
 5102TIP3    H215184   3.881   6.062   2.287
 5103TIP3   OH215185   4.230   4.836   2.709
 5103TIP3    H115186   4.145   4.862   2.673
 5103TIP3    H215187   4.294   4.865   2.643
 5104TIP3   OH215188   3.473   4.476   2.705
 5104TIP3    H115189   3.466   4.384   2.730
 5104TIP3    H215190   3.395   4.517   2.743
 5105TIP3   OH215191   3.588   6.004   1.971
 5105TIP3    H115192   3.644   5.927   1.964
 5105TIP3    H215193   3.641   6.076   1.936
 5106TIP3   OH215194   3.730   5.773   1.941
 5106TIP3    H115195   3.657   5.710   1.941
 5106TIP3    H215196   3.779   5.753   2.020
 5107TIP3   OH215197   4.120   5.860   2.675
 5107TIP3    H115198   4.102   5.785   2.618
 5107TIP3    H215199   4.107   5.936   2.618
 5108TIP3   OH215200   3.410   5.262   1.949
 5108TIP3    H115201   3.327   5.304   1.927
 5108TIP3    H215202   3.460   5.264   1.867
 5109TIP3   OH215203   3.379   5.072   1.639
 5109TIP3    H115204   3.439   5.122   1.694
 5109TIP3    H215205   3.434   5.004   1.600
 5110TIP3   OH215206   4.296   5.515   2.549
 5110TIP3    H115207   4.213   5.562   2.543
 5110TIP3    H215208   4.337   5.528   2.463
 5111TIP3   OH215209   3.774   5.359   1.897
 5111TIP3    H115210   3.720   5.388   1.972
 5111TIP3    H215211   3.857   5.332   1.936
 5112TIP3   OH215212   3.998   5.377   2.860
 5112TIP3    H115213   3.995   5.461   2.904
 5112TIP3    H215214   3.917   5.374   2.808
 5113TIP3   OH215215   3.000   5.332   2.299
 5113TIP3    H115216   2.963   5.267   2.239
 5113TIP3    H215217   3.070   5.284   2.344
 5114TIP3   OH215218   3.143   5.756   2.450
 5114TIP3    H115219   3.121   5.736   2.359
 5114TIP3    H215220   3.229   5.716   2.463
 5115TIP3   OH215221   3.088   5.326   2.686
 5115TIP3    H115222   3.129   5.289   2.608
 5115TIP3    H215223   3.137   5.407   2.702
 5116TIP3   OH215224   3.631   5.973   2.452
 5116TIP3    H115225   3.625   6.052   2.506
 5116TIP3    H215226   3.622   5.901   2.515
 5117TIP3   OH215227   3.267   5.862   3.008
 5117TIP3    H115228   3.206   5.917   3.056
 5117TIP3    H215229   3.212   5.810   2.949
 5118TIP3   OH215230   3.595   5.221   1.740
 5118TIP3    H115231   3.659   5.277   1.785
 5118TIP3    H215232   3.620   5.227   1.648
 5119TIP3   OH215233   3.019   5.407   3.157
 5119TIP3    H115234   3.023   5.501   3.174
 5119TIP3    H215235   2.925   5.388   3.151
 5120TIP3   OH215236   3.337   5.887   1.969
 5120TIP3    H115237   3.422   5.928   1.982
 5120TIP3    H215238   3.274   5.954   1.995
 5121TIP3   OH215239   3.056   6.017   3.096
 5121TIP3    H115240   3.029   6.029   3.004
 5121TIP3    H215241   2.973   6.004   3.143
 5122TIP3   OH215242   4.106   4.438   1.797
 5122TIP3    H115243   4.031   4.459   1.853
 5122TIP3    H215244   4.115   4.514   1.740
 5123TIP3   OH215245   2.874   5.169   2.100
 5123TIP3    H115246   2.793   5.214   2.076
 5123TIP3    H215247   2.849   5.077   2.112
 5124TIP3   OH215248   3.933   5.831   1.364
 5124TIP3    H115249   3.934   5.925   1.352
 5124TIP3    H215250   4.021   5.802   1.340
 5125TIP3   OH215251   2.653   5.579   3.044
 5125TIP3    H115252   2.583   5.559   2.982
 5125TIP3    H215253   2.687   5.493   3.071
 5126TIP3   OH215254   2.497   5.773   2.696
 5126TIP3    H115255   2.588   5.794   2.717
 5126TIP3    H215256   2.446   5.848   2.727
 5127TIP3   OH215257   4.351   6.221   2.745
 5127TIP3    H115258   4.357   6.127   2.759
 5127TIP3    H215259   4.272   6.248   2.792
 5128TIP3   OH215260   3.454   6.011   2.872
 5128TIP3    H115261   3.445   6.101   2.903
 5128TIP3    H215262   3.388   5.962   2.921
 5129TIP3   OH215263   3.190   6.117   1.826
 5129TIP3    H115264   3.110   6.102   1.774
 5129TIP3    H215265   3.182   6.206   1.858
 5130TIP3   OH215266   2.672   5.962   2.202
 5130TIP3    H115267   2.716   5.954   2.287
 5130TIP3    H215268   2.622   5.881   2.194
 5131TIP3   OH215269   3.521   6.094   1.468
 5131TIP3    H115270   3.578   6.020   1.446
 5131TIP3    H215271   3.511   6.089   1.563
 5132TIP3   OH215272   3.437   6.053   1.723
 5132TIP3    H115273   3.356   6.075   1.769
 5132TIP3    H215274   3.498   6.029   1.792
 5133TIP3   OH215275   4.236   5.336   3.025
 5133TIP3    H115276   4.155   5.343   2.974
 5133TIP3    H215277   4.257   5.242   3.022
 5134TIP3   OH215278   2.850   5.769   3.008
 5134TIP3    H115279   2.902   5.757   3.088
 5134TIP3    H215280   2.779   5.705   3.016
 5135TIP3   OH215281   3.235   4.569   2.828
 5135TIP3    H115282   3.152   4.534   2.796
 5135TIP3    H215283   3.212   4.650   2.874
 5136TIP3   OH215284   3.774   4.696   3.030
 5136TIP3    H115285   3.844   4.671   3.091
 5136TIP3    H215286   3.693   4.680   3.078
 5137TIP3   OH215287   3.996   5.109   2.944
 5137TIP3    H115288   3.958   5.105   3.032
 5137TIP3    H215289   3.984   5.200   2.917
 5138TIP3   OH215290   3.658   5.211   1.473
 5138TIP3    H115291   3.628   5.199   1.383
 5138TIP3    H215292   3.742   5.257   1.464
 5139TIP3   OH215293   3.362   4.665   1.772
 5139TIP3    H115294   3.339   4.665   1.865
 5139TIP3    H215295   3.340   4.577   1.742
 5140TIP3   OH215296   3.173   5.106   2.835
 5140TIP3    H115297   3.127   5.111   2.919
 5140TIP3    H215298   3.151   5.188   2.791
 5141TIP3   OH215299   3.048   4.981   2.360
 5141TIP3    H115300   2.960   4.955   2.386
 5141TIP3    H215301   3.059   4.944   2.272
 5142TIP3   OH215302   3.535   5.058   2.084
 5142TIP3    H115303   3.487   5.131   2.044
 5142TIP3    H215304   3.594   5.027   2.015
 5143TIP3   OH215305   3.716   5.321   3.155
 5143TIP3    H115306   3.691   5.253   3.218
 5143TIP3    H215307   3.808   5.338   3.174
 5144TIP3   OH215308   3.704   5.071   2.305
 5144TIP3    H115309   3.635   5.088   2.241
 5144TIP3    H215310   3.752   4.997   2.268
 5145TIP3   OH215311   3.012   5.121   3.057
 5145TIP3    H115312   3.022   5.185   3.128
 5145TIP3    H215313   2.994   5.038   3.102
 5146TIP3   OH215314   3.031   4.585   1.775
 5146TIP3    H115315   3.021   4.572   1.869
 5146TIP3    H215316   2.946   4.618   1.745
 5147TIP3   OH215317   2.584   4.650   2.663
 5147TIP3    H115318   2.668   4.679   2.698
 5147TIP3    H215319   2.601   4.635   2.570
 5148TIP3   OH215320   2.522   4.613   2.133
 5148TIP3    H115321   2.576   4.646   2.061
 5148TIP3    H215322   2.458   4.682   2.149
 5149TIP3   OH215323   3.747   5.328   2.732
 5149TIP3    H115324   3.771   5.261   2.668
 5149TIP3    H215325   3.704   5.279   2.802
 5150TIP3   OH215326   3.420   4.771   2.407
 5150TIP3    H115327   3.341   4.769   2.461
 5150TIP3    H215328   3.492   4.760   2.469
 5151TIP3   OH215329   2.810   4.853   2.417
 5151TIP3    H115330   2.723   4.860   2.379
 5151TIP3    H215331   2.836   4.762   2.404
 5152TIP3   OH215332   3.064   4.853   2.118
 5152TIP3    H115333   3.157   4.869   2.098
 5152TIP3    H215334   3.018   4.875   2.037
 5153TIP3   OH215335   3.854   4.862   2.615
 5153TIP3    H115336   3.837   4.878   2.708
 5153TIP3    H215337   3.787   4.798   2.589
 5154TIP3   OH215338   2.892   4.886   1.903
 5154TIP3    H115339   2.810   4.837   1.905
 5154TIP3    H215340   2.914   4.892   1.810
 5155TIP3   OH215341   4.065   6.566   2.837
 5155TIP3    H115342   4.064   6.579   2.742
 5155TIP3    H215343   4.144   6.611   2.867
 5156TIP3   OH215344   3.004   5.677   3.242
 5156TIP3    H115345   3.084   5.696   3.290
 5156TIP3    H215346   2.934   5.686   3.307
 5157TIP3   OH215347   3.463   5.147   2.513
 5157TIP3    H115348   3.530   5.097   2.467
 5157TIP3    H215349   3.460   5.108   2.601
 5158TIP3   OH215350   2.959   4.605   2.402
 5158TIP3    H115351   2.927   4.532   2.455
 5158TIP3    H215352   2.976   4.566   2.316
 5159TIP3   OH215353   3.438   5.051   2.776
 5159TIP3    H115354   3.352   5.082   2.802
 5159TIP3    H215355   3.499   5.102   2.830
 5160TIP3   OH215356   3.173   5.392   1.880
 5160TIP3    H115357   3.103   5.331   1.855
 5160TIP3    H215358   3.139   5.435   1.959
 5161TIP3   OH215359   4.064   5.659   2.494
 5161TIP3    H115360   4.102   5.707   2.420
 5161TIP3    H215361   3.986   5.616   2.457
 5162TIP3   OH215362   3.630   4.728   1.795
 5162TIP3    H115363   3.535   4.718   1.790
 5162TIP3    H215364   3.643   4.821   1.813
 5163TIP3   OH215365   3.585   5.742   2.910
 5163TIP3    H115366   3.638   5.725   2.987
 5163TIP3    H215367   3.546   5.828   2.926
 5164TIP3   OH215368   3.699   4.987   1.866
 5164TIP3    H115369   3.794   4.988   1.880
 5164TIP3    H215370   3.682   5.067   1.816
 5165TIP3   OH215371   2.865   5.413   2.531
 5165TIP3    H115372   2.904   5.394   2.445
 5165TIP3    H215373   2.929   5.382   2.594
 5166TIP3   OH215374   3.320   5.560   1.722
 5166TIP3    H115375   3.275   5.645   1.720
 5166TIP3    H215376   3.264   5.504   1.776
 5167TIP3   OH215377   2.743   5.345   3.176
 5167TIP3    H115378   2.745   5.317   3.267
 5167TIP3    H215379   2.668   5.298   3.138
 5168TIP3   OH215380   3.488   5.481   3.196
 5168TIP3    H115381   3.418   5.421   3.172
 5168TIP3    H215382   3.568   5.437   3.168
 5169TIP3   OH215383   3.725   6.034   2.797
 5169TIP3    H115384   3.631   6.019   2.801
 5169TIP3    H215385   3.748   6.067   2.884
 5170TIP3   OH215386   4.103   5.068   1.681
 5170TIP3    H115387   4.045   5.023   1.620
 5170TIP3    H215388   4.110   5.157   1.645
 5171TIP3   OH215389   4.364   5.945   2.767
 5171TIP3    H115390   4.271   5.926   2.763
 5171TIP3    H215391   4.399   5.916   2.683
 5172TIP3   OH215392   3.822   5.881   1.638
 5172TIP3    H115393   3.806   5.820   1.710
 5172TIP3    H215394   3.855   5.826   1.567
 5173TIP3   OH215395   3.836   5.522   2.386
 5173TIP3    H115396   3.747   5.500   2.414
 5173TIP3    H215397   3.871   5.440   2.351
 5174TIP3   OH215398   2.989   5.757   2.208
 5174TIP3    H115399   2.975   5.833   2.152
 5174TIP3    H215400   2.909   5.751   2.261
 5175TIP3   OH215401   2.545   5.030   1.934
 5175TIP3    H115402   2.588   5.113   1.955
 5175TIP3    H215403   2.463   5.033   1.982
 5176TIP3   OH215404   3.055   5.516   2.092
 5176TIP3    H115405   3.043   5.602   2.131
 5176TIP3    H215406   3.038   5.455   2.164
 5177TIP3   OH215407   3.274   6.081   2.665
 5177TIP3    H115408   3.310   6.155   2.616
 5177TIP3    H215409   3.347   6.049   2.717
 5178TIP3   OH215410   2.905   5.979   2.056
 5178TIP3    H115411   2.818   5.984   2.096
 5178TIP3    H215412   2.941   6.068   2.065
 5179TIP3   OH215413   3.622   5.753   2.635
 5179TIP3    H115414   3.607   5.749   2.729
 5179TIP3    H215415   3.703   5.704   2.621
 5180TIP3   OH215416   3.608   5.635   1.512
 5180TIP3    H115417   3.670   5.609   1.580
 5180TIP3    H215418   3.527   5.591   1.536
 5181TIP3   OH215419   3.881   6.236   2.677
 5181TIP3    H115420   3.813   6.172   2.701
 5181TIP3    H215421   3.841   6.287   2.606
 5182TIP3   OH215422   3.939   6.120   1.333
 5182TIP3    H115423   3.998   6.195   1.332
 5182TIP3    H215424   3.887   6.128   1.253
 5183TIP3   OH215425   2.957   4.867   3.173
 5183TIP3    H115426   2.862   4.876   3.176
 5183TIP3    H215427   2.979   4.815   3.250
 5184TIP3   OH215428   3.799   5.545   1.688
 5184TIP3    H115429   3.781   5.490   1.765
 5184TIP3    H215430   3.894   5.549   1.683
 5185TIP3   OH215431   2.703   5.971   2.829
 5185TIP3    H115432   2.753   5.910   2.882
 5185TIP3    H215433   2.717   6.056   2.871
 5186TIP3   OH215434   2.972   5.609   1.536
 5186TIP3    H115435   2.982   5.519   1.505
 5186TIP3    H215436   2.956   5.600   1.630
 5187TIP3   OH215437   2.911   5.604   1.809
 5187TIP3    H115438   2.956   5.576   1.889
 5187TIP3    H215439   2.915   5.699   1.812
 5188TIP3   OH215440   2.641   5.287   2.003
 5188TIP3    H115441   2.578   5.336   2.056
 5188TIP3    H215442   2.658   5.343   1.928
 5189TIP3   OH215443   3.801   4.924   2.878
 5189TIP3    H115444   3.880   4.969   2.908
 5189TIP3    H215445   3.793   4.847   2.935
 5190TIP3   OH215446   3.696   4.668   2.063
 5190TIP3    H115447   3.675   4.689   1.973
 5190TIP3    H215448   3.742   4.746   2.096
 5191TIP3   OH215449   3.202   5.806   1.735
 5191TIP3    H115450   3.111   5.827   1.753
 5191TIP3    H215451   3.250   5.844   1.809
 5192TIP3   OH215452   3.348   4.869   2.157
 5192TIP3    H115453   3.411   4.937   2.134
 5192TIP3    H215454   3.370   4.846   2.247
 5193TIP3   OH215455   3.646   5.162   2.927
 5193TIP3    H115456   3.670   5.203   3.010
 5193TIP3    H215457   3.694   5.079   2.926
 5194TIP3   OH215458   3.510   4.562   2.241
 5194TIP3    H115459   3.487   4.639   2.293
 5194TIP3    H215460   3.581   4.592   2.184
 5195TIP3   OH215461   2.944   5.877   1.804
 5195TIP3    H115462   2.932   5.950   1.743
 5195TIP3    H215463   2.926   5.915   1.890
 5196TIP3   OH215464   3.033   4.575   2.056
 5196TIP3    H115465   3.019   4.664   2.088
 5196TIP3    H215466   3.129   4.566   2.054
 5197TIP3   OH215467   4.264   5.065   2.931
 5197TIP3    H115468   4.169   5.066   2.939
 5197TIP3    H215469   4.281   5.021   2.848
 5198TIP3   OH215470   3.926   5.263   2.303
 5198TIP3    H115471   3.851   5.205   2.316
 5198TIP3    H215472   3.995   5.225   2.359
 5199TIP3   OH215473   2.671   5.462   1.786
 5199TIP3    H115474   2.742   5.525   1.797
 5199TIP3    H215475   2.703   5.400   1.720
 5200TIP3   OH215476   2.615   4.763   1.909
 5200TIP3    H115477   2.586   4.854   1.919
 5200TIP3    H215478   2.550   4.724   1.851
 5201TIP3   OH215479   3.902   6.243   2.242
 5201TIP3    H115480   3.859   6.289   2.170
 5201TIP3    H215481   3.995   6.265   2.233
 5202TIP3   OH215482   2.976   4.480   2.786
 5202TIP3    H115483   2.945   4.449   2.701
 5202TIP3    H215484   2.965   4.405   2.845
 5203TIP3   OH215485   2.495   5.744   2.176
 5203TIP3    H115486   2.448   5.777   2.252
 5203TIP3    H215487   2.451   5.785   2.101
 5204TIP3   OH215488   2.703   6.276   3.249
 5204TIP3    H115489   2.785   6.281   3.297
 5204TIP3    H215490   2.685   6.183   3.240
 5205TIP3   OH215491   3.166   6.179   3.289
 5205TIP3    H115492   3.256   6.149   3.300
 5205TIP3    H215493   3.131   6.126   3.218
 5206TIP3   OH215494   3.134   5.797   1.409
 5206TIP3    H115495   3.085   5.737   1.465
 5206TIP3    H215496   3.203   5.742   1.371
 5207TIP3   OH215497   3.782   6.125   3.049
 5207TIP3    H115498   3.797   6.054   3.112
 5207TIP3    H215499   3.856   6.184   3.062
 5208TIP3   OH215500   3.564   5.837   1.328
 5208TIP3    H115501   3.590   5.778   1.399
 5208TIP3    H215502   3.627   5.819   1.258
 5209TIP3   OH215503   2.800   5.681   3.433
 5209TIP3    H115504   2.818   5.588   3.446
 5209TIP3    H215505   2.713   5.683   3.393
 5210TIP3   OH215506   2.801   5.281   1.626
 5210TIP3    H115507   2.851   5.246   1.700
 5210TIP3    H215508   2.867   5.303   1.560
 5211TIP3   OH215509   3.422   5.757   3.213
 5211TIP3    H115510   3.377   5.778   3.131
 5211TIP3    H215511   3.458   5.670   3.200
 5212TIP3   OH215512   3.337   5.489   1.459
 5212TIP3    H115513   3.324   5.508   1.552
 5212TIP3    H215514   3.319   5.395   1.450
 5213TIP3   OH215515   3.895   5.808   2.829
 5213TIP3    H115516   3.974   5.834   2.780
 5213TIP3    H215517   3.833   5.879   2.813
 5214TIP3   OH215518   2.914   5.426   3.446
 5214TIP3    H115519   2.990   5.405   3.392
 5214TIP3    H215520   2.950   5.443   3.533
 5215TIP3   OH215521   2.975   5.200   1.832
 5215TIP3    H115522   2.947   5.178   1.921
 5215TIP3    H215523   3.018   5.120   1.801
 5216TIP3   OH215524   3.281   5.307   3.106
 5216TIP3    H115525   3.193   5.345   3.117
 5216TIP3    H215526   3.308   5.333   3.018
 5217TIP3   OH215527   3.117   4.989   1.712
 5217TIP3    H115528   3.121   4.898   1.684
 5217TIP3    H215529   3.205   5.024   1.693
 5218TIP3   OH215530   3.776   5.676   3.172
 5218TIP3    H115531   3.848   5.642   3.120
 5218TIP3    H215532   3.774   5.621   3.251
 5219TIP3   OH215533   3.884   5.340   1.378
 5219TIP3    H115534   3.877   5.296   1.293
 5219TIP3    H215535   3.864   5.431   1.359
 5220TIP3   OH215536   3.381   5.072   3.210
 5220TIP3    H115537   3.383   5.003   3.144
 5220TIP3    H215538   3.348   5.149   3.163
 5221TIP3   OH215539   3.389   4.877   3.005
 5221TIP3    H115540   3.416   4.912   2.920
 5221TIP3    H215541   3.298   4.848   2.991
 5222TIP3   OH215542   3.386   5.396   2.872
 5222TIP3    H115543   3.475   5.428   2.862
 5222TIP3    H215544   3.332   5.458   2.822
 5223TIP3   OH215545   3.985   5.358   3.251
 5223TIP3    H115546   4.023   5.271   3.258
 5223TIP3    H215547   4.060   5.417   3.240
 5224TIP3   OH215548   4.017   5.627   2.992
 5224TIP3    H115549   3.965   5.690   2.941
 5224TIP3    H215550   4.107   5.640   2.961
 5225TIP3   OH215551   3.268   5.152   3.455
 5225TIP3    H115552   3.197   5.090   3.475
 5225TIP3    H215553   3.295   5.128   3.366
 5226TIP3   OH215554   3.510   4.647   3.111
 5226TIP3    H115555   3.469   4.726   3.077
 5226TIP3    H215556   3.444   4.579   3.098
 5227TIP3   OH215557   3.637   5.110   3.313
 5227TIP3    H115558   3.628   5.097   3.408
 5227TIP3    H215559   3.551   5.089   3.278
 5228TIP3   OH215560   3.886   5.069   3.187
 5228TIP3    H115561   3.807   5.067   3.240
 5228TIP3    H215562   3.956   5.043   3.247
 5229TIP3   OH215563   4.119   5.031   3.337
 5229TIP3    H115564   4.133   4.937   3.344
 5229TIP3    H215565   4.115   5.062   3.427
 5230TIP3   OH215566   3.097   4.934   3.516
 5230TIP3    H115567   3.104   4.845   3.480
 5230TIP3    H215568   3.136   4.927   3.603
 5231TIP3   OH215569   3.575   4.618   3.376
 5231TIP3    H115570   3.643   4.551   3.369
 5231TIP3    H215571   3.546   4.632   3.286
 5232TIP3   OH215572   3.674   4.831   3.522
 5232TIP3    H115573   3.643   4.758   3.467
 5232TIP3    H215574   3.602   4.893   3.523
 5233TIP3   OH215575   2.989   6.091   1.623
 5233TIP3    H115576   3.066   6.077   1.568
 5233TIP3    H215577   2.924   6.130   1.565
 5234TIP3   OH215578   2.397   5.478   1.802
 5234TIP3    H115579   2.492   5.483   1.801
 5234TIP3    H215580   2.377   5.392   1.763
 5235TIP3   OH215581   2.292   6.050   2.268
 5235TIP3    H115582   2.229   5.995   2.222
 5235TIP3    H215583   2.338   5.991   2.327
 5236TIP3   OH215584   2.441   5.885   2.432
 5236TIP3    H115585   2.433   5.813   2.496
 5236TIP3    H215586   2.494   5.950   2.477
 5237TIP3   OH215587   4.163   6.329   2.236
 5237TIP3    H115588   4.199   6.327   2.324
 5237TIP3    H215589   4.239   6.337   2.178
 5238TIP3   OH215590   4.207   6.312   2.517
 5238TIP3    H115591   4.158   6.230   2.510
 5238TIP3    H215592   4.274   6.294   2.583
 5239TIP3   OH215593   4.246   6.016   3.092
 5239TIP3    H115594   4.175   6.025   3.155
 5239TIP3    H215595   4.294   6.098   3.099
 5240TIP3   OH215596   4.078   5.535   1.699
 5240TIP3    H115597   4.136   5.605   1.670
 5240TIP3    H215598   4.122   5.496   1.775
 5241TIP3   OH215599   4.207   5.394   1.902
 5241TIP3    H115600   4.140   5.358   1.960
 5241TIP3    H215601   4.273   5.431   1.960
 5242TIP3   OH215602   4.244   5.796   2.330
 5242TIP3    H115603   4.298   5.723   2.301
 5242TIP3    H215604   4.263   5.866   2.268
 5243TIP3   OH215605   4.055   6.080   2.524
 5243TIP3    H115606   3.989   6.126   2.576
 5243TIP3    H215607   4.005   6.040   2.453
 5244TIP3   OH215608   4.100   5.309   1.546
 5244TIP3    H115609   4.025   5.313   1.486
 5244TIP3    H215610   4.092   5.387   1.600
 5245TIP3   OH215611   3.943   4.953   1.489
 5245TIP3    H115612   3.905   4.985   1.407
 5245TIP3    H215613   3.944   4.858   1.479
 5246TIP3   OH215614   3.996   5.257   2.034
 5246TIP3    H115615   4.003   5.162   2.021
 5246TIP3    H215616   3.977   5.267   2.127
 5247TIP3   OH215617   2.613   5.316   2.815
 5247TIP3    H115618   2.603   5.281   2.726
 5247TIP3    H215619   2.707   5.309   2.832
 5248TIP3   OH215620   4.276   5.665   2.897
 5248TIP3    H115621   4.340   5.594   2.884
 5248TIP3    H215622   4.293   5.725   2.825
 5249TIP3   OH215623   4.447   5.449   2.890
 5249TIP3    H115624   4.376   5.408   2.940
 5249TIP3    H215625   4.524   5.396   2.908
 5250TIP3   OH215626   3.921   4.680   1.448
 5250TIP3    H115627   3.987   4.656   1.513
 5250TIP3    H215628   3.839   4.645   1.484
 5251TIP3   OH215629   3.986   4.975   1.921
 5251TIP3    H115630   4.032   4.892   1.935
 5251TIP3    H215631   4.028   5.013   1.844
 5252TIP3   OH215632   4.141   5.144   2.447
 5252TIP3    H115633   4.222   5.161   2.399
 5252TIP3    H215634   4.155   5.182   2.533
 5253TIP3   OH215635   4.216   5.286   2.679
 5253TIP3    H115636   4.146   5.315   2.737
 5253TIP3    H215637   4.248   5.366   2.637
 5254TIP3   OH215638   2.834   4.992   3.452
 5254TIP3    H115639   2.928   4.989   3.471
 5254TIP3    H215640   2.799   4.911   3.490
 5255TIP3   OH215641   4.679   4.883   3.217
 5255TIP3    H115642   4.745   4.830   3.173
 5255TIP3    H215643   4.639   4.935   3.146
 5256TIP3   OH215644   4.102   4.727   1.976
 5256TIP3    H115645   4.150   4.713   2.058
 5256TIP3    H215646   4.041   4.654   1.972
 5257TIP3   OH215647   2.818   4.709   2.799
 5257TIP3    H115648   2.869   4.628   2.805
 5257TIP3    H215649   2.883   4.777   2.779
 5258TIP3   OH215650   2.591   4.966   2.866
 5258TIP3    H115651   2.640   4.954   2.784
 5258TIP3    H215652   2.626   5.047   2.903
 5259TIP3   OH215653   4.526   5.000   3.022
 5259TIP3    H115654   4.444   5.041   3.047
 5259TIP3    H215655   4.500   4.926   2.968
 5260TIP3   OH215656   4.142   4.637   1.610
 5260TIP3    H115657   4.192   4.576   1.555
 5260TIP3    H215658   4.197   4.714   1.618
 5261TIP3   OH215659   2.571   4.553   2.401
 5261TIP3    H115660   2.486   4.513   2.420
 5261TIP3    H215661   2.569   4.570   2.307
 5262TIP3   OH215662   3.724   6.207   1.855
 5262TIP3    H115663   3.785   6.198   1.781
 5262TIP3    H215664   3.766   6.270   1.913
 5263TIP3   OH215665   2.806   4.534   3.191
 5263TIP3    H115666   2.756   4.530   3.273
 5263TIP3    H215667   2.751   4.584   3.131
 5264TIP3   OH215668   2.832   5.995   3.263
 5264TIP3    H115669   2.739   5.976   3.255
 5264TIP3    H215670   2.852   5.983   3.356
 5265TIP3   OH215671   3.044   6.045   2.812
 5265TIP3    H115672   2.994   6.120   2.782
 5265TIP3    H215673   3.129   6.054   2.770
 5266TIP3   OH215674   3.437   6.277   2.953
 5266TIP3    H115675   3.475   6.267   3.040
 5266TIP3    H215676   3.501   6.330   2.905
 5267TIP3   OH215677   3.632   6.428   2.827
 5267TIP3    H115678   3.694   6.372   2.780
 5267TIP3    H215679   3.687   6.485   2.880
 5268TIP3   OH215680   4.439   4.757   2.910
 5268TIP3    H115681   4.355   4.757   2.863
 5268TIP3    H215682   4.470   4.667   2.904
 5269TIP3   OH215683   2.704   6.286   2.860
 5269TIP3    H115684   2.611   6.302   2.840
 5269TIP3    H215685   2.726   6.351   2.927
 5270TIP3   OH215686   2.935   6.277   2.712
 5270TIP3    H115687   2.852   6.281   2.760
 5270TIP3    H215688   2.911   6.299   2.622
 5271TIP3   OH215689   3.347   6.295   2.504
 5271TIP3    H115690   3.274   6.307   2.444
 5271TIP3    H215691   3.357   6.381   2.547
 5272TIP3   OH215692   3.612   6.231   2.548
 5272TIP3    H115693   3.520   6.252   2.529
 5272TIP3    H215694   3.662   6.299   2.503
 5273TIP3   OH215695   3.814   6.400   2.451
 5273TIP3    H115696   3.816   6.488   2.413
 5273TIP3    H215697   3.844   6.343   2.380
 5274TIP3   OH215698   2.618   6.059   2.578
 5274TIP3    H115699   2.644   6.035   2.667
 5274TIP3    H215700   2.690   6.027   2.523
 5275TIP3   OH215701   2.821   5.948   2.434
 5275TIP3    H115702   2.832   5.862   2.476
 5275TIP3    H215703   2.908   5.989   2.442
 5276TIP3   OH215704   3.089   6.030   2.462
 5276TIP3    H115705   3.109   5.938   2.447
 5276TIP3    H215706   3.143   6.055   2.537
 5277TIP3   OH215707   3.645   4.674   2.548
 5277TIP3    H115708   3.606   4.604   2.600
 5277TIP3    H215709   3.713   4.632   2.497
 5278TIP3   OH215710   4.151   4.598   2.434
 5278TIP3    H115711   4.187   4.649   2.361
 5278TIP3    H215712   4.058   4.622   2.436
 5279TIP3   OH215713   4.264   4.677   2.195
 5279TIP3    H115714   4.332   4.614   2.172
 5279TIP3    H215715   4.305   4.762   2.182
 5280TIP3   OH215716   2.883   4.379   2.546
 5280TIP3    H115717   2.794   4.346   2.557
 5280TIP3    H215718   2.937   4.300   2.537
 5281TIP3   OH215719   2.677   4.232   2.195
 5281TIP3    H115720   2.725   4.194   2.121
 5281TIP3    H215721   2.685   4.326   2.182
 5282TIP3   OH215722   3.372   4.415   2.443
 5282TIP3    H115723   3.417   4.465   2.374
 5282TIP3    H215724   3.412   4.445   2.524
 5283TIP3   OH215725   3.860   4.556   2.418
 5283TIP3    H115726   3.881   4.519   2.332
 5283TIP3    H215727   3.869   4.482   2.479
 5284TIP3   OH215728   3.917   4.516   1.983
 5284TIP3    H115729   3.838   4.563   2.010
 5284TIP3    H215730   3.907   4.429   2.022
 5285TIP3   OH215731   2.378   5.861   1.955
 5285TIP3    H115732   2.294   5.827   1.925
 5285TIP3    H215733   2.380   5.951   1.923
 5286TIP3   OH215734   2.820   4.402   1.926
 5286TIP3    H115735   2.826   4.306   1.930
 5286TIP3    H215736   2.887   4.432   1.986
 5287TIP3   OH215737   3.310   4.625   2.041
 5287TIP3    H115738   3.364   4.566   2.094
 5287TIP3    H215739   3.322   4.711   2.082
 5288TIP3   OH215740   3.240   6.036   1.485
 5288TIP3    H115741   3.279   6.017   1.571
 5288TIP3    H215742   3.198   5.954   1.459
 5289TIP3   OH215743   3.888   6.146   1.625
 5289TIP3    H115744   3.865   6.054   1.642
 5289TIP3    H215745   3.890   6.153   1.530
 5290TIP3   OH215746   3.116   4.664   3.428
 5290TIP3    H115747   3.082   4.597   3.488
 5290TIP3    H215748   3.208   4.673   3.452
 5291TIP3   OH215749   3.362   4.671   3.553
 5291TIP3    H115750   3.439   4.648   3.501
 5291TIP3    H215751   3.357   4.602   3.620
 5292TIP3   OH215752   2.489   5.849   1.613
 5292TIP3    H115753   2.487   5.850   1.709
 5292TIP3    H215754   2.570   5.803   1.591
 5293TIP3   OH215755   4.184   4.760   3.339
 5293TIP3    H115756   4.201   4.731   3.429
 5293TIP3    H215757   4.268   4.755   3.295
 5294TIP3   OH215758   4.101   6.292   2.841
 5294TIP3    H115759   4.027   6.261   2.788
 5294TIP3    H215760   4.087   6.386   2.851
 5295TIP3   OH215761   5.375   5.681   1.580
 5295TIP3    H115762   5.341   5.766   1.554
 5295TIP3    H215763   5.302   5.621   1.566
 5296TIP3   OH215764   5.381   5.675   2.016
 5296TIP3    H115765   5.433   5.661   2.096
 5296TIP3    H215766   5.333   5.593   2.004
 5297TIP3   OH215767   4.668   5.530   2.352
 5297TIP3    H115768   4.699   5.473   2.422
 5297TIP3    H215769   4.746   5.549   2.300
 5298TIP3   OH215770   5.644   5.981   1.681
 5298TIP3    H115771   5.632   5.912   1.746
 5298TIP3    H215772   5.664   6.060   1.731
 5299TIP3   OH215773   4.651   5.950   2.038
 5299TIP3    H115774   4.639   5.855   2.036
 5299TIP3    H215775   4.746   5.963   2.034
 5300TIP3   OH215776   4.347   5.163   1.815
 5300TIP3    H115777   4.312   5.248   1.842
 5300TIP3    H215778   4.272   5.117   1.777
 5301TIP3   OH215779   4.431   5.481   2.046
 5301TIP3    H115780   4.481   5.404   2.073
 5301TIP3    H215781   4.498   5.546   2.025
 5302TIP3   OH215782   5.312   6.393   1.709
 5302TIP3    H115783   5.334   6.329   1.642
 5302TIP3    H215784   5.331   6.348   1.792
 5303TIP3   OH215785   5.180   5.894   2.017
 5303TIP3    H115786   5.228   5.814   1.993
 5303TIP3    H215787   5.249   5.955   2.046
 5304TIP3   OH215788   6.222   5.212   2.029
 5304TIP3    H115789   6.236   5.297   2.070
 5304TIP3    H215790   6.248   5.225   1.938
 5305TIP3   OH215791   5.569   5.367   2.056
 5305TIP3    H115792   5.607   5.282   2.078
 5305TIP3    H215793   5.545   5.359   1.963
 5306TIP3   OH215794   4.942   5.040   2.010
 5306TIP3    H115795   4.923   5.113   1.951
 5306TIP3    H215796   4.885   4.969   1.979
 5307TIP3   OH215797   5.640   5.137   1.644
 5307TIP3    H115798   5.707   5.130   1.712
 5307TIP3    H215799   5.687   5.172   1.568
 5308TIP3   OH215800   4.567   5.256   2.135
 5308TIP3    H115801   4.651   5.240   2.179
 5308TIP3    H215802   4.573   5.205   2.054
 5309TIP3   OH215803   4.990   5.457   1.948
 5309TIP3    H115804   5.083   5.441   1.963
 5309TIP3    H215805   4.956   5.373   1.917
 5310TIP3   OH215806   6.273   5.436   2.191
 5310TIP3    H115807   6.183   5.469   2.186
 5310TIP3    H215808   6.307   5.473   2.273
 5311TIP3   OH215809   4.930   5.046   2.456
 5311TIP3    H115810   4.880   5.088   2.386
 5311TIP3    H215811   4.876   5.057   2.534
 5312TIP3   OH215812   5.261   5.894   1.446
 5312TIP3    H115813   5.220   5.869   1.362
 5312TIP3    H215814   5.211   5.970   1.475
 5313TIP3   OH215815   5.015   5.815   2.225
 5313TIP3    H115816   4.968   5.889   2.262
 5313TIP3    H215817   5.072   5.853   2.158
 5314TIP3   OH215818   5.814   5.159   1.852
 5314TIP3    H115819   5.763   5.138   1.930
 5314TIP3    H215820   5.866   5.235   1.877
 5315TIP3   OH215821   4.813   5.156   2.230
 5315TIP3    H115822   4.864   5.232   2.256
 5315TIP3    H215823   4.863   5.115   2.160
 5316TIP3   OH215824   4.868   6.028   2.331
 5316TIP3    H115825   4.858   6.119   2.304
 5316TIP3    H215826   4.789   6.009   2.382
 5317TIP3   OH215827   4.248   5.724   1.587
 5317TIP3    H115828   4.219   5.747   1.499
 5317TIP3    H215829   4.274   5.807   1.626
 5318TIP3   OH215830   5.674   6.223   1.826
 5318TIP3    H115831   5.585   6.221   1.863
 5318TIP3    H215832   5.679   6.306   1.780
 5319TIP3   OH215833   6.030   5.097   2.203
 5319TIP3    H115834   5.943   5.120   2.171
 5319TIP3    H215835   6.089   5.126   2.134
 5320TIP3   OH215836   5.267   4.733   2.191
 5320TIP3    H115837   5.262   4.641   2.218
 5320TIP3    H215838   5.190   4.774   2.230
 5321TIP3   OH215839   5.387   6.238   1.490
 5321TIP3    H115840   5.443   6.162   1.475
 5321TIP3    H215841   5.443   6.313   1.470
 5322TIP3   OH215842   5.544   6.021   1.428
 5322TIP3    H115843   5.487   5.945   1.416
 5322TIP3    H215844   5.590   6.004   1.510
 5323TIP3   OH215845   5.919   6.117   2.162
 5323TIP3    H115846   5.897   6.041   2.108
 5323TIP3    H215847   5.902   6.192   2.105
 5324TIP3   OH215848   5.192   5.511   1.452
 5324TIP3    H115849   5.112   5.557   1.426
 5324TIP3    H215850   5.244   5.506   1.372
 5325TIP3   OH215851   5.164   5.320   1.130
 5325TIP3    H115852   5.227   5.367   1.184
 5325TIP3    H215853   5.215   5.250   1.089
 5326TIP3   OH215854   6.092   5.775   2.027
 5326TIP3    H115855   6.008   5.820   2.029
 5326TIP3    H215856   6.125   5.789   1.938
 5327TIP3   OH215857   5.565   5.595   1.406
 5327TIP3    H115858   5.511   5.627   1.478
 5327TIP3    H215859   5.648   5.570   1.446
 5328TIP3   OH215860   5.801   5.633   2.333
 5328TIP3    H115861   5.802   5.715   2.381
 5328TIP3    H215862   5.716   5.631   2.289
 5329TIP3   OH215863   4.795   5.589   1.792
 5329TIP3    H115864   4.761   5.525   1.729
 5329TIP3    H215865   4.868   5.545   1.835
 5330TIP3   OH215866   4.921   6.007   1.947
 5330TIP3    H115867   4.904   5.993   1.854
 5330TIP3    H215868   5.008   5.970   1.962
 5331TIP3   OH215869   4.877   5.586   2.166
 5331TIP3    H115870   4.921   5.551   2.088
 5331TIP3    H215871   4.927   5.665   2.188
 5332TIP3   OH215872   5.428   6.232   1.948
 5332TIP3    H115873   5.421   6.308   2.006
 5332TIP3    H215874   5.420   6.156   2.006
 5333TIP3   OH215875   5.078   6.122   2.491
 5333TIP3    H115876   5.020   6.180   2.540
 5333TIP3    H215877   5.019   6.070   2.436
 5334TIP3   OH215878   5.377   5.467   1.253
 5334TIP3    H115879   5.443   5.521   1.295
 5334TIP3    H215880   5.403   5.465   1.161
 5335TIP3   OH215881   4.820   5.684   2.654
 5335TIP3    H115882   4.822   5.779   2.663
 5335TIP3    H215883   4.728   5.664   2.637
 5336TIP3   OH215884   5.129   6.135   1.495
 5336TIP3    H115885   5.214   6.178   1.506
 5336TIP3    H215886   5.074   6.200   1.453
 5337TIP3   OH215887   4.867   6.282   2.584
 5337TIP3    H115888   4.845   6.294   2.492
 5337TIP3    H215889   4.782   6.272   2.628
 5338TIP3   OH215890   5.896   4.689   1.284
 5338TIP3    H115891   5.822   4.715   1.338
 5338TIP3    H215892   5.910   4.763   1.225
 5339TIP3   OH215893   4.671   5.425   1.595
 5339TIP3    H115894   4.590   5.468   1.568
 5339TIP3    H215895   4.645   5.335   1.614
 5340TIP3   OH215896   5.719   6.101   0.947
 5340TIP3    H115897   5.727   6.195   0.930
 5340TIP3    H215898   5.806   6.066   0.929
 5341TIP3   OH215899   4.445   5.843   2.528
 5341TIP3    H115900   4.377   5.818   2.466
 5341TIP3    H215901   4.479   5.760   2.561
 5342TIP3   OH215902   4.361   6.004   2.167
 5342TIP3    H115903   4.446   5.979   2.130
 5342TIP3    H215904   4.382   6.074   2.229
 5343TIP3   OH215905   6.146   6.484   2.231
 5343TIP3    H115906   6.150   6.389   2.242
 5343TIP3    H215907   6.067   6.510   2.278
 5344TIP3   OH215908   5.253   6.269   2.333
 5344TIP3    H115909   5.248   6.356   2.373
 5344TIP3    H215910   5.200   6.213   2.391
 5345TIP3   OH215911   5.008   6.346   1.337
 5345TIP3    H115912   4.965   6.323   1.255
 5345TIP3    H215913   4.975   6.434   1.357
 5346TIP3   OH215914   4.463   6.218   1.699
 5346TIP3    H115915   4.513   6.213   1.781
 5346TIP3    H215916   4.422   6.132   1.690
 5347TIP3   OH215917   5.206   6.302   0.987
 5347TIP3    H115918   5.233   6.213   0.966
 5347TIP3    H215919   5.239   6.318   1.075
 5348TIP3   OH215920   5.267   6.325   1.252
 5348TIP3    H115921   5.179   6.328   1.290
 5348TIP3    H215922   5.320   6.280   1.317
 5349TIP3   OH215923   6.051   5.583   2.486
 5349TIP3    H115924   5.963   5.602   2.454
 5349TIP3    H215925   6.060   5.488   2.477
 5350TIP3   OH215926   4.642   6.033   2.495
 5350TIP3    H115927   4.695   6.022   2.575
 5350TIP3    H215928   4.573   5.967   2.503
 5351TIP3   OH215929   5.029   4.825   2.315
 5351TIP3    H115930   4.944   4.794   2.283
 5351TIP3    H215931   5.009   4.908   2.358
 5352TIP3   OH215932   5.567   4.951   2.520
 5352TIP3    H115933   5.635   4.928   2.584
 5352TIP3    H215934   5.485   4.941   2.568
 5353TIP3   OH215935   5.781   5.367   2.421
 5353TIP3    H115936   5.747   5.375   2.510
 5353TIP3    H215937   5.776   5.456   2.385
 5354TIP3   OH215938   5.441   5.415   0.995
 5354TIP3    H115939   5.398   5.421   0.910
 5354TIP3    H215940   5.527   5.457   0.982
 5355TIP3   OH215941   5.178   4.871   1.283
 5355TIP3    H115942   5.143   4.877   1.372
 5355TIP3    H215943   5.144   4.787   1.250
 5356TIP3   OH215944   4.965   5.367   2.313
 5356TIP3    H115945   4.977   5.401   2.402
 5356TIP3    H215946   4.947   5.444   2.260
 5357TIP3   OH215947   4.848   5.239   1.844
 5357TIP3    H115948   4.759   5.216   1.870
 5357TIP3    H215949   4.857   5.206   1.755
 5358TIP3   OH215950   5.325   5.307   1.577
 5358TIP3    H115951   5.277   5.380   1.539
 5358TIP3    H215952   5.384   5.277   1.507
 5359TIP3   OH215953   5.500   5.327   1.794
 5359TIP3    H115954   5.428   5.344   1.733
 5359TIP3    H215955   5.547   5.252   1.756
 5360TIP3   OH215956   4.761   5.361   2.552
 5360TIP3    H115957   4.844   5.402   2.576
 5360TIP3    H215958   4.763   5.276   2.596
 5361TIP3   OH215959   4.845   4.846   1.261
 5361TIP3    H115960   4.838   4.851   1.356
 5361TIP3    H215961   4.767   4.892   1.229
 5362TIP3   OH215962   4.404   4.896   2.125
 5362TIP3    H115963   4.470   4.934   2.183
 5362TIP3    H215964   4.449   4.885   2.041
 5363TIP3   OH215965   4.292   4.871   1.627
 5363TIP3    H115966   4.339   4.907   1.552
 5363TIP3    H215967   4.229   4.939   1.651
 5364TIP3   OH215968   5.546   5.578   2.228
 5364TIP3    H115969   5.557   5.501   2.172
 5364TIP3    H215970   5.504   5.544   2.307
 5365TIP3   OH215971   5.207   5.022   1.892
 5365TIP3    H115972   5.132   5.024   1.951
 5365TIP3    H215973   5.283   5.012   1.950
 5366TIP3   OH215974   4.607   5.116   1.902
 5366TIP3    H115975   4.520   5.119   1.863
 5366TIP3    H215976   4.637   5.026   1.887
 5367TIP3   OH215977   4.856   5.117   1.597
 5367TIP3    H115978   4.951   5.126   1.590
 5367TIP3    H215979   4.824   5.134   1.509
 5368TIP3   OH215980   5.656   5.104   2.068
 5368TIP3    H115981   5.666   5.103   2.163
 5368TIP3    H215982   5.581   5.046   2.052
 5369TIP3   OH215983   4.749   5.139   1.345
 5369TIP3    H115984   4.686   5.089   1.293
 5369TIP3    H215985   4.801   5.186   1.281
 5370TIP3   OH215986   5.858   6.827   2.312
 5370TIP3    H115987   5.851   6.842   2.218
 5370TIP3    H215988   5.938   6.873   2.338
 5371TIP3   OH215989   4.796   5.955   2.732
 5371TIP3    H115990   4.879   5.973   2.777
 5371TIP3    H215991   4.730   5.956   2.801
 5372TIP3   OH215992   5.259   5.404   2.016
 5372TIP3    H115993   5.332   5.362   1.970
 5372TIP3    H215994   5.266   5.373   2.107
 5373TIP3   OH215995   4.746   4.867   1.891
 5373TIP3    H115996   4.720   4.791   1.943
 5373TIP3    H215997   4.773   4.831   1.807
 5374TIP3   OH215998   5.261   5.332   2.295
 5374TIP3    H115999   5.183   5.387   2.303
 5374TIP3    H216000   5.327   5.377   2.348
 5375TIP3   OH216001   4.969   5.650   1.366
 5375TIP3    H116002   4.893   5.598   1.340
 5375TIP3    H216003   4.942   5.695   1.446
 5376TIP3   OH216004   5.855   5.912   1.987
 5376TIP3    H116005   5.893   5.960   1.913
 5376TIP3    H216006   5.776   5.872   1.952
 5377TIP3   OH216007   5.433   4.971   1.283
 5377TIP3    H116008   5.339   4.951   1.281
 5377TIP3    H216009   5.436   5.066   1.299
 5378TIP3   OH216010   5.365   5.952   2.380
 5378TIP3    H116011   5.369   5.875   2.436
 5378TIP3    H216012   5.336   6.022   2.438
 5379TIP3   OH216013   5.492   5.232   1.361
 5379TIP3    H116014   5.587   5.234   1.370
 5379TIP3    H216015   5.470   5.312   1.313
 5380TIP3   OH216016   4.650   5.665   2.018
 5380TIP3    H116017   4.692   5.648   1.933
 5380TIP3    H216018   4.715   5.638   2.083
 5381TIP3   OH216019   5.127   5.805   1.204
 5381TIP3    H116020   5.077   5.886   1.209
 5381TIP3    H216021   5.077   5.742   1.256
 5382TIP3   OH216022   4.540   5.630   2.676
 5382TIP3    H116023   4.566   5.615   2.767
 5382TIP3    H216024   4.481   5.557   2.657
 5383TIP3   OH216025   5.526   6.273   2.265
 5383TIP3    H116026   5.431   6.258   2.270
 5383TIP3    H216027   5.549   6.308   2.351
 5384TIP3   OH216028   5.916   5.309   1.189
 5384TIP3    H116029   5.848   5.267   1.137
 5384TIP3    H216030   5.924   5.397   1.152
 5385TIP3   OH216031   6.162   6.205   2.251
 5385TIP3    H116032   6.068   6.186   2.245
 5385TIP3    H216033   6.198   6.175   2.167
 5386TIP3   OH216034   5.571   6.159   1.184
 5386TIP3    H116035   5.568   6.102   1.261
 5386TIP3    H216036   5.613   6.105   1.116
 5387TIP3   OH216037   5.628   5.777   1.880
 5387TIP3    H116038   5.541   5.755   1.913
 5387TIP3    H216039   5.662   5.695   1.847
 5388TIP3   OH216040   4.793   6.011   1.697
 5388TIP3    H116041   4.791   6.089   1.642
 5388TIP3    H216042   4.702   5.997   1.722
 5389TIP3   OH216043   4.337   5.294   1.403
 5389TIP3    H116044   4.384   5.373   1.429
 5389TIP3    H216045   4.257   5.295   1.455
 5390TIP3   OH216046   4.858   5.768   1.582
 5390TIP3    H116047   4.854   5.857   1.618
 5390TIP3    H216048   4.840   5.711   1.657
 5391TIP3   OH216049   5.067   6.342   2.143
 5391TIP3    H116050   5.104   6.417   2.096
 5391TIP3    H216051   5.139   6.307   2.194
 5392TIP3   OH216052   4.699   6.235   1.556
 5392TIP3    H116053   4.611   6.242   1.594
 5392TIP3    H216054   4.735   6.323   1.561
 5393TIP3   OH216055   5.417   6.005   2.116
 5393TIP3    H116056   5.398   5.994   2.209
 5393TIP3    H216057   5.493   5.949   2.100
 5394TIP3   OH216058   5.358   5.840   1.053
 5394TIP3    H116059   5.438   5.827   1.105
 5394TIP3    H216060   5.287   5.821   1.114
 5395TIP3   OH216061   5.678   6.488   2.169
 5395TIP3    H116062   5.612   6.421   2.189
 5395TIP3    H216063   5.640   6.538   2.098
 5396TIP3   OH216064   5.722   6.362   0.853
 5396TIP3    H116065   5.804   6.410   0.838
 5396TIP3    H216066   5.665   6.424   0.897
 5397TIP3   OH216067   4.759   5.101   2.669
 5397TIP3    H116068   4.664   5.109   2.678
 5397TIP3    H216069   4.786   5.052   2.746
 5398TIP3   OH216070   5.578   5.791   1.213
 5398TIP3    H116071   5.564   5.726   1.283
 5398TIP3    H216072   5.673   5.799   1.206
 5399TIP3   OH216073   4.484   6.222   2.320
 5399TIP3    H116074   4.541   6.166   2.374
 5399TIP3    H216075   4.498   6.310   2.354
 5400TIP3   OH216076   4.746   5.833   1.026
 5400TIP3    H116077   4.770   5.746   0.994
 5400TIP3    H216078   4.740   5.823   1.121
 5401TIP3   OH216079   4.705   5.837   1.301
 5401TIP3    H116080   4.765   5.810   1.370
 5401TIP3    H216081   4.705   5.933   1.305
 5402TIP3   OH216082   4.438   5.540   1.492
 5402TIP3    H116083   4.377   5.590   1.546
 5402TIP3    H216084   4.458   5.598   1.419
 5403TIP3   OH216085   5.682   5.122   2.333
 5403TIP3    H116086   5.708   5.205   2.373
 5403TIP3    H216087   5.639   5.073   2.404
 5404TIP3   OH216088   5.491   4.921   1.553
 5404TIP3    H116089   5.473   4.941   1.461
 5404TIP3    H216090   5.535   4.999   1.586
 5405TIP3   OH216091   4.973   6.023   1.231
 5405TIP3    H116092   4.892   6.041   1.278
 5405TIP3    H216093   4.988   6.100   1.177
 5406TIP3   OH216094   5.134   5.121   1.645
 5406TIP3    H116095   5.198   5.188   1.620
 5406TIP3    H216096   5.157   5.098   1.734
 5407TIP3   OH216097   5.440   5.468   2.465
 5407TIP3    H116098   5.405   5.547   2.506
 5407TIP3    H216099   5.490   5.425   2.534
 5408TIP3   OH216100   5.306   4.813   1.727
 5408TIP3    H116101   5.283   4.890   1.780
 5408TIP3    H216102   5.377   4.844   1.671
 5409TIP3   OH216103   4.723   6.106   1.316
 5409TIP3    H116104   4.697   6.170   1.249
 5409TIP3    H216105   4.716   6.155   1.399
 5410TIP3   OH216106   4.818   4.842   1.540
 5410TIP3    H116107   4.806   4.933   1.568
 5410TIP3    H216108   4.912   4.827   1.547
 5411TIP3   OH216109   6.049   5.308   2.402
 5411TIP3    H116110   5.955   5.320   2.414
 5411TIP3    H216111   6.056   5.242   2.333
 5412TIP3   OH216112   5.718   5.517   1.801
 5412TIP3    H116113   5.642   5.459   1.810
 5412TIP3    H216114   5.786   5.477   1.856
 5413TIP3   OH216115   4.456   5.720   1.277
 5413TIP3    H116116   4.530   5.779   1.291
 5413TIP3    H216117   4.487   5.658   1.210
 5414TIP3   OH216118   4.368   5.017   1.410
 5414TIP3    H116119   4.377   5.112   1.415
 5414TIP3    H216120   4.335   5.001   1.321
 5415TIP3   OH216121   5.707   6.483   1.738
 5415TIP3    H116122   5.662   6.543   1.679
 5415TIP3    H216123   5.800   6.501   1.724
 5416TIP3   OH216124   4.765   4.741   2.274
 5416TIP3    H116125   4.736   4.709   2.189
 5416TIP3    H216126   4.758   4.665   2.332
 5417TIP3   OH216127   4.300   5.986   1.685
 5417TIP3    H116128   4.262   6.025   1.764
 5417TIP3    H216129   4.259   6.033   1.613
 5418TIP3   OH216130   4.508   6.534   2.756
 5418TIP3    H116131   4.594   6.545   2.796
 5418TIP3    H216132   4.501   6.440   2.739
 5419TIP3   OH216133   4.984   6.454   2.772
 5419TIP3    H116134   5.080   6.460   2.767
 5419TIP3    H216135   4.960   6.392   2.703
 5420TIP3   OH216136   4.913   6.022   0.920
 5420TIP3    H116137   4.853   5.963   0.965
 5420TIP3    H216138   4.990   5.968   0.902
 5421TIP3   OH216139   5.587   6.383   2.504
 5421TIP3    H116140   5.555   6.348   2.587
 5421TIP3    H216141   5.650   6.451   2.528
 5422TIP3   OH216142   5.278   6.055   0.905
 5422TIP3    H116143   5.305   5.985   0.964
 5422TIP3    H216144   5.358   6.078   0.857
 5423TIP3   OH216145   4.593   5.940   2.923
 5423TIP3    H116146   4.614   5.847   2.934
 5423TIP3    H216147   4.507   5.940   2.883
 5424TIP3   OH216148   4.577   5.532   1.119
 5424TIP3    H116149   4.627   5.508   1.197
 5424TIP3    H216150   4.643   5.547   1.051
 5425TIP3   OH216151   5.207   5.996   2.699
 5425TIP3    H116152   5.170   6.035   2.620
 5425TIP3    H216153   5.242   5.912   2.670
 5426TIP3   OH216154   5.070   5.753   0.930
 5426TIP3    H116155   5.091   5.766   1.022
 5426TIP3    H216156   5.076   5.658   0.917
 5427TIP3   OH216157   5.704   6.058   2.327
 5427TIP3    H116158   5.778   6.089   2.275
 5427TIP3    H216159   5.632   6.118   2.305
 5428TIP3   OH216160   4.702   5.682   2.921
 5428TIP3    H116161   4.776   5.669   2.861
 5428TIP3    H216162   4.743   5.695   3.007
 5429TIP3   OH216163   4.754   5.477   1.327
 5429TIP3    H116164   4.739   5.448   1.417
 5429TIP3    H216165   4.802   5.405   1.286
 5430TIP3   OH216166   5.004   5.503   2.558
 5430TIP3    H116167   4.952   5.572   2.600
 5430TIP3    H216168   5.068   5.550   2.505
 5431TIP3   OH216169   4.891   5.293   1.169
 5431TIP3    H116170   4.865   5.296   1.077
 5431TIP3    H216171   4.987   5.300   1.167
 5432TIP3   OH216172   5.671   5.533   0.919
 5432TIP3    H116173   5.659   5.512   0.826
 5432TIP3    H216174   5.674   5.629   0.921
 5433TIP3   OH216175   5.168   5.328   2.700
 5433TIP3    H116176   5.182   5.255   2.640
 5433TIP3    H216177   5.123   5.395   2.648
 5434TIP3   OH216178   5.189   5.136   2.494
 5434TIP3    H116179   5.219   5.186   2.418
 5434TIP3    H216180   5.099   5.110   2.473
 5435TIP3   OH216181   5.156   5.612   2.357
 5435TIP3    H116182   5.218   5.650   2.420
 5435TIP3    H216183   5.119   5.688   2.311
 5436TIP3   OH216184   5.857   5.618   2.852
 5436TIP3    H116185   5.821   5.572   2.777
 5436TIP3    H216186   5.878   5.705   2.818
 5437TIP3   OH216187   5.839   5.870   2.473
 5437TIP3    H116188   5.778   5.932   2.434
 5437TIP3    H216189   5.925   5.897   2.441
 5438TIP3   OH216190   5.060   5.410   2.945
 5438TIP3    H116191   4.993   5.343   2.961
 5438TIP3    H216192   5.091   5.392   2.856
 5439TIP3   OH216193   5.301   4.903   2.600
 5439TIP3    H116194   5.264   4.984   2.565
 5439TIP3    H216195   5.235   4.837   2.584
 5440TIP3   OH216196   5.438   5.345   2.787
 5440TIP3    H116197   5.427   5.339   2.881
 5440TIP3    H216198   5.349   5.348   2.751
 5441TIP3   OH216199   5.690   5.380   2.675
 5441TIP3    H116200   5.608   5.365   2.724
 5441TIP3    H216201   5.757   5.336   2.727
 5442TIP3   OH216202   5.917   5.277   2.810
 5442TIP3    H116203   5.928   5.183   2.818
 5442TIP3    H216204   5.910   5.308   2.901
 5443TIP3   OH216205   4.890   5.193   3.008
 5443TIP3    H116206   4.898   5.107   2.968
 5443TIP3    H216207   4.931   5.184   3.094
 5444TIP3   OH216208   5.366   4.868   2.863
 5444TIP3    H116209   5.436   4.804   2.855
 5444TIP3    H216210   5.338   4.885   2.773
 5445TIP3   OH216211   5.460   5.078   3.016
 5445TIP3    H116212   5.430   5.009   2.956
 5445TIP3    H216213   5.392   5.145   3.012
 5446TIP3   OH216214   4.680   6.294   1.123
 5446TIP3    H116215   4.773   6.297   1.100
 5446TIP3    H216216   4.635   6.332   1.047
 5447TIP3   OH216217   4.183   5.728   1.299
 5447TIP3    H116218   4.278   5.738   1.291
 5447TIP3    H216219   4.164   5.644   1.257
 5448TIP3   OH216220   4.089   6.294   1.751
 5448TIP3    H116221   4.028   6.240   1.702
 5448TIP3    H216222   4.132   6.233   1.811
 5449TIP3   OH216223   4.236   6.130   1.926
 5449TIP3    H116224   4.235   6.062   1.993
 5449TIP3    H216225   4.285   6.202   1.965
 5450TIP3   OH216226   5.975   6.551   1.730
 5450TIP3    H116227   5.994   6.582   1.818
 5450TIP3    H216228   6.038   6.596   1.674
 5451TIP3   OH216229   5.985   6.581   2.008
 5451TIP3    H116230   5.941   6.496   2.003
 5451TIP3    H216231   6.059   6.566   2.067
 5452TIP3   OH216232   6.043   6.282   2.600
 5452TIP3    H116233   5.962   6.303   2.647
 5452TIP3    H216234   6.091   6.365   2.597
 5453TIP3   OH216235   5.854   5.774   1.197
 5453TIP3    H116236   5.914   5.847   1.180
 5453TIP3    H216237   5.892   5.729   1.272
 5454TIP3   OH216238   5.990   5.637   1.393
 5454TIP3    H116239   5.928   5.600   1.455
 5454TIP3    H216240   6.057   5.679   1.447
 5455TIP3   OH216241   6.042   6.045   1.830
 5455TIP3    H116242   6.095   5.977   1.787
 5455TIP3    H216243   6.050   6.121   1.773
 5456TIP3   OH216244   5.851   6.337   2.012
 5456TIP3    H116245   5.785   6.380   2.067
 5456TIP3    H216246   5.800   6.295   1.942
 5457TIP3   OH216247   5.913   5.545   1.050
 5457TIP3    H116248   5.830   5.533   1.002
 5457TIP3    H216249   5.900   5.627   1.099
 5458TIP3   OH216250   5.722   5.220   1.022
 5458TIP3    H116251   5.701   5.274   0.945
 5458TIP3    H216252   5.719   5.130   0.989
 5459TIP3   OH216253   5.792   5.502   1.535
 5459TIP3    H116254   5.799   5.407   1.523
 5459TIP3    H216255   5.773   5.513   1.628
 5460TIP3   OH216256   4.407   5.578   2.303
 5460TIP3    H116257   4.398   5.542   2.215
 5460TIP3    H216258   4.500   5.571   2.323
 5461TIP3   OH216259   6.095   5.936   2.386
 5461TIP3    H116260   6.158   5.866   2.372
 5461TIP3    H216261   6.110   5.997   2.314
 5462TIP3   OH216262   6.260   5.715   2.374
 5462TIP3    H116263   6.184   5.673   2.414
 5462TIP3    H216264   6.334   5.659   2.397
 5463TIP3   OH216265   5.726   4.952   0.947
 5463TIP3    H116266   5.787   4.917   1.012
 5463TIP3    H216267   5.642   4.912   0.969
 5464TIP3   OH216268   5.783   5.226   1.421
 5464TIP3    H116269   5.828   5.142   1.435
 5464TIP3    H216270   5.828   5.265   1.346
 5465TIP3   OH216271   5.936   5.396   1.936
 5465TIP3    H116272   6.016   5.414   1.887
 5465TIP3    H216273   5.950   5.436   2.021
 5466TIP3   OH216274   6.012   5.546   2.160
 5466TIP3    H116275   5.942   5.573   2.219
 5466TIP3    H216276   6.041   5.627   2.118
 5467TIP3   OH216277   4.627   5.243   2.934
 5467TIP3    H116278   4.720   5.243   2.955
 5467TIP3    H216279   4.594   5.163   2.976
 5468TIP3   OH216280   6.476   5.138   2.702
 5468TIP3    H116281   6.542   5.085   2.658
 5468TIP3    H216282   6.439   5.192   2.632
 5469TIP3   OH216283   5.900   4.979   1.470
 5469TIP3    H116284   5.945   4.964   1.553
 5469TIP3    H216285   5.838   4.907   1.463
 5470TIP3   OH216286   4.607   4.969   2.300
 5470TIP3    H116287   4.662   4.890   2.302
 5470TIP3    H216288   4.669   5.040   2.282
 5471TIP3   OH216289   4.387   5.229   2.352
 5471TIP3    H116290   4.437   5.225   2.270
 5471TIP3    H216291   4.433   5.294   2.405
 5472TIP3   OH216292   6.323   5.277   2.521
 5472TIP3    H116293   6.258   5.315   2.580
 5472TIP3    H216294   6.271   5.223   2.462
 5473TIP3   OH216295   5.945   4.886   1.099
 5473TIP3    H116296   5.989   4.823   1.042
 5473TIP3    H216297   6.007   4.959   1.107
 5474TIP3   OH216298   4.371   4.727   1.846
 5474TIP3    H116299   4.288   4.721   1.894
 5474TIP3    H216300   4.352   4.787   1.773
 5475TIP3   OH216301   5.517   6.462   1.417
 5475TIP3    H116302   5.573   6.457   1.339
 5475TIP3    H216303   5.557   6.530   1.471
 5476TIP3   OH216304   4.601   4.782   2.676
 5476TIP3    H116305   4.552   4.782   2.758
 5476TIP3    H216306   4.547   4.834   2.616
 5477TIP3   OH216307   4.625   6.263   2.739
 5477TIP3    H116308   4.534   6.235   2.732
 5477TIP3    H216309   4.654   6.231   2.824
 5478TIP3   OH216310   4.847   6.305   2.304
 5478TIP3    H116311   4.796   6.381   2.273
 5478TIP3    H216312   4.930   6.312   2.257
 5479TIP3   OH216313   5.237   6.524   2.436
 5479TIP3    H116314   5.265   6.503   2.525
 5479TIP3    H216315   5.310   6.574   2.399
 5480TIP3   OH216316   5.437   6.677   2.318
 5480TIP3    H116317   5.487   6.615   2.264
 5480TIP3    H216318   5.503   6.717   2.375
 5481TIP3   OH216319   6.230   5.020   2.398
 5481TIP3    H116320   6.151   5.025   2.345
 5481TIP3    H216321   6.260   4.929   2.390
 5482TIP3   OH216322   4.494   6.521   2.345
 5482TIP3    H116323   4.407   6.554   2.323
 5482TIP3    H216324   4.525   6.579   2.414
 5483TIP3   OH216325   4.730   6.534   2.201
 5483TIP3    H116326   4.646   6.530   2.245
 5483TIP3    H216327   4.710   6.557   2.110
 5484TIP3   OH216328   5.143   6.560   1.990
 5484TIP3    H116329   5.070   6.569   1.928
 5484TIP3    H216330   5.153   6.647   2.029
 5485TIP3   OH216331   5.401   6.487   2.052
 5485TIP3    H116332   5.312   6.509   2.025
 5485TIP3    H216333   5.456   6.547   2.002
 5486TIP3   OH216334   5.604   6.636   1.943
 5486TIP3    H116335   5.612   6.725   1.909
 5486TIP3    H216336   5.638   6.580   1.873
 5487TIP3   OH216337   4.406   6.314   2.068
 5487TIP3    H116338   4.432   6.290   2.157
 5487TIP3    H216339   4.477   6.284   2.013
 5488TIP3   OH216340   4.612   6.201   1.930
 5488TIP3    H116341   4.623   6.115   1.969
 5488TIP3    H216342   4.699   6.241   1.933
 5489TIP3   OH216343   4.878   6.285   1.950
 5489TIP3    H116344   4.899   6.193   1.935
 5489TIP3    H216345   4.937   6.311   2.021
 5490TIP3   OH216346   5.433   4.925   2.024
 5490TIP3    H116347   5.398   4.857   2.081
 5490TIP3    H216348   5.502   4.881   1.974
 5491TIP3   OH216349   5.944   4.854   1.922
 5491TIP3    H116350   5.984   4.902   1.850
 5491TIP3    H216351   5.854   4.888   1.927
 5492TIP3   OH216352   6.062   4.927   1.687
 5492TIP3    H116353   6.131   4.866   1.660
 5492TIP3    H216354   6.101   5.013   1.674
 5493TIP3   OH216355   4.678   4.637   2.033
 5493TIP3    H116356   4.590   4.602   2.044
 5493TIP3    H216357   4.734   4.559   2.025
 5494TIP3   OH216358   4.487   4.536   1.675
 5494TIP3    H116359   4.521   4.587   1.601
 5494TIP3    H216360   4.455   4.601   1.737
 5495TIP3   OH216361   5.164   4.674   1.930
 5495TIP3    H116362   5.212   4.720   1.861
 5495TIP3    H216363   5.205   4.704   2.012
 5496TIP3   OH216364   5.648   4.803   1.900
 5496TIP3    H116365   5.683   4.769   1.818
 5496TIP3    H216366   5.659   4.732   1.962
 5497TIP3   OH216367   5.713   4.773   1.472
 5497TIP3    H116368   5.633   4.819   1.497
 5497TIP3    H216369   5.703   4.685   1.510
 5498TIP3   OH216370   4.189   6.115   1.472
 5498TIP3    H116371   4.110   6.077   1.434
 5498TIP3    H216372   4.191   6.204   1.439
 5499TIP3   OH216373   4.609   4.673   1.449
 5499TIP3    H116374   4.656   4.613   1.391
 5499TIP3    H216375   4.677   4.729   1.486
 5500TIP3   OH216376   5.093   4.869   1.547
 5500TIP3    H116377   5.154   4.817   1.599
 5500TIP3    H216378   5.107   4.959   1.576
 5501TIP3   OH216379   4.951   6.247   1.073
 5501TIP3    H116380   5.027   6.294   1.037
 5501TIP3    H216381   4.930   6.181   1.008
 5502TIP3   OH216382   5.657   6.416   1.182
 5502TIP3    H116383   5.632   6.324   1.185
 5502TIP3    H216384   5.615   6.451   1.104
 5503TIP3   OH216385   4.905   4.924   2.908
 5503TIP3    H116386   4.872   4.859   2.969
 5503TIP3    H216387   4.997   4.933   2.931
 5504TIP3   OH216388   5.151   4.927   3.034
 5504TIP3    H116389   5.228   4.905   2.983
 5504TIP3    H216390   5.146   4.858   3.101
 5505TIP3   OH216391   4.296   6.118   1.120
 5505TIP3    H116392   4.313   6.127   1.213
 5505TIP3    H216393   4.369   6.064   1.088
 5506TIP3   OH216394   5.981   5.007   2.823
 5506TIP3    H116395   6.000   4.982   2.913
 5506TIP3    H216396   6.067   5.006   2.780
 5507TIP3   OH216397   5.896   6.554   2.330
 5507TIP3    H116398   5.823   6.519   2.279
 5507TIP3    H216399   5.885   6.649   2.326
 5508TIP3   OH216400   7.095   5.860   1.217
 5508TIP3    H116401   7.084   5.945   1.258
 5508TIP3    H216402   7.043   5.864   1.137
 5509TIP3   OH216403   7.142   5.920   1.518
 5509TIP3    H116404   7.195   5.898   1.595
 5509TIP3    H216405   7.101   5.838   1.493
 5510TIP3   OH216406   6.467   5.786   1.841
 5510TIP3    H116407   6.502   5.735   1.914
 5510TIP3    H216408   6.544   5.812   1.791
 5511TIP3   OH216409   7.475   6.076   1.213
 5511TIP3    H116410   7.446   6.096   1.302
 5511TIP3    H216411   7.422   6.132   1.157
 5512TIP3   OH216412   6.465   6.211   1.548
 5512TIP3    H116413   6.438   6.119   1.550
 5512TIP3    H216414   6.558   6.209   1.527
 5513TIP3   OH216415   6.139   5.402   1.343
 5513TIP3    H116416   6.103   5.489   1.355
 5513TIP3    H216417   6.072   5.354   1.294
 5514TIP3   OH216418   6.219   5.731   1.527
 5514TIP3    H116419   6.271   5.656   1.555
 5514TIP3    H216420   6.282   5.800   1.508
 5515TIP3   OH216421   7.012   6.572   1.247
 5515TIP3    H116422   7.055   6.526   1.174
 5515TIP3    H216423   7.042   6.526   1.325
 5516TIP3   OH216424   6.979   6.144   1.504
 5516TIP3    H116425   7.022   6.059   1.495
 5516TIP3    H216426   7.049   6.204   1.530
 5517TIP3   OH216427   7.423   5.631   1.556
 5517TIP3    H116428   7.463   5.553   1.595
 5517TIP3    H216429   7.354   5.597   1.499
 5518TIP3   OH216430   6.728   5.287   1.504
 5518TIP3    H116431   6.707   5.362   1.449
 5518TIP3    H216432   6.672   5.216   1.473
 5519TIP3   OH216433   7.391   5.402   1.182
 5519TIP3    H116434   7.470   5.393   1.236
 5519TIP3    H216435   7.423   5.397   1.092
 5520TIP3   OH216436   6.363   5.517   1.628
 5520TIP3    H116437   6.446   5.499   1.673
 5520TIP3    H216438   6.366   5.463   1.549
 5521TIP3   OH216439   6.787   5.708   1.463
 5521TIP3    H116440   6.882   5.693   1.472
 5521TIP3    H216441   6.753   5.625   1.429
 5522TIP3   OH216442   6.718   5.299   1.947
 5522TIP3    H116443   6.669   5.336   1.874
 5522TIP3    H216444   6.663   5.315   2.024
 5523TIP3   OH216445   7.022   6.118   1.115
 5523TIP3    H116446   6.966   6.069   1.055
 5523TIP3    H216447   6.989   6.207   1.111
 5524TIP3   OH216448   6.812   6.082   1.716
 5524TIP3    H116449   6.757   6.154   1.747
 5524TIP3    H216450   6.861   6.119   1.642
 5525TIP3   OH216451   7.610   5.405   1.351
 5525TIP3    H116452   7.568   5.390   1.436
 5525TIP3    H216453   7.674   5.334   1.343
 5526TIP3   OH216454   6.608   5.411   1.720
 5526TIP3    H116455   6.665   5.485   1.741
 5526TIP3    H216456   6.654   5.365   1.650
 5527TIP3   OH216457   6.657   6.288   1.813
 5527TIP3    H116458   6.640   6.378   1.783
 5527TIP3    H216459   6.580   6.265   1.865
 5528TIP3   OH216460   6.032   5.971   1.142
 5528TIP3    H116461   6.006   5.995   1.053
 5528TIP3    H216462   6.042   6.054   1.188
 5529TIP3   OH216463   7.423   6.478   1.444
 5529TIP3    H116464   7.329   6.462   1.448
 5529TIP3    H216465   7.431   6.559   1.394
 5530TIP3   OH216466   7.740   5.328   1.666
 5530TIP3    H116467   7.647   5.348   1.655
 5530TIP3    H216468   7.763   5.280   1.586
 5531TIP3   OH216469   7.063   4.989   1.690
 5531TIP3    H116470   7.056   4.897   1.718
 5531TIP3    H216471   6.986   5.031   1.728
 5532TIP3   OH216472   7.146   6.517   1.011
 5532TIP3    H116473   7.226   6.472   0.984
 5532TIP3    H216474   7.143   6.595   0.955
 5533TIP3   OH216475   7.362   6.387   0.913
 5533TIP3    H116476   7.302   6.347   0.850
 5533TIP3    H216477   7.382   6.318   0.975
 5534TIP3   OH216478   7.734   6.340   1.687
 5534TIP3    H116479   7.738   6.299   1.601
 5534TIP3    H216480   7.713   6.432   1.669
 5535TIP3   OH216481   6.995   5.848   0.967
 5535TIP3    H116482   6.904   5.874   0.952
 5535TIP3    H216483   7.040   5.868   0.885
 5536TIP3   OH216484   6.941   5.621   0.637
 5536TIP3    H116485   6.988   5.604   0.719
 5536TIP3    H216486   6.909   5.535   0.609
 5537TIP3   OH216487   7.890   5.879   1.503
 5537TIP3    H116488   7.812   5.919   1.542
 5537TIP3    H216489   7.957   5.948   1.509
 5538TIP3   OH216490   7.415   5.770   0.808
 5538TIP3    H116491   7.384   5.837   0.870
 5538TIP3    H216492   7.502   5.747   0.840
 5539TIP3   OH216493   7.554   5.888   1.869
 5539TIP3    H116494   7.555   5.974   1.909
 5539TIP3    H216495   7.480   5.890   1.808
 5540TIP3   OH216496   6.564   5.809   1.333
 5540TIP3    H116497   6.524   5.743   1.275
 5540TIP3    H216498   6.640   5.765   1.370
 5541TIP3   OH216499   6.723   6.228   1.434
 5541TIP3    H116500   6.700   6.209   1.343
 5541TIP3    H216501   6.813   6.196   1.444
 5542TIP3   OH216502   6.680   5.846   1.675
 5542TIP3    H116503   6.719   5.809   1.596
 5542TIP3    H216504   6.727   5.929   1.689
 5543TIP3   OH216505   7.144   6.465   1.461
 5543TIP3    H116506   7.159   6.542   1.516
 5543TIP3    H216507   7.160   6.391   1.519
 5544TIP3   OH216508   6.852   6.374   1.989
 5544TIP3    H116509   6.791   6.432   2.034
 5544TIP3    H216510   6.798   6.326   1.927
 5545TIP3   OH216511   7.286   5.617   0.622
 5545TIP3    H116512   7.334   5.685   0.669
 5545TIP3    H216513   7.234   5.666   0.558
 5546TIP3   OH216514   6.610   5.917   2.132
 5546TIP3    H116515   6.615   6.011   2.150
 5546TIP3    H216516   6.516   5.899   2.124
 5547TIP3   OH216517   6.932   6.359   1.031
 5547TIP3    H116518   7.011   6.409   1.012
 5547TIP3    H216519   6.866   6.425   1.052
 5548TIP3   OH216520   6.642   6.536   2.068
 5548TIP3    H116521   6.614   6.549   1.977
 5548TIP3    H216522   6.561   6.521   2.116
 5549TIP3   OH216523   7.683   4.893   0.738
 5549TIP3    H116524   7.619   4.883   0.808
 5549TIP3    H216525   7.665   4.979   0.700
 5550TIP3   OH216526   6.438   5.648   1.144
 5550TIP3    H116527   6.386   5.724   1.118
 5550TIP3    H216528   6.377   5.574   1.140
 5551TIP3   OH216529   6.248   6.090   2.019
 5551TIP3    H116530   6.176   6.072   1.959
 5551TIP3    H216531   6.281   6.004   2.044
 5552TIP3   OH216532   6.102   6.280   1.694
 5552TIP3    H116533   6.197   6.293   1.695
 5552TIP3    H216534   6.067   6.357   1.738
 5553TIP3   OH216535   7.942   6.744   1.785
 5553TIP3    H116536   7.941   6.649   1.779
 5553TIP3    H216537   7.853   6.767   1.813
 5554TIP3   OH216538   7.040   6.517   1.850
 5554TIP3    H116539   7.032   6.609   1.878
 5554TIP3    H216540   6.974   6.471   1.901
 5555TIP3   OH216541   6.690   6.732   0.815
 5555TIP3    H116542   6.748   6.662   0.783
 5555TIP3    H216543   6.748   6.808   0.824
 5556TIP3   OH216544   6.244   6.416   1.227
 5556TIP3    H116545   6.302   6.427   1.302
 5556TIP3    H216546   6.204   6.330   1.239
 5557TIP3   OH216547   7.054   6.514   0.700
 5557TIP3    H116548   6.971   6.520   0.748
 5557TIP3    H216549   7.100   6.594   0.723
 5558TIP3   OH216550   7.809   5.839   1.991
 5558TIP3    H116551   7.727   5.857   1.944
 5558TIP3    H216552   7.813   5.744   1.995
 5559TIP3   OH216553   6.443   6.281   1.988
 5559TIP3    H116554   6.495   6.267   2.067
 5559TIP3    H216555   6.372   6.217   1.994
 5560TIP3   OH216556   6.824   5.084   1.805
 5560TIP3    H116557   6.741   5.049   1.771
 5560TIP3    H216558   6.799   5.163   1.852
 5561TIP3   OH216559   7.362   5.207   2.004
 5561TIP3    H116560   7.431   5.182   2.066
 5561TIP3    H216561   7.281   5.189   2.051
 5562TIP3   OH216562   7.611   5.624   1.925
 5562TIP3    H116563   7.568   5.613   2.010
 5562TIP3    H216564   7.584   5.710   1.895
 5563TIP3   OH216565   7.018   4.995   0.831
 5563TIP3    H116566   6.984   5.032   0.912
 5563TIP3    H216567   6.950   4.936   0.800
 5564TIP3   OH216568   6.761   5.621   1.817
 5564TIP3    H116569   6.713   5.627   1.900
 5564TIP3    H216570   6.740   5.704   1.772
 5565TIP3   OH216571   6.641   5.502   1.359
 5565TIP3    H116572   6.550   5.482   1.380
 5565TIP3    H216573   6.655   5.462   1.273
 5566TIP3   OH216574   7.108   5.591   1.177
 5566TIP3    H116575   7.096   5.684   1.198
 5566TIP3    H216576   7.171   5.591   1.105
 5567TIP3   OH216577   7.309   5.835   2.135
 5567TIP3    H116578   7.284   5.767   2.198
 5567TIP3    H216579   7.401   5.852   2.152
 5568TIP3   OH216580   7.242   5.505   1.394
 5568TIP3    H116581   7.188   5.537   1.321
 5568TIP3    H216582   7.295   5.435   1.356
 5569TIP3   OH216583   6.599   5.634   2.037
 5569TIP3    H116584   6.608   5.699   2.106
 5569TIP3    H216585   6.581   5.552   2.082
 5570TIP3   OH216586   6.489   5.096   0.837
 5570TIP3    H116587   6.499   5.117   0.930
 5570TIP3    H216588   6.576   5.113   0.800
 5571TIP3   OH216589   6.193   5.150   1.616
 5571TIP3    H116590   6.263   5.188   1.669
 5571TIP3    H216591   6.232   5.143   1.528
 5572TIP3   OH216592   6.103   5.112   1.123
 5572TIP3    H116593   6.155   5.147   1.051
 5572TIP3    H216594   6.041   5.182   1.144
 5573TIP3   OH216595   7.319   5.830   1.713
 5573TIP3    H116596   7.360   5.764   1.658
 5573TIP3    H216597   7.279   5.781   1.785
 5574TIP3   OH216598   6.995   5.280   1.418
 5574TIP3    H116599   6.915   5.279   1.470
 5574TIP3    H216600   7.065   5.297   1.481
 5575TIP3   OH216601   6.404   5.370   1.402
 5575TIP3    H116602   6.314   5.372   1.369
 5575TIP3    H216603   6.433   5.280   1.386
 5576TIP3   OH216604   6.659   5.348   1.135
 5576TIP3    H116605   6.744   5.379   1.103
 5576TIP3    H216606   6.598   5.365   1.063
 5577TIP3   OH216607   7.469   5.361   1.610
 5577TIP3    H116608   7.439   5.384   1.698
 5577TIP3    H216609   7.401   5.302   1.576
 5578TIP3   OH216610   6.478   5.368   0.941
 5578TIP3    H116611   6.413   5.301   0.918
 5578TIP3    H216612   6.440   5.450   0.911
 5579TIP3   OH216613   7.660   7.091   1.868
 5579TIP3    H116614   7.653   7.093   1.773
 5579TIP3    H216615   7.741   7.138   1.888
 5580TIP3   OH216616   6.597   6.187   2.218
 5580TIP3    H116617   6.678   6.206   2.266
 5580TIP3    H216618   6.528   6.198   2.283
 5581TIP3   OH216619   7.051   5.652   1.523
 5581TIP3    H116620   7.117   5.596   1.483
 5581TIP3    H216621   7.041   5.618   1.612
 5582TIP3   OH216622   6.533   5.120   1.385
 5582TIP3    H116623   6.510   5.041   1.434
 5582TIP3    H216624   6.548   5.089   1.296
 5583TIP3   OH216625   7.025   5.556   1.778
 5583TIP3    H116626   6.938   5.592   1.799
 5583TIP3    H216627   7.086   5.609   1.830
 5584TIP3   OH216628   6.733   5.897   0.937
 5584TIP3    H116629   6.705   5.809   0.963
 5584TIP3    H216630   6.719   5.951   1.015
 5585TIP3   OH216631   7.674   6.053   1.553
 5585TIP3    H116632   7.691   6.132   1.503
 5585TIP3    H216633   7.578   6.052   1.564
 5586TIP3   OH216634   7.248   5.116   0.751
 5586TIP3    H116635   7.166   5.074   0.777
 5586TIP3    H216636   7.229   5.209   0.754
 5587TIP3   OH216637   7.168   6.241   1.883
 5587TIP3    H116638   7.222   6.235   1.962
 5587TIP3    H216639   7.128   6.328   1.888
 5588TIP3   OH216640   7.276   5.386   0.756
 5588TIP3    H116641   7.295   5.416   0.845
 5588TIP3    H216642   7.274   5.466   0.704
 5589TIP3   OH216643   6.436   5.928   1.541
 5589TIP3    H116644   6.474   5.898   1.458
 5589TIP3    H216645   6.500   5.903   1.607
 5590TIP3   OH216646   6.935   6.111   0.818
 5590TIP3    H116647   6.902   6.119   0.728
 5590TIP3    H216648   6.858   6.128   0.872
 5591TIP3   OH216649   6.335   5.851   2.143
 5591TIP3    H116650   6.334   5.819   2.233
 5591TIP3    H216651   6.259   5.809   2.102
 5592TIP3   OH216652   7.079   5.994   2.172
 5592TIP3    H116653   7.009   5.934   2.146
 5592TIP3    H216654   7.160   5.950   2.143
 5593TIP3   OH216655   7.317   6.517   1.799
 5593TIP3    H116656   7.222   6.517   1.790
 5593TIP3    H216657   7.333   6.555   1.885
 5594TIP3   OH216658   7.876   5.540   0.655
 5594TIP3    H116659   7.863   5.487   0.576
 5594TIP3    H216660   7.810   5.609   0.649
 5595TIP3   OH216661   7.970   6.471   1.774
 5595TIP3    H116662   7.885   6.440   1.806
 5595TIP3    H216663   7.984   6.423   1.693
 5596TIP3   OH216664   7.388   6.055   1.481
 5596TIP3    H116665   7.297   6.027   1.486
 5596TIP3    H216666   7.436   5.977   1.454
 5597TIP3   OH216667   6.556   6.234   1.183
 5597TIP3    H116668   6.547   6.328   1.167
 5597TIP3    H216669   6.471   6.197   1.159
 5598TIP3   OH216670   6.197   5.501   1.053
 5598TIP3    H116671   6.231   5.556   0.981
 5598TIP3    H216672   6.106   5.528   1.063
 5599TIP3   OH216673   6.695   5.998   1.188
 5599TIP3    H116674   6.641   6.077   1.195
 5599TIP3    H216675   6.652   5.934   1.245
 5600TIP3   OH216676   6.847   6.591   1.654
 5600TIP3    H116677   6.884   6.664   1.604
 5600TIP3    H216678   6.921   6.558   1.706
 5601TIP3   OH216679   6.456   6.469   1.065
 5601TIP3    H116680   6.370   6.447   1.099
 5601TIP3    H216681   6.486   6.541   1.121
 5602TIP3   OH216682   7.214   6.249   1.610
 5602TIP3    H116683   7.209   6.240   1.705
 5602TIP3    H216684   7.296   6.207   1.586
 5603TIP3   OH216685   7.186   6.143   0.541
 5603TIP3    H116686   7.201   6.190   0.623
 5603TIP3    H216687   7.091   6.139   0.533
 5604TIP3   OH216688   7.462   6.741   1.726
 5604TIP3    H116689   7.398   6.670   1.734
 5604TIP3    H216690   7.440   6.783   1.642
 5605TIP3   OH216691   6.547   5.379   2.151
 5605TIP3    H116692   6.452   5.390   2.155
 5605TIP3    H216693   6.568   5.330   2.230
 5606TIP3   OH216694   7.338   6.048   0.773
 5606TIP3    H116695   7.286   5.979   0.733
 5606TIP3    H216696   7.421   6.046   0.725
 5607TIP3   OH216697   6.289   6.476   1.817
 5607TIP3    H116698   6.345   6.423   1.874
 5607TIP3    H216699   6.293   6.564   1.854
 5608TIP3   OH216700   6.529   6.156   0.458
 5608TIP3    H116701   6.583   6.104   0.400
 5608TIP3    H216702   6.578   6.159   0.540
 5609TIP3   OH216703   6.490   6.047   0.831
 5609TIP3    H116704   6.557   5.981   0.850
 5609TIP3    H216705   6.530   6.130   0.858
 5610TIP3   OH216706   6.268   5.851   1.070
 5610TIP3    H116707   6.196   5.884   1.123
 5610TIP3    H216708   6.226   5.812   0.993
 5611TIP3   OH216709   7.402   5.440   1.864
 5611TIP3    H116710   7.480   5.479   1.902
 5611TIP3    H216711   7.385   5.362   1.917
 5612TIP3   OH216712   7.185   5.237   1.072
 5612TIP3    H116713   7.257   5.186   1.033
 5612TIP3    H216714   7.228   5.311   1.114
 5613TIP3   OH216715   6.792   6.479   0.768
 5613TIP3    H116716   6.724   6.424   0.806
 5613TIP3    H216717   6.795   6.454   0.676
 5614TIP3   OH216718   6.938   5.376   1.165
 5614TIP3    H116719   6.992   5.455   1.165
 5614TIP3    H216720   6.949   5.339   1.253
 5615TIP3   OH216721   7.236   5.670   1.917
 5615TIP3    H116722   7.262   5.718   1.995
 5615TIP3    H216723   7.289   5.590   1.918
 5616TIP3   OH216724   7.072   5.074   1.255
 5616TIP3    H116725   7.049   5.141   1.320
 5616TIP3    H216726   7.119   5.122   1.187
 5617TIP3   OH216727   6.540   6.348   0.821
 5617TIP3    H116728   6.519   6.409   0.751
 5617TIP3    H216729   6.517   6.394   0.901
 5618TIP3   OH216730   6.598   5.083   1.110
 5618TIP3    H116731   6.604   5.177   1.126
 5618TIP3    H216732   6.688   5.056   1.092
 5619TIP3   OH216733   7.855   5.521   1.844
 5619TIP3    H116734   7.768   5.553   1.871
 5619TIP3    H216735   7.836   5.454   1.778
 5620TIP3   OH216736   7.517   5.832   1.400
 5620TIP3    H116737   7.492   5.790   1.317
 5620TIP3    H216738   7.501   5.765   1.467
 5621TIP3   OH216739   6.217   5.987   0.795
 5621TIP3    H116740   6.302   6.024   0.820
 5621TIP3    H216741   6.238   5.925   0.725
 5622TIP3   OH216742   6.222   5.257   0.925
 5622TIP3    H116743   6.222   5.337   0.979
 5622TIP3    H216744   6.154   5.272   0.860
 5623TIP3   OH216745   7.499   6.691   1.296
 5623TIP3    H116746   7.465   6.688   1.207
 5623TIP3    H216747   7.583   6.645   1.292
 5624TIP3   OH216748   6.563   4.997   1.760
 5624TIP3    H116749   6.534   4.963   1.675
 5624TIP3    H216750   6.554   4.922   1.820
 5625TIP3   OH216751   6.047   6.217   1.253
 5625TIP3    H116752   6.029   6.267   1.333
 5625TIP3    H216753   6.010   6.271   1.183
 5626TIP3   OH216754   6.296   6.790   2.225
 5626TIP3    H116755   6.378   6.791   2.274
 5626TIP3    H216756   6.283   6.698   2.202
 5627TIP3   OH216757   6.759   6.687   2.266
 5627TIP3    H116758   6.849   6.656   2.271
 5627TIP3    H216759   6.721   6.639   2.192
 5628TIP3   OH216760   7.369   6.633   2.041
 5628TIP3    H116761   7.389   6.563   2.103
 5628TIP3    H216762   7.441   6.696   2.052
 5629TIP3   OH216763   6.391   6.196   2.407
 5629TIP3    H116764   6.411   6.104   2.420
 5629TIP3    H216765   6.304   6.197   2.367
 5630TIP3   OH216766   6.344   5.830   0.618
 5630TIP3    H116767   6.414   5.814   0.680
 5630TIP3    H216768   6.388   5.863   0.540
 5631TIP3   OH216769   7.013   6.270   2.188
 5631TIP3    H116770   6.966   6.291   2.107
 5631TIP3    H216771   7.048   6.182   2.173
 5632TIP3   OH216772   6.925   6.080   0.528
 5632TIP3    H116773   6.835   6.094   0.557
 5632TIP3    H216774   6.917   6.026   0.449
 5633TIP3   OH216775   7.482   6.293   1.805
 5633TIP3    H116776   7.560   6.317   1.754
 5633TIP3    H216777   7.422   6.366   1.793
 5634TIP3   OH216778   6.507   5.945   2.422
 5634TIP3    H116779   6.581   5.918   2.368
 5634TIP3    H216780   6.544   5.959   2.509
 5635TIP3   OH216781   6.681   5.638   1.010
 5635TIP3    H116782   6.601   5.637   1.063
 5635TIP3    H216783   6.663   5.576   0.939
 5636TIP3   OH216784   6.874   5.820   2.077
 5636TIP3    H116785   6.786   5.857   2.087
 5636TIP3    H216786   6.902   5.848   1.990
 5637TIP3   OH216787   6.679   5.505   0.756
 5637TIP3    H116788   6.622   5.441   0.713
 5637TIP3    H216789   6.743   5.451   0.804
 5638TIP3   OH216790   7.368   6.189   2.157
 5638TIP3    H116791   7.441   6.156   2.104
 5638TIP3    H216792   7.366   6.131   2.233
 5639TIP3   OH216793   6.974   5.588   2.187
 5639TIP3    H116794   6.973   5.516   2.124
 5639TIP3    H216795   6.940   5.663   2.138
 5640TIP3   OH216796   6.976   5.382   1.993
 5640TIP3    H116797   7.003   5.423   1.910
 5640TIP3    H216798   6.885   5.354   1.977
 5641TIP3   OH216799   6.985   5.914   1.846
 5641TIP3    H116800   7.071   5.954   1.840
 5641TIP3    H216801   6.927   5.975   1.801
 5642TIP3   OH216802   7.577   5.865   2.230
 5642TIP3    H116803   7.610   5.776   2.240
 5642TIP3    H216804   7.653   5.916   2.202
 5643TIP3   OH216805   7.599   6.138   1.992
 5643TIP3    H116806   7.548   6.194   1.933
 5643TIP3    H216807   7.688   6.144   1.959
 5644TIP3   OH216808   6.861   5.667   2.431
 5644TIP3    H116809   6.791   5.606   2.451
 5644TIP3    H216810   6.889   5.644   2.342
 5645TIP3   OH216811   7.102   5.154   2.088
 5645TIP3    H116812   7.059   5.234   2.057
 5645TIP3    H216813   7.036   5.086   2.074
 5646TIP3   OH216814   7.232   5.620   2.286
 5646TIP3    H116815   7.222   5.607   2.381
 5646TIP3    H216816   7.145   5.602   2.250
 5647TIP3   OH216817   7.476   5.574   2.154
 5647TIP3    H116818   7.396   5.575   2.206
 5647TIP3    H216819   7.544   5.549   2.216
 5648TIP3   OH216820   7.708   5.545   2.307
 5648TIP3    H116821   7.723   5.450   2.313
 5648TIP3    H216822   7.703   5.574   2.398
 5649TIP3   OH216823   6.695   5.446   2.490
 5649TIP3    H116824   6.700   5.357   2.454
 5649TIP3    H216825   6.733   5.439   2.577
 5650TIP3   OH216826   7.168   5.129   2.352
 5650TIP3    H116827   7.236   5.062   2.345
 5650TIP3    H216828   7.138   5.142   2.262
 5651TIP3   OH216829   7.268   5.344   2.494
 5651TIP3    H116830   7.236   5.272   2.440
 5651TIP3    H216831   7.195   5.407   2.495
 5652TIP3   OH216832   6.524   6.472   0.579
 5652TIP3    H116833   6.606   6.479   0.531
 5652TIP3    H216834   6.482   6.557   0.568
 5653TIP3   OH216835   5.955   5.980   0.870
 5653TIP3    H116836   6.047   5.959   0.852
 5653TIP3    H216837   5.908   5.939   0.797
 5654TIP3   OH216838   5.871   6.552   1.282
 5654TIP3    H116839   5.803   6.499   1.242
 5654TIP3    H216840   5.913   6.493   1.345
 5655TIP3   OH216841   6.018   6.399   1.457
 5655TIP3    H116842   6.019   6.340   1.533
 5655TIP3    H216843   6.077   6.470   1.482
 5656TIP3   OH216844   7.862   6.741   1.242
 5656TIP3    H116845   7.895   6.734   1.331
 5656TIP3    H216846   7.788   6.801   1.249
 5657TIP3   OH216847   7.752   6.816   1.537
 5657TIP3    H116848   7.705   6.733   1.543
 5657TIP3    H216849   7.845   6.792   1.543
 5658TIP3   OH216850   7.839   6.530   2.056
 5658TIP3    H116851   7.771   6.535   2.124
 5658TIP3    H216852   7.885   6.614   2.063
 5659TIP3   OH216853   7.582   6.071   0.659
 5659TIP3    H116854   7.629   6.114   0.588
 5659TIP3    H216855   7.647   6.015   0.701
 5660TIP3   OH216856   7.763   5.937   0.808
 5660TIP3    H116857   7.747   5.936   0.902
 5660TIP3    H216858   7.840   5.993   0.798
 5661TIP3   OH216859   7.731   6.284   1.420
 5661TIP3    H116860   7.804   6.241   1.375
 5661TIP3    H216861   7.719   6.366   1.373
 5662TIP3   OH216862   7.635   6.573   1.591
 5662TIP3    H116863   7.576   6.622   1.649
 5662TIP3    H216864   7.576   6.528   1.530
 5663TIP3   OH216865   7.609   5.910   1.044
 5663TIP3    H116866   7.578   5.820   1.040
 5663TIP3    H216867   7.548   5.954   1.104
 5664TIP3   OH216868   6.204   5.825   1.784
 5664TIP3    H116869   6.194   5.794   1.694
 5664TIP3    H216870   6.298   5.820   1.801
 5665TIP3   OH216871   7.851   6.170   1.881
 5665TIP3    H116872   7.909   6.100   1.851
 5665TIP3    H216873   7.821   6.213   1.801
 5666TIP3   OH216874   8.020   5.945   1.853
 5666TIP3    H116875   7.947   5.903   1.899
 5666TIP3    H216876   8.096   5.894   1.878
 5667TIP3   OH216877   7.615   5.244   0.454
 5667TIP3    H116878   7.590   5.217   0.543
 5667TIP3    H216879   7.562   5.322   0.437
 5668TIP3   OH216880   7.525   5.379   0.946
 5668TIP3    H116881   7.614   5.382   0.981
 5668TIP3    H216882   7.531   5.420   0.859
 5669TIP3   OH216883   6.434   5.509   2.424
 5669TIP3    H116884   6.527   5.504   2.445
 5669TIP3    H216885   6.396   5.432   2.466
 5670TIP3   OH216886   8.251   5.421   2.167
 5670TIP3    H116887   8.313   5.355   2.133
 5670TIP3    H216888   8.215   5.462   2.089
 5671TIP3   OH216889   7.720   5.126   0.970
 5671TIP3    H116890   7.756   5.156   1.054
 5671TIP3    H216891   7.668   5.049   0.993
 5672TIP3   OH216892   6.403   5.223   1.783
 5672TIP3    H116893   6.456   5.144   1.785
 5672TIP3    H216894   6.465   5.294   1.766
 5673TIP3   OH216895   6.178   5.487   1.838
 5673TIP3    H116896   6.231   5.481   1.759
 5673TIP3    H216897   6.203   5.570   1.878
 5674TIP3   OH216898   8.088   5.560   1.990
 5674TIP3    H116899   8.039   5.586   2.067
 5674TIP3    H216900   8.022   5.533   1.926
 5675TIP3   OH216901   7.818   5.058   0.539
 5675TIP3    H116902   7.879   5.071   0.467
 5675TIP3    H216903   7.749   5.123   0.525
 5676TIP3   OH216904   6.164   4.977   1.351
 5676TIP3    H116905   6.078   4.976   1.394
 5676TIP3    H216906   6.152   5.033   1.274
 5677TIP3   OH216907   7.440   6.690   0.781
 5677TIP3    H116908   7.469   6.637   0.706
 5677TIP3    H216909   7.377   6.752   0.743
 5678TIP3   OH216910   6.399   5.050   2.170
 5678TIP3    H116911   6.351   5.050   2.253
 5678TIP3    H216912   6.344   5.099   2.110
 5679TIP3   OH216913   6.422   6.508   2.238
 5679TIP3    H116914   6.329   6.490   2.228
 5679TIP3    H216915   6.439   6.497   2.331
 5680TIP3   OH216916   6.607   6.563   1.788
 5680TIP3    H116917   6.539   6.614   1.744
 5680TIP3    H216918   6.688   6.586   1.744
 5681TIP3   OH216919   7.026   6.784   1.929
 5681TIP3    H116920   7.060   6.778   2.018
 5681TIP3    H216921   7.091   6.835   1.882
 5682TIP3   OH216922   7.227   6.934   1.815
 5682TIP3    H116923   7.294   6.876   1.779
 5682TIP3    H216924   7.276   6.999   1.865
 5683TIP3   OH216925   8.018   5.226   1.895
 5683TIP3    H116926   7.931   5.192   1.874
 5683TIP3    H216927   8.077   5.153   1.880
 5684TIP3   OH216928   6.283   6.746   1.878
 5684TIP3    H116929   6.203   6.786   1.845
 5684TIP3    H216930   6.336   6.819   1.910
 5685TIP3   OH216931   6.957   6.789   1.500
 5685TIP3    H116932   6.920   6.795   1.412
 5685TIP3    H216933   6.962   6.880   1.530
 5686TIP3   OH216934   7.203   6.706   1.575
 5686TIP3    H116935   7.116   6.739   1.550
 5686TIP3    H216936   7.264   6.767   1.534
 5687TIP3   OH216937   7.413   6.860   1.489
 5687TIP3    H116938   7.399   6.948   1.454
 5687TIP3    H216939   7.449   6.811   1.415
 5688TIP3   OH216940   6.211   6.575   1.568
 5688TIP3    H116941   6.238   6.548   1.656
 5688TIP3    H216942   6.283   6.548   1.511
 5689TIP3   OH216943   6.416   6.454   1.436
 5689TIP3    H116944   6.428   6.370   1.480
 5689TIP3    H216945   6.504   6.491   1.429
 5690TIP3   OH216946   6.691   6.500   1.448
 5690TIP3    H116947   6.706   6.405   1.442
 5690TIP3    H216948   6.744   6.528   1.523
 5691TIP3   OH216949   7.271   5.184   1.521
 5691TIP3    H116950   7.223   5.114   1.565
 5691TIP3    H216951   7.332   5.138   1.463
 5692TIP3   OH216952   7.736   5.165   1.440
 5692TIP3    H116953   7.787   5.157   1.359
 5692TIP3    H216954   7.652   5.124   1.419
 5693TIP3   OH216955   7.876   5.171   1.203
 5693TIP3    H116956   7.942   5.107   1.174
 5693TIP3    H216957   7.918   5.256   1.191
 5694TIP3   OH216958   6.474   4.887   1.522
 5694TIP3    H116959   6.384   4.855   1.533
 5694TIP3    H216960   6.528   4.808   1.519
 5695TIP3   OH216961   6.253   4.763   1.195
 5695TIP3    H116962   6.309   4.806   1.130
 5695TIP3    H216963   6.226   4.833   1.254
 5696TIP3   OH216964   6.943   4.920   1.444
 5696TIP3    H116965   6.992   4.965   1.376
 5696TIP3    H216966   6.985   4.947   1.526
 5697TIP3   OH216967   7.487   5.059   1.381
 5697TIP3    H116968   7.509   5.011   1.301
 5697TIP3    H216969   7.474   4.990   1.447
 5698TIP3   OH216970   7.549   4.905   0.976
 5698TIP3    H116971   7.483   4.974   0.982
 5698TIP3    H216972   7.512   4.833   1.028
 5699TIP3   OH216973   5.962   6.367   1.048
 5699TIP3    H116974   5.968   6.323   0.964
 5699TIP3    H216975   5.918   6.450   1.029
 5700TIP3   OH216976   6.419   4.886   1.016
 5700TIP3    H116977   6.460   4.879   0.930
 5700TIP3    H216978   6.474   4.949   1.063
 5701TIP3   OH216979   6.875   5.100   1.054
 5701TIP3    H116980   6.915   5.041   1.118
 5701TIP3    H216981   6.899   5.187   1.085
 5702TIP3   OH216982   6.709   5.176   2.402
 5702TIP3    H116983   6.675   5.110   2.461
 5702TIP3    H216984   6.801   5.185   2.427
 5703TIP3   OH216985   6.955   5.183   2.528
 5703TIP3    H116986   7.032   5.161   2.475
 5703TIP3    H216987   6.949   5.114   2.593
 5704TIP3   OH216988   6.176   6.510   0.659
 5704TIP3    H116989   6.182   6.513   0.755
 5704TIP3    H216990   6.199   6.420   0.637
 5705TIP3   OH216991   7.773   5.275   2.310
 5705TIP3    H116992   7.792   5.245   2.399
 5705TIP3    H216993   7.858   5.270   2.265
 5706TIP3   OH216994   7.690   6.816   1.860
 5706TIP3    H116995   7.611   6.788   1.814
 5706TIP3    H216996   7.679   6.911   1.869
 5707TIP3   OH216997   9.060   6.210   0.848
 5707TIP3    H116998   9.078   6.200   0.941
 5707TIP3    H216999   9.028   6.124   0.820
 5708TIP3   OH217000   8.333   6.145   1.403
 5708TIP3    H117001   8.281   6.070   1.434
 5708TIP3    H217002   8.387   6.108   1.333
 5709TIP3   OH217003   8.275   6.381   0.956
 5709TIP3    H117004   8.276   6.289   0.931
 5709TIP3    H217005   8.300   6.381   1.048
 5710TIP3   OH217006   7.901   5.669   0.920
 5710TIP3    H117007   7.945   5.754   0.917
 5710TIP3    H217008   7.918   5.631   0.834
 5711TIP3   OH217009   8.039   5.902   0.924
 5711TIP3    H117010   8.048   5.930   1.015
 5711TIP3    H217011   8.037   5.983   0.874
 5712TIP3   OH217012   8.879   6.363   1.033
 5712TIP3    H117013   8.863   6.334   0.943
 5712TIP3    H217014   8.898   6.457   1.024
 5713TIP3   OH217015   9.137   5.933   0.993
 5713TIP3    H117016   9.158   5.862   1.054
 5713TIP3    H217017   9.209   5.933   0.930
 5714TIP3   OH217018   8.542   5.582   0.909
 5714TIP3    H117019   8.503   5.650   0.853
 5714TIP3    H217020   8.492   5.586   0.990
 5715TIP3   OH217021   8.012   5.697   1.256
 5715TIP3    H117022   8.097   5.667   1.289
 5715TIP3    H217023   8.011   5.670   1.164
 5716TIP3   OH217024   8.662   6.040   0.769
 5716TIP3    H117025   8.751   6.047   0.804
 5716TIP3    H217026   8.659   5.954   0.728
 5717TIP3   OH217027   8.486   5.548   1.490
 5717TIP3    H117028   8.420   5.557   1.422
 5717TIP3    H217029   8.440   5.570   1.571
 5718TIP3   OH217030   8.606   6.312   1.271
 5718TIP3    H117031   8.562   6.358   1.342
 5718TIP3    H217032   8.600   6.372   1.196
 5719TIP3   OH217033   8.272   5.612   1.319
 5719TIP3    H117034   8.299   5.703   1.310
 5719TIP3    H217035   8.318   5.566   1.250
 5720TIP3   OH217036   8.468   6.469   1.460
 5720TIP3    H117037   8.465   6.550   1.410
 5720TIP3    H217038   8.394   6.475   1.520
 5721TIP3   OH217039   8.876   5.190   1.151
 5721TIP3    H117040   8.843   5.112   1.195
 5721TIP3    H217041   8.818   5.261   1.180
 5722TIP3   OH217042   8.387   6.116   0.790
 5722TIP3    H117043   8.344   6.151   0.712
 5722TIP3    H217044   8.469   6.078   0.757
 5723TIP3   OH217045   8.602   6.506   1.037
 5723TIP3    H117046   8.571   6.418   1.019
 5723TIP3    H217047   8.658   6.528   0.963
 5724TIP3   OH217048   8.516   6.064   1.211
 5724TIP3    H117049   8.556   6.023   1.134
 5724TIP3    H217050   8.561   6.149   1.218
 5725TIP3   OH217051   8.669   6.711   1.548
 5725TIP3    H117052   8.584   6.742   1.578
 5725TIP3    H217053   8.653   6.684   1.457
 5726TIP3   OH217054   8.446   6.206   1.649
 5726TIP3    H117055   8.430   6.298   1.668
 5726TIP3    H217056   8.401   6.191   1.565
 5727TIP3   OH217057   8.409   6.798   1.604
 5727TIP3    H117058   8.393   6.761   1.518
 5727TIP3    H217059   8.339   6.763   1.659
 5728TIP3   OH217060   8.044   6.315   1.560
 5728TIP3    H117061   7.993   6.280   1.487
 5728TIP3    H217062   8.091   6.239   1.595
 5729TIP3   OH217063   7.912   6.511   1.047
 5729TIP3    H117064   7.883   6.421   1.037
 5729TIP3    H217065   7.835   6.564   1.028
 5730TIP3   OH217066   8.900   6.780   1.425
 5730TIP3    H117067   8.864   6.853   1.376
 5730TIP3    H217068   8.831   6.757   1.487
 5731TIP3   OH217069   8.207   6.535   1.539
 5731TIP3    H117070   8.224   6.559   1.630
 5731TIP3    H217071   8.153   6.456   1.544
 5732TIP3   OH217072   8.545   5.228   1.318
 5732TIP3    H117073   8.455   5.255   1.299
 5732TIP3    H217074   8.600   5.294   1.275
 5733TIP3   OH217075   9.129   5.435   1.559
 5733TIP3    H117076   9.177   5.374   1.615
 5733TIP3    H217077   9.040   5.400   1.555
 5734TIP3   OH217078   8.577   5.876   1.414
 5734TIP3    H117079   8.502   5.872   1.474
 5734TIP3    H217080   8.567   5.960   1.369
 5735TIP3   OH217081   8.421   5.779   0.757
 5735TIP3    H117082   8.329   5.782   0.729
 5735TIP3    H217083   8.470   5.759   0.678
 5736TIP3   OH217084   9.132   6.103   1.665
 5736TIP3    H117085   9.115   6.027   1.722
 5736TIP3    H217086   9.224   6.125   1.682
 5737TIP3   OH217087   8.356   5.878   1.578
 5737TIP3    H117088   8.296   5.933   1.629
 5737TIP3    H217089   8.352   5.793   1.620
 5738TIP3   OH217090   8.026   5.402   1.176
 5738TIP3    H117091   8.053   5.407   1.268
 5738TIP3    H217092   8.109   5.406   1.128
 5739TIP3   OH217093   8.135   5.475   0.576
 5739TIP3    H117094   8.165   5.524   0.499
 5739TIP3    H217095   8.055   5.520   0.604
 5740TIP3   OH217096   9.078   6.155   1.128
 5740TIP3    H117097   9.105   6.072   1.088
 5740TIP3    H217098   9.124   6.156   1.213
 5741TIP3   OH217099   8.781   5.458   0.947
 5741TIP3    H117100   8.700   5.504   0.926
 5741TIP3    H217101   8.851   5.513   0.910
 5742TIP3   OH217102   8.170   5.504   0.914
 5742TIP3    H117103   8.083   5.465   0.914
 5742TIP3    H217104   8.226   5.438   0.873
 5743TIP3   OH217105   9.196   5.713   1.135
 5743TIP3    H117106   9.116   5.673   1.168
 5743TIP3    H217107   9.214   5.665   1.054
 5744TIP3   OH217108   8.398   6.455   1.748
 5744TIP3    H117109   8.480   6.478   1.793
 5744TIP3    H217110   8.331   6.466   1.815
 5745TIP3   OH217111   8.923   5.968   0.831
 5745TIP3    H117112   8.917   5.881   0.791
 5745TIP3    H217113   8.989   5.958   0.900
 5746TIP3   OH217114   8.444   5.276   0.957
 5746TIP3    H117115   8.395   5.206   0.999
 5746TIP3    H217116   8.395   5.294   0.876
 5747TIP3   OH217117   8.831   5.784   1.359
 5747TIP3    H117118   8.757   5.838   1.385
 5747TIP3    H217119   8.908   5.831   1.393
 5748TIP3   OH217120   8.971   6.558   1.300
 5748TIP3    H117121   8.971   6.499   1.376
 5748TIP3    H217122   8.965   6.646   1.338
 5749TIP3   OH217123   8.280   6.115   1.044
 5749TIP3    H117124   8.300   6.088   0.954
 5749TIP3    H217125   8.359   6.092   1.094
 5750TIP3   OH217126   8.159   6.093   1.677
 5750TIP3    H117127   8.213   6.134   1.744
 5750TIP3    H217128   8.099   6.036   1.726
 5751TIP3   OH217129   8.890   6.230   1.719
 5751TIP3    H117130   8.816   6.172   1.700
 5751TIP3    H217131   8.967   6.180   1.691
 5752TIP3   OH217132   9.135   6.769   1.146
 5752TIP3    H117133   9.063   6.831   1.140
 5752TIP3    H217134   9.205   6.817   1.191
 5753TIP3   OH217135   8.645   6.889   1.291
 5753TIP3    H117136   8.699   6.964   1.316
 5753TIP3    H217137   8.663   6.877   1.198
 5754TIP3   OH217138   9.179   6.421   1.050
 5754TIP3    H117139   9.099   6.369   1.051
 5754TIP3    H217140   9.168   6.482   0.977
 5755TIP3   OH217141   8.354   5.625   1.717
 5755TIP3    H117142   8.293   5.668   1.777
 5755TIP3    H217143   8.387   5.550   1.766
 5756TIP3   OH217144   7.999   6.702   1.477
 5756TIP3    H117145   8.070   6.639   1.489
 5756TIP3    H217146   8.043   6.788   1.480
 5757TIP3   OH217147   9.104   5.671   1.429
 5757TIP3    H117148   9.196   5.680   1.406
 5757TIP3    H217149   9.102   5.593   1.486
 5758TIP3   OH217150   9.046   5.935   1.463
 5758TIP3    H117151   9.090   5.989   1.530
 5758TIP3    H217152   9.074   5.846   1.482
 5759TIP3   OH217153   8.266   5.221   1.288
 5759TIP3    H117154   8.260   5.186   1.199
 5759TIP3    H217155   8.288   5.145   1.342
 5760TIP3   OH217156   8.052   6.994   1.791
 5760TIP3    H117157   8.132   6.982   1.842
 5760TIP3    H217158   8.010   6.908   1.790
 5761TIP3   OH217159   8.532   6.952   1.800
 5761TIP3    H117160   8.624   6.926   1.806
 5761TIP3    H217161   8.495   6.896   1.732
 5762TIP3   OH217162   9.278   7.020   1.622
 5762TIP3    H117163   9.231   7.003   1.540
 5762TIP3    H217164   9.367   6.988   1.604
 5763TIP3   OH217165   8.191   6.444   1.934
 5763TIP3    H117166   8.203   6.349   1.937
 5763TIP3    H217167   8.108   6.456   1.887
 5764TIP3   OH217168   8.865   6.539   1.736
 5764TIP3    H117169   8.819   6.521   1.655
 5764TIP3    H217170   8.899   6.453   1.764
 5765TIP3   OH217171   8.305   6.186   1.896
 5765TIP3    H117172   8.380   6.187   1.837
 5765TIP3    H217173   8.341   6.205   1.982
 5766TIP3   OH217174   8.665   6.046   1.668
 5766TIP3    H117175   8.585   6.100   1.664
 5766TIP3    H217176   8.699   6.048   1.579
 5767TIP3   OH217177   9.220   6.434   1.680
 5767TIP3    H117178   9.156   6.412   1.612
 5767TIP3    H217179   9.199   6.376   1.753
 5768TIP3   OH217180   8.823   5.807   1.676
 5768TIP3    H117181   8.792   5.724   1.639
 5768TIP3    H217182   8.749   5.866   1.669
 5769TIP3   OH217183   8.752   5.582   1.522
 5769TIP3    H117184   8.776   5.646   1.455
 5769TIP3    H217185   8.658   5.567   1.508
 5770TIP3   OH217186   8.810   6.066   1.438
 5770TIP3    H117187   8.894   6.024   1.453
 5770TIP3    H217188   8.831   6.151   1.400
 5771TIP3   OH217189   9.395   6.142   1.751
 5771TIP3    H117190   9.424   6.072   1.809
 5771TIP3    H217191   9.472   6.162   1.698
 5772TIP3   OH217192   8.647   5.942   1.927
 5772TIP3    H117193   8.579   5.875   1.937
 5772TIP3    H217194   8.639   5.971   1.836
 5773TIP3   OH217195   8.873   5.348   1.582
 5773TIP3    H117196   8.832   5.432   1.561
 5773TIP3    H217197   8.803   5.284   1.573
 5774TIP3   OH217198   9.059   5.876   1.789
 5774TIP3    H117199   9.040   5.865   1.882
 5774TIP3    H217200   8.980   5.847   1.744
 5775TIP3   OH217201   9.286   5.808   1.631
 5775TIP3    H117202   9.215   5.816   1.696
 5775TIP3    H217203   9.366   5.807   1.683
 5776TIP3   OH217204   9.545   5.788   1.746
 5776TIP3    H117205   9.546   5.703   1.790
 5776TIP3    H217206   9.529   5.851   1.816
 5777TIP3   OH217207   8.490   5.712   1.990
 5777TIP3    H117208   8.497   5.626   1.950
 5777TIP3    H217209   8.529   5.701   2.077
 5778TIP3   OH217210   8.965   5.385   1.839
 5778TIP3    H117211   9.034   5.319   1.847
 5778TIP3    H217212   8.931   5.373   1.750
 5779TIP3   OH217213   9.056   5.615   1.959
 5779TIP3    H117214   9.026   5.541   1.906
 5779TIP3    H217215   8.982   5.676   1.960
 5780TIP3   OH217216   7.878   6.641   0.781
 5780TIP3    H117217   7.932   6.564   0.799
 5780TIP3    H217218   7.897   6.701   0.854
 5781TIP3   OH217219   7.954   6.143   1.361
 5781TIP3    H117220   7.938   6.060   1.316
 5781TIP3    H217221   8.004   6.195   1.298
 5782TIP3   OH217222   8.233   5.782   1.920
 5782TIP3    H117223   8.322   5.770   1.955
 5782TIP3    H217224   8.185   5.706   1.953
 5783TIP3   OH217225   8.132   5.407   1.433
 5783TIP3    H117226   8.184   5.336   1.394
 5783TIP3    H217227   8.183   5.486   1.416
 5784TIP3   OH217228   7.946   5.361   0.854
 5784TIP3    H117229   7.950   5.268   0.829
 5784TIP3    H217230   7.917   5.405   0.774
 5785TIP3   OH217231   8.195   5.318   1.689
 5785TIP3    H117232   8.122   5.312   1.751
 5785TIP3    H217233   8.156   5.352   1.609
 5786TIP3   OH217234   8.212   6.711   1.769
 5786TIP3    H117235   8.118   6.724   1.759
 5786TIP3    H217236   8.228   6.719   1.863
 5787TIP3   OH217237   8.434   6.720   1.341
 5787TIP3    H117238   8.389   6.710   1.258
 5787TIP3    H217239   8.506   6.781   1.322
 5788TIP3   OH217240   8.848   7.050   1.399
 5788TIP3    H117241   8.912   7.025   1.466
 5788TIP3    H217242   8.894   7.110   1.342
 5789TIP3   OH217243   9.030   7.199   1.252
 5789TIP3    H117244   9.089   7.153   1.191
 5789TIP3    H217245   9.080   7.206   1.333
 5790TIP3   OH217246   8.063   6.961   1.447
 5790TIP3    H117247   7.973   6.996   1.443
 5790TIP3    H217248   8.112   7.029   1.493
 5791TIP3   OH217249   8.155   7.049   1.047
 5791TIP3    H117250   8.176   7.140   1.066
 5791TIP3    H217251   8.155   7.043   0.951
 5792TIP3   OH217252   7.952   6.820   0.988
 5792TIP3    H117253   7.936   6.772   1.070
 5792TIP3    H217254   8.037   6.789   0.958
 5793TIP3   OH217255   8.170   6.699   0.869
 5793TIP3    H117256   8.142   6.628   0.811
 5793TIP3    H217257   8.234   6.659   0.928
 5794TIP3   OH217258   8.405   6.869   0.967
 5794TIP3    H117259   8.357   6.799   1.011
 5794TIP3    H217260   8.495   6.861   0.999
 5795TIP3   OH217261   9.075   5.350   0.940
 5795TIP3    H117262   9.003   5.309   0.986
 5795TIP3    H217263   9.057   5.334   0.847
 5796TIP3   OH217264   8.256   5.094   1.044
 5796TIP3    H117265   8.169   5.055   1.050
 5796TIP3    H217266   8.313   5.020   1.022
 5797TIP3   OH217267   8.175   5.026   0.699
 5797TIP3    H117268   8.166   5.079   0.621
 5797TIP3    H217269   8.098   5.047   0.752
 5798TIP3   OH217270   8.772   5.180   0.896
 5798TIP3    H117271   8.759   5.275   0.890
 5798TIP3    H217272   8.815   5.167   0.980
 5799TIP3   OH217273   8.495   5.443   1.901
 5799TIP3    H117274   8.457   5.377   1.959
 5799TIP3    H217275   8.588   5.445   1.924
 5800TIP3   OH217276   8.749   5.435   2.013
 5800TIP3    H117277   8.822   5.427   1.952
 5800TIP3    H217278   8.750   5.354   2.064
 5801TIP3   OH217279   9.694   7.059   2.852
 5801TIP3    H117280   9.731   6.995   2.912
 5801TIP3    H217281   9.660   7.128   2.908
 5802TIP3   OH217282   0.501   6.264   3.157
 5802TIP3    H117283   0.516   6.350   3.195
 5802TIP3    H217284   0.542   6.267   3.071
 5803TIP3   OH217285   9.660   6.482   3.151
 5803TIP3    H117286   9.671   6.454   3.241
 5803TIP3    H217287   9.628   6.404   3.105
 5804TIP3   OH217288   0.020   6.274   2.759
 5804TIP3    H117289   0.068   6.240   2.835
 5804TIP3    H217290  -0.023   6.198   2.721
 5805TIP3   OH217291   0.540   6.477   3.336
 5805TIP3    H117292   0.468   6.532   3.302
 5805TIP3    H217293   0.506   6.441   3.417
 5806TIP3   OH217294   0.127   6.199   3.002
 5806TIP3    H117295   0.043   6.194   3.047
 5806TIP3    H217296   0.169   6.277   3.037
 5807TIP3   OH217297   0.326   6.173   3.350
 5807TIP3    H117298   0.234   6.167   3.326
 5807TIP3    H217299   0.370   6.198   3.269
 5808TIP3   OH217300   0.166   7.225   3.355
 5808TIP3    H117301   0.152   7.147   3.302
 5808TIP3    H217302   0.125   7.296   3.306
 5809TIP3   OH217303   0.366   6.844   3.208
 5809TIP3    H117304   0.289   6.900   3.218
 5809TIP3    H217305   0.390   6.851   3.116
 5810TIP3   OH217306   9.657   6.588   2.552
 5810TIP3    H117307   9.605   6.663   2.580
 5810TIP3    H217308   9.735   6.591   2.608
 5811TIP3   OH217309   9.768   6.835   3.341
 5811TIP3    H117310   9.815   6.893   3.401
 5811TIP3    H217311   9.782   6.748   3.377
 5812TIP3   OH217312   0.173   5.720   2.414
 5812TIP3    H117313   0.088   5.736   2.456
 5812TIP3    H217314   0.175   5.779   2.339
 5813TIP3   OH217315   0.406   7.534   3.393
 5813TIP3    H117316   0.417   7.439   3.401
 5813TIP3    H217317   0.329   7.555   3.445
 5814TIP3   OH217318   0.246   6.634   3.578
 5814TIP3    H117319   0.228   6.689   3.654
 5814TIP3    H217320   0.276   6.551   3.615
 5815TIP3   OH217321   9.664   5.878   3.660
 5815TIP3    H117322   9.741   5.922   3.696
 5815TIP3    H217323   9.593   5.902   3.720
 5816TIP3   OH217324   0.077   6.356   3.600
 5816TIP3    H117325   0.150   6.367   3.661
 5816TIP3    H217326   0.005   6.405   3.640
 5817TIP3   OH217327   9.475   6.314   3.005
 5817TIP3    H117328   9.508   6.363   2.931
 5817TIP3    H217329   9.540   6.245   3.019
 5818TIP3   OH217330   0.057   6.111   3.335
 5818TIP3    H117331   0.015   6.109   3.421
 5818TIP3    H217332   0.031   6.028   3.294
 5819TIP3   OH217333   0.151   7.013   3.182
 5819TIP3    H117334   0.187   7.051   3.102
 5819TIP3    H217335   0.076   6.962   3.152
 5820TIP3   OH217336   9.427   6.105   2.487
 5820TIP3    H117337   9.349   6.084   2.539
 5820TIP3    H217338   9.395   6.159   2.415
 5821TIP3   OH217339   9.629   6.408   2.352
 5821TIP3    H117340   9.655   6.468   2.422
 5821TIP3    H217341   9.571   6.460   2.297
 5822TIP3   OH217342   0.426   7.254   3.423
 5822TIP3    H117343   0.330   7.246   3.419
 5822TIP3    H217344   0.456   7.221   3.338
 5823TIP3   OH217345   9.756   6.870   3.041
 5823TIP3    H117346   9.683   6.858   3.102
 5823TIP3    H217347   9.784   6.780   3.020
 5824TIP3   OH217348   9.721   6.139   3.566
 5824TIP3    H117349   9.774   6.206   3.610
 5824TIP3    H217350   9.648   6.124   3.626
 5825TIP3   OH217351   9.644   6.074   2.647
 5825TIP3    H117352   9.566   6.076   2.591
 5825TIP3    H217353   9.609   6.064   2.736
 5826TIP3   OH217354   0.389   6.378   3.540
 5826TIP3    H117355   0.359   6.353   3.627
 5826TIP3    H217356   0.363   6.305   3.484
 5827TIP3   OH217357   0.040   6.604   2.989
 5827TIP3    H117358  -0.030   6.567   3.043
 5827TIP3    H217359   0.119   6.558   3.017
 5828TIP3   OH217360   9.781   7.473   2.953
 5828TIP3    H117361   9.716   7.448   2.888
 5828TIP3    H217362   9.853   7.511   2.903
 5829TIP3   OH217363   9.734   6.741   3.887
 5829TIP3    H117364   9.752   6.648   3.903
 5829TIP3    H217365   9.814   6.774   3.845
 5830TIP3   OH217366   0.075   6.991   3.542
 5830TIP3    H117367   0.023   7.069   3.529
 5830TIP3    H217368   0.166   7.021   3.534
 5831TIP3   OH217369   9.688   6.465   3.760
 5831TIP3    H117370   9.633   6.386   3.762
 5831TIP3    H217371   9.730   6.467   3.846
 5832TIP3   OH217372   0.164   6.258   4.002
 5832TIP3    H117373   0.131   6.173   4.032
 5832TIP3    H217374   0.240   6.275   4.058
 5833TIP3   OH217375   0.230   7.592   2.891
 5833TIP3    H117376   0.241   7.615   2.983
 5833TIP3    H217377   0.268   7.666   2.843
 5834TIP3   OH217378   0.253   7.628   3.169
 5834TIP3    H117379   0.197   7.551   3.184
 5834TIP3    H217380   0.327   7.616   3.229
 5835TIP3   OH217381   0.250   7.356   3.770
 5835TIP3    H117382   0.191   7.356   3.846
 5835TIP3    H217383   0.308   7.430   3.785
 5836TIP3   OH217384   0.191   6.797   2.352
 5836TIP3    H117385   0.249   6.874   2.347
 5836TIP3    H217386   0.220   6.752   2.431
 5837TIP3   OH217387   0.287   6.651   2.568
 5837TIP3    H117388   0.215   6.628   2.626
 5837TIP3    H217389   0.346   6.703   2.622
 5838TIP3   OH217390   0.312   7.111   2.984
 5838TIP3    H117391   0.355   7.037   2.941
 5838TIP3    H217392   0.318   7.183   2.920
 5839TIP3   OH217393   0.049   7.438   3.211
 5839TIP3    H117394   0.001   7.514   3.243
 5839TIP3    H217395   0.029   7.435   3.117
 5840TIP3   OH217396   0.145   6.610   2.164
 5840TIP3    H117397   0.052   6.585   2.164
 5840TIP3    H217398   0.152   6.678   2.231
 5841TIP3   OH217399   0.083   6.547   2.721
 5841TIP3    H117400   0.075   6.452   2.726
 5841TIP3    H217401   0.064   6.578   2.809
 5842TIP3   OH217402   0.353   7.000   3.547
 5842TIP3    H117403   0.408   6.922   3.548
 5842TIP3    H217404   0.401   7.063   3.494
 5843TIP3   OH217405   0.502   6.766   3.556
 5843TIP3    H117406   0.428   6.705   3.553
 5843TIP3    H217407   0.576   6.711   3.579
 5844TIP3   OH217408   0.108   5.955   2.243
 5844TIP3    H117409   0.160   5.911   2.176
 5844TIP3    H217410   0.022   5.913   2.239
 5845TIP3   OH217411   0.237   6.438   3.090
 5845TIP3    H117412   0.321   6.459   3.050
 5845TIP3    H217413   0.241   6.479   3.177
 5846TIP3   OH217414   0.292   6.600   3.305
 5846TIP3    H117415   0.269   6.612   3.397
 5846TIP3    H217416   0.309   6.688   3.273
 5847TIP3   OH217417   0.762   6.176   3.877
 5847TIP3    H117418   0.819   6.114   3.830
 5847TIP3    H217419   0.735   6.238   3.810
 5848TIP3   OH217420   0.178   6.008   2.542
 5848TIP3    H117421   0.218   6.018   2.628
 5848TIP3    H217422   0.115   5.937   2.553
 5849TIP3   OH217423   0.644   6.318   3.673
 5849TIP3    H117424   0.579   6.348   3.737
 5849TIP3    H217425   0.602   6.244   3.628
 5850TIP3   OH217426   0.527   6.074   3.587
 5850TIP3    H117427   0.432   6.082   3.583
 5850TIP3    H217428   0.544   5.982   3.566
 5851TIP3   OH217429   9.469   6.010   3.161
 5851TIP3    H117430   9.391   6.029   3.212
 5851TIP3    H217431   9.473   5.915   3.156
 5852TIP3   OH217432   0.228   5.925   3.010
 5852TIP3    H117433   0.260   5.971   2.932
 5852TIP3    H217434   0.187   5.994   3.062
 5853TIP3   OH217435   0.325   6.013   2.768
 5853TIP3    H117436   0.392   5.945   2.778
 5853TIP3    H217437   0.373   6.095   2.772
 5854TIP3   OH217438   9.736   5.876   2.961
 5854TIP3    H117439   9.816   5.828   2.940
 5854TIP3    H217440   9.736   5.883   3.056
 5855TIP3   OH217441   9.764   5.839   2.560
 5855TIP3    H117442   9.714   5.913   2.597
 5855TIP3    H217443   9.748   5.767   2.621
 5856TIP3   OH217444   0.263   5.972   3.987
 5856TIP3    H117445   0.272   5.972   4.082
 5856TIP3    H217446   0.347   6.005   3.955
 5857TIP3   OH217447   0.172   7.553   3.541
 5857TIP3    H117448   0.166   7.466   3.580
 5857TIP3    H217449   0.168   7.613   3.615
 5858TIP3   OH217450   1.440   6.911   2.645
 5858TIP3    H117451   1.453   6.973   2.716
 5858TIP3    H217452   1.359   6.866   2.668
 5859TIP3   OH217453   0.713   6.835   3.036
 5859TIP3    H117454   0.747   6.774   3.101
 5859TIP3    H217455   0.779   6.904   3.031
 5860TIP3   OH217456   0.712   7.254   2.700
 5860TIP3    H117457   0.695   7.160   2.711
 5860TIP3    H217458   0.808   7.260   2.700
 5861TIP3   OH217459   0.385   6.395   2.517
 5861TIP3    H117460   0.347   6.482   2.528
 5861TIP3    H217461   0.389   6.359   2.606
 5862TIP3   OH217462   0.496   6.781   2.698
 5862TIP3    H117463   0.548   6.704   2.722
 5862TIP3    H217464   0.559   6.851   2.686
 5863TIP3   OH217465   1.339   7.706   2.355
 5863TIP3    H117466   1.376   7.640   2.296
 5863TIP3    H217467   1.328   7.660   2.438
 5864TIP3   OH217468   1.234   7.208   2.668
 5864TIP3    H117469   1.268   7.179   2.583
 5864TIP3    H217470   1.312   7.237   2.716
 5865TIP3   OH217471   2.263   6.513   2.688
 5865TIP3    H117472   2.280   6.597   2.731
 5865TIP3    H217473   2.294   6.525   2.599
 5866TIP3   OH217474   1.640   6.679   2.687
 5866TIP3    H117475   1.733   6.657   2.696
 5866TIP3    H217476   1.594   6.599   2.713
 5867TIP3   OH217477   0.996   6.341   2.671
 5867TIP3    H117478   0.965   6.409   2.611
 5867TIP3    H217479   0.949   6.262   2.644
 5868TIP3   OH217480   1.683   6.459   2.291
 5868TIP3    H117481   1.744   6.454   2.364
 5868TIP3    H217482   1.739   6.479   2.215
 5869TIP3   OH217483   0.634   6.557   2.777
 5869TIP3    H117484   0.715   6.534   2.823
 5869TIP3    H217485   0.636   6.501   2.699
 5870TIP3   OH217486   1.048   6.751   2.609
 5870TIP3    H117487   1.139   6.724   2.617
 5870TIP3    H217488   1.002   6.673   2.579
 5871TIP3   OH217489   2.317   6.736   2.847
 5871TIP3    H117490   2.227   6.769   2.847
 5871TIP3    H217491   2.354   6.770   2.929
 5872TIP3   OH217492   0.974   6.342   3.121
 5872TIP3    H117493   0.920   6.379   3.051
 5872TIP3    H217494   0.923   6.355   3.201
 5873TIP3   OH217495   1.312   7.179   2.143
 5873TIP3    H117496   1.284   7.156   2.055
 5873TIP3    H217497   1.266   7.260   2.164
 5874TIP3   OH217498   1.068   7.125   2.878
 5874TIP3    H117499   1.012   7.194   2.915
 5874TIP3    H217500   1.114   7.169   2.807
 5875TIP3   OH217501   1.838   6.492   2.510
 5875TIP3    H117502   1.814   6.456   2.595
 5875TIP3    H217503   1.903   6.560   2.529
 5876TIP3   OH217504   0.869   6.453   2.889
 5876TIP3    H117505   0.920   6.529   2.916
 5876TIP3    H217506   0.922   6.411   2.821
 5877TIP3   OH217507   0.908   7.321   2.990
 5877TIP3    H117508   0.899   7.412   2.961
 5877TIP3    H217509   0.831   7.305   3.044
 5878TIP3   OH217510   0.334   7.018   2.237
 5878TIP3    H117511   0.248   7.027   2.196
 5878TIP3    H217512   0.350   7.104   2.276
 5879TIP3   OH217513   1.740   7.520   2.510
 5879TIP3    H117514   1.650   7.502   2.537
 5879TIP3    H217515   1.733   7.596   2.452
 5880TIP3   OH217516   2.056   6.409   2.856
 5880TIP3    H117517   1.973   6.427   2.812
 5880TIP3    H217518   2.123   6.434   2.791
 5881TIP3   OH217519   1.311   6.029   2.850
 5881TIP3    H117520   1.309   5.936   2.873
 5881TIP3    H217521   1.235   6.066   2.894
 5882TIP3   OH217522   1.446   7.536   2.166
 5882TIP3    H117523   1.487   7.457   2.130
 5882TIP3    H217524   1.497   7.609   2.130
 5883TIP3   OH217525   1.587   7.337   2.043
 5883TIP3    H117526   1.567   7.254   1.999
 5883TIP3    H217527   1.668   7.319   2.091
 5884TIP3   OH217528   1.961   7.428   2.843
 5884TIP3    H117529   1.955   7.360   2.776
 5884TIP3    H217530   1.945   7.510   2.796
 5885TIP3   OH217531   1.286   6.830   2.109
 5885TIP3    H117532   1.206   6.882   2.110
 5885TIP3    H217533   1.321   6.840   2.021
 5886TIP3   OH217534   1.226   6.616   1.813
 5886TIP3    H117535   1.291   6.668   1.860
 5886TIP3    H217536   1.277   6.557   1.758
 5887TIP3   OH217537   2.131   7.083   2.694
 5887TIP3    H117538   2.051   7.135   2.688
 5887TIP3    H217539   2.173   7.093   2.609
 5888TIP3   OH217540   1.606   6.894   2.078
 5888TIP3    H117541   1.539   6.912   2.145
 5888TIP3    H217542   1.681   6.862   2.128
 5889TIP3   OH217543   1.849   6.938   3.013
 5889TIP3    H117544   1.847   7.023   3.056
 5889TIP3    H217545   1.767   6.933   2.964
 5890TIP3   OH217546   0.835   6.876   2.475
 5890TIP3    H117547   0.802   6.812   2.411
 5890TIP3    H217548   0.914   6.835   2.511
 5891TIP3   OH217549   0.976   7.314   2.619
 5891TIP3    H117550   0.948   7.297   2.529
 5891TIP3    H217551   1.066   7.280   2.622
 5892TIP3   OH217552   0.944   6.887   2.829
 5892TIP3    H117553   0.985   6.850   2.750
 5892TIP3    H217554   0.990   6.969   2.844
 5893TIP3   OH217555   1.495   7.488   2.628
 5893TIP3    H117556   1.477   7.577   2.660
 5893TIP3    H217557   1.473   7.431   2.702
 5894TIP3   OH217558   1.106   7.414   3.163
 5894TIP3    H117559   1.047   7.473   3.209
 5894TIP3    H217560   1.048   7.364   3.104
 5895TIP3   OH217561   1.451   6.764   1.890
 5895TIP3    H117562   1.511   6.818   1.942
 5895TIP3    H217563   1.476   6.781   1.799
 5896TIP3   OH217564   0.869   6.980   3.276
 5896TIP3    H117565   0.874   7.071   3.305
 5896TIP3    H217566   0.777   6.955   3.289
 5897TIP3   OH217567   1.191   7.434   2.167
 5897TIP3    H117568   1.278   7.473   2.173
 5897TIP3    H217569   1.138   7.500   2.123
 5898TIP3   OH217570   0.903   7.579   3.248
 5898TIP3    H117571   0.874   7.590   3.157
 5898TIP3    H217572   0.822   7.563   3.297
 5899TIP3   OH217573   1.949   5.996   1.950
 5899TIP3    H117574   1.872   6.016   2.004
 5899TIP3    H217575   1.957   6.072   1.892
 5900TIP3   OH217576   0.710   6.705   2.284
 5900TIP3    H117577   0.620   6.736   2.295
 5900TIP3    H217578   0.702   6.609   2.283
 5901TIP3   OH217579   1.774   7.364   1.498
 5901TIP3    H117580   1.772   7.456   1.473
 5901TIP3    H217581   1.864   7.336   1.482
 5902TIP3   OH217582   0.501   7.138   3.189
 5902TIP3    H117583   0.433   7.124   3.123
 5902TIP3    H217584   0.531   7.051   3.213
 5903TIP3   OH217585   0.363   7.341   2.834
 5903TIP3    H117586   0.454   7.362   2.854
 5903TIP3    H217587   0.313   7.417   2.864
 5904TIP3   OH217588   2.194   7.777   2.903
 5904TIP3    H117589   2.200   7.683   2.920
 5904TIP3    H217590   2.112   7.804   2.944
 5905TIP3   OH217591   1.297   7.557   3.028
 5905TIP3    H117592   1.291   7.647   3.057
 5905TIP3    H217593   1.227   7.511   3.075
 5906TIP3   OH217594   1.100   7.661   2.011
 5906TIP3    H117595   1.058   7.645   1.926
 5906TIP3    H217596   1.087   7.754   2.027
 5907TIP3   OH217597   0.506   7.501   2.392
 5907TIP3    H117598   0.574   7.512   2.458
 5907TIP3    H217599   0.426   7.488   2.443
 5908TIP3   OH217600   1.276   7.570   1.612
 5908TIP3    H117601   1.342   7.517   1.567
 5908TIP3    H217602   1.316   7.591   1.697
 5909TIP3   OH217603   1.345   7.623   1.879
 5909TIP3    H117604   1.266   7.625   1.934
 5909TIP3    H217605   1.417   7.618   1.942
 5910TIP3   OH217606   2.086   6.883   3.165
 5910TIP3    H117607   2.002   6.895   3.121
 5910TIP3    H217608   2.102   6.789   3.161
 5911TIP3   OH217609   0.695   7.331   3.164
 5911TIP3    H117610   0.743   7.320   3.246
 5911TIP3    H217611   0.624   7.266   3.169
 5912TIP3   OH217612   1.078   6.125   2.977
 5912TIP3    H117613   0.994   6.089   2.947
 5912TIP3    H217614   1.053   6.204   3.025
 5913TIP3   OH217615   1.613   6.256   3.174
 5913TIP3    H117616   1.683   6.232   3.235
 5913TIP3    H217617   1.532   6.241   3.223
 5914TIP3   OH217618   1.828   6.670   3.092
 5914TIP3    H117619   1.795   6.663   3.182
 5914TIP3    H217620   1.823   6.763   3.072
 5915TIP3   OH217621   1.527   6.796   1.634
 5915TIP3    H117622   1.493   6.766   1.550
 5915TIP3    H217623   1.610   6.838   1.613
 5916TIP3   OH217624   1.192   6.164   1.952
 5916TIP3    H117625   1.178   6.171   2.046
 5916TIP3    H217626   1.149   6.083   1.926
 5917TIP3   OH217627   1.006   6.670   2.988
 5917TIP3    H117628   0.960   6.676   3.072
 5917TIP3    H217629   0.977   6.749   2.940
 5918TIP3   OH217630   0.897   6.543   2.512
 5918TIP3    H117631   0.807   6.520   2.533
 5918TIP3    H217632   0.913   6.504   2.425
 5919TIP3   OH217633   1.366   6.595   2.212
 5919TIP3    H117634   1.329   6.676   2.177
 5919TIP3    H217635   1.423   6.562   2.142
 5920TIP3   OH217636   1.558   6.880   3.308
 5920TIP3    H117637   1.533   6.811   3.370
 5920TIP3    H217638   1.650   6.897   3.328
 5921TIP3   OH217639   1.547   6.680   2.395
 5921TIP3    H117640   1.471   6.664   2.340
 5921TIP3    H217641   1.609   6.612   2.370
 5922TIP3   OH217642   0.852   6.673   3.216
 5922TIP3    H117643   0.866   6.733   3.289
 5922TIP3    H217644   0.838   6.588   3.258
 5923TIP3   OH217645   0.484   6.231   2.726
 5923TIP3    H117646   0.538   6.253   2.802
 5923TIP3    H217647   0.542   6.179   2.670
 5924TIP3   OH217648   0.294   6.211   2.339
 5924TIP3    H117649   0.329   6.237   2.254
 5924TIP3    H217650   0.320   6.281   2.398
 5925TIP3   OH217651   1.608   6.879   2.889
 5925TIP3    H117652   1.617   6.809   2.825
 5925TIP3    H217653   1.555   6.842   2.959
 5926TIP3   OH217654   1.258   6.398   2.593
 5926TIP3    H117655   1.176   6.368   2.633
 5926TIP3    H217656   1.322   6.331   2.616
 5927TIP3   OH217657   0.664   6.407   2.546
 5927TIP3    H117658   0.574   6.394   2.516
 5927TIP3    H217659   0.704   6.321   2.542
 5928TIP3   OH217660   0.915   6.404   2.279
 5928TIP3    H117661   1.010   6.412   2.271
 5928TIP3    H217662   0.881   6.432   2.194
 5929TIP3   OH217663   1.750   6.416   2.762
 5929TIP3    H117664   1.714   6.435   2.848
 5929TIP3    H217665   1.721   6.327   2.742
 5930TIP3   OH217666   0.794   6.474   2.047
 5930TIP3    H117667   0.722   6.429   2.003
 5930TIP3    H217668   0.846   6.511   1.976
 5931TIP3   OH217669   1.907   8.117   2.983
 5931TIP3    H117670   1.900   8.135   2.889
 5931TIP3    H217671   1.985   8.165   3.010
 5932TIP3   OH217672   0.852   7.232   3.394
 5932TIP3    H117673   0.931   7.254   3.443
 5932TIP3    H217674   0.781   7.236   3.459
 5933TIP3   OH217675   1.311   6.658   2.668
 5933TIP3    H117676   1.299   6.571   2.631
 5933TIP3    H217677   1.301   6.646   2.763
 5934TIP3   OH217678   0.801   6.163   2.556
 5934TIP3    H117679   0.775   6.086   2.608
 5934TIP3    H217680   0.834   6.126   2.475
 5935TIP3   OH217681   1.273   6.622   2.937
 5935TIP3    H117682   1.186   6.651   2.963
 5935TIP3    H217683   1.333   6.673   2.992
 5936TIP3   OH217684   1.040   6.952   2.072
 5936TIP3    H117685   0.964   6.899   2.052
 5936TIP3    H217686   1.014   7.003   2.149
 5937TIP3   OH217687   1.916   7.258   2.632
 5937TIP3    H117688   1.979   7.298   2.572
 5937TIP3    H217689   1.831   7.287   2.600
 5938TIP3   OH217690   1.457   6.259   1.959
 5938TIP3    H117691   1.363   6.244   1.951
 5938TIP3    H217692   1.467   6.354   1.958
 5939TIP3   OH217693   1.409   7.277   3.086
 5939TIP3    H117694   1.463   7.268   3.164
 5939TIP3    H217695   1.375   7.366   3.091
 5940TIP3   OH217696   1.536   6.525   2.002
 5940TIP3    H117697   1.631   6.527   2.012
 5940TIP3    H217698   1.515   6.603   1.951
 5941TIP3   OH217699   0.707   6.965   2.701
 5941TIP3    H117700   0.745   6.946   2.616
 5941TIP3    H217701   0.773   6.935   2.764
 5942TIP3   OH217702   1.186   7.103   1.898
 5942TIP3    H117703   1.140   7.186   1.894
 5942TIP3    H217704   1.132   7.049   1.956
 5943TIP3   OH217705   0.607   6.913   3.334
 5943TIP3    H117706   0.615   6.888   3.426
 5943TIP3    H217707   0.529   6.866   3.303
 5944TIP3   OH217708   1.327   7.037   3.344
 5944TIP3    H117709   1.258   6.976   3.319
 5944TIP3    H217710   1.408   6.993   3.319
 5945TIP3   OH217711   1.563   7.571   2.950
 5945TIP3    H117712   1.468   7.562   2.960
 5945TIP3    H217713   1.591   7.614   3.031
 5946TIP3   OH217714   1.950   6.629   1.830
 5946TIP3    H117715   1.892   6.585   1.769
 5946TIP3    H217716   1.958   6.718   1.797
 5947TIP3   OH217717   2.210   7.494   2.930
 5947TIP3    H117718   2.115   7.483   2.923
 5947TIP3    H217719   2.244   7.469   2.844
 5948TIP3   OH217720   1.714   7.439   1.762
 5948TIP3    H117721   1.661   7.377   1.811
 5948TIP3    H217722   1.727   7.397   1.677
 5949TIP3   OH217723   0.823   7.297   2.387
 5949TIP3    H117724   0.813   7.367   2.322
 5949TIP3    H217725   0.740   7.296   2.434
 5950TIP3   OH217726   0.403   6.593   2.081
 5950TIP3    H117727   0.433   6.684   2.080
 5950TIP3    H217728   0.313   6.598   2.113
 5951TIP3   OH217729   0.931   7.062   2.293
 5951TIP3    H117730   0.901   7.151   2.314
 5951TIP3    H217731   0.894   7.007   2.362
 5952TIP3   OH217732   1.122   7.642   2.822
 5952TIP3    H117733   1.157   7.717   2.775
 5952TIP3    H217734   1.196   7.610   2.874
 5953TIP3   OH217735   0.730   7.505   2.228
 5953TIP3    H117736   0.640   7.510   2.263
 5953TIP3    H217737   0.766   7.592   2.245
 5954TIP3   OH217738   1.467   7.264   2.817
 5954TIP3    H117739   1.435   7.263   2.907
 5954TIP3    H217740   1.562   7.267   2.826
 5955TIP3   OH217741   1.482   7.168   1.659
 5955TIP3    H117742   1.523   7.146   1.743
 5955TIP3    H217743   1.396   7.125   1.662
 5956TIP3   OH217744   1.703   7.801   2.837
 5956TIP3    H117745   1.634   7.734   2.843
 5956TIP3    H217746   1.681   7.850   2.758
 5957TIP3   OH217747   1.782   7.632   1.444
 5957TIP3    H117748   1.784   7.678   1.360
 5957TIP3    H217749   1.725   7.685   1.499
 5958TIP3   OH217750   0.810   6.421   3.333
 5958TIP3    H117751   0.716   6.437   3.334
 5958TIP3    H217752   0.825   6.358   3.404
 5959TIP3   OH217753   1.628   7.101   1.890
 5959TIP3    H117754   1.616   7.030   1.954
 5959TIP3    H217755   1.722   7.102   1.874
 5960TIP3   OH217756   0.546   7.531   2.977
 5960TIP3    H117757   0.597   7.479   3.039
 5960TIP3    H217758   0.553   7.620   3.009
 5961TIP3   OH217759   0.819   7.160   1.693
 5961TIP3    H117760   0.864   7.119   1.618
 5961TIP3    H217761   0.726   7.144   1.676
 5962TIP3   OH217762   0.730   7.107   1.972
 5962TIP3    H117763   0.796   7.152   1.918
 5962TIP3    H217764   0.656   7.168   1.975
 5963TIP3   OH217765   0.500   6.905   2.044
 5963TIP3    H117766   0.460   6.945   2.122
 5963TIP3    H217767   0.434   6.918   1.975
 5964TIP3   OH217768   1.649   6.475   3.010
 5964TIP3    H117769   1.719   6.527   3.050
 5964TIP3    H217770   1.635   6.403   3.071
 5965TIP3   OH217771   1.539   6.228   2.222
 5965TIP3    H117772   1.512   6.240   2.131
 5965TIP3    H217773   1.579   6.312   2.246
 5966TIP3   OH217774   1.044   7.331   1.886
 5966TIP3    H117775   0.961   7.355   1.928
 5966TIP3    H217776   1.072   7.411   1.840
 5967TIP3   OH217777   1.188   6.421   2.323
 5967TIP3    H117778   1.249   6.482   2.283
 5967TIP3    H217779   1.215   6.417   2.415
 5968TIP3   OH217780   1.489   6.725   3.082
 5968TIP3    H117781   1.509   6.771   3.163
 5968TIP3    H217782   1.534   6.641   3.090
 5969TIP3   OH217783   1.365   6.105   2.398
 5969TIP3    H117784   1.393   6.145   2.481
 5969TIP3    H217785   1.423   6.143   2.332
 5970TIP3   OH217786   0.811   7.456   1.971
 5970TIP3    H117787   0.840   7.545   1.951
 5970TIP3    H217788   0.782   7.461   2.062
 5971TIP3   OH217789   0.869   6.131   2.208
 5971TIP3    H117790   0.862   6.222   2.235
 5971TIP3    H217791   0.964   6.114   2.206
 5972TIP3   OH217792   2.092   6.608   3.063
 5972TIP3    H117793   1.998   6.620   3.077
 5972TIP3    H217794   2.099   6.541   2.995
 5973TIP3   OH217795   1.410   8.052   1.527
 5973TIP3    H117796   1.494   8.043   1.482
 5973TIP3    H217797   1.345   8.056   1.457
 5974TIP3   OH217798   0.390   6.314   2.107
 5974TIP3    H117799   0.402   6.409   2.101
 5974TIP3    H217800   0.366   6.287   2.019
 5975TIP3   OH217801   1.747   7.776   2.392
 5975TIP3    H117802   1.703   7.824   2.323
 5975TIP3    H217803   1.840   7.795   2.379
 5976TIP3   OH217804   0.817   6.038   2.939
 5976TIP3    H117805   0.788   6.000   2.856
 5976TIP3    H217806   0.810   5.966   3.002
 5977TIP3   OH217807   0.347   7.275   2.331
 5977TIP3    H117808   0.299   7.308   2.407
 5977TIP3    H217809   0.413   7.342   2.313
 5978TIP3   OH217810   0.531   7.835   3.401
 5978TIP3    H117811   0.613   7.835   3.450
 5978TIP3    H217812   0.503   7.744   3.401
 5979TIP3   OH217813   1.009   7.739   3.446
 5979TIP3    H117814   1.100   7.709   3.456
 5979TIP3    H217815   0.975   7.687   3.373
 5980TIP3   OH217816   0.933   7.396   1.585
 5980TIP3    H117817   0.890   7.323   1.630
 5980TIP3    H217818   1.007   7.356   1.540
 5981TIP3   OH217819   1.627   7.681   3.193
 5981TIP3    H117820   1.639   7.613   3.259
 5981TIP3    H217821   1.700   7.741   3.206
 5982TIP3   OH217822   1.437   7.389   1.484
 5982TIP3    H117823   1.477   7.325   1.543
 5982TIP3    H217824   1.499   7.397   1.412
 5983TIP3   OH217825   0.649   7.237   3.584
 5983TIP3    H117826   0.637   7.159   3.638
 5983TIP3    H217827   0.566   7.248   3.538
 5984TIP3   OH217828   0.665   6.888   1.779
 5984TIP3    H117829   0.735   6.856   1.722
 5984TIP3    H217830   0.616   6.950   1.725
 5985TIP3   OH217831   1.265   7.314   3.364
 5985TIP3    H117832   1.217   7.335   3.285
 5985TIP3    H217833   1.298   7.225   3.350
 5986TIP3   OH217834   1.218   7.055   1.632
 5986TIP3    H117835   1.203   7.072   1.726
 5986TIP3    H217836   1.200   6.961   1.622
 5987TIP3   OH217837   1.719   7.342   2.941
 5987TIP3    H117838   1.803   7.376   2.912
 5987TIP3    H217839   1.663   7.420   2.948
 5988TIP3   OH217840   0.776   6.945   3.596
 5988TIP3    H117841   0.855   6.957   3.544
 5988TIP3    H217842   0.795   6.987   3.679
 5989TIP3   OH217843   0.811   6.790   2.033
 5989TIP3    H117844   0.796   6.746   2.117
 5989TIP3    H217845   0.856   6.724   1.979
 5990TIP3   OH217846   1.123   6.865   3.242
 5990TIP3    H117847   1.037   6.906   3.250
 5990TIP3    H217848   1.155   6.893   3.157
 5991TIP3   OH217849   0.946   6.608   1.863
 5991TIP3    H117850   0.916   6.590   1.774
 5991TIP3    H217851   1.041   6.607   1.857
 5992TIP3   OH217852   1.607   7.235   3.321
 5992TIP3    H117853   1.683   7.203   3.273
 5992TIP3    H217854   1.606   7.183   3.402
 5993TIP3   OH217855   1.755   6.898   1.518
 5993TIP3    H117856   1.748   6.848   1.437
 5993TIP3    H217857   1.727   6.986   1.494
 5994TIP3   OH217858   1.223   6.635   3.357
 5994TIP3    H117859   1.224   6.563   3.295
 5994TIP3    H217860   1.188   6.710   3.308
 5995TIP3   OH217861   1.229   6.436   3.157
 5995TIP3    H117862   1.253   6.475   3.072
 5995TIP3    H217863   1.140   6.404   3.144
 5996TIP3   OH217864   1.244   6.969   3.019
 5996TIP3    H117865   1.316   7.028   3.041
 5996TIP3    H217866   1.182   7.024   2.970
 5997TIP3   OH217867   1.824   6.922   3.404
 5997TIP3    H117868   1.874   6.841   3.416
 5997TIP3    H217869   1.890   6.991   3.401
 5998TIP3   OH217870   1.857   7.192   3.131
 5998TIP3    H117871   1.801   7.245   3.073
 5998TIP3    H217872   1.946   7.212   3.101
 5999TIP3   OH217873   1.110   6.715   3.600
 5999TIP3    H117874   1.044   6.649   3.623
 5999TIP3    H217875   1.139   6.690   3.512
 6000TIP3   OH217876   1.352   6.206   3.260
 6000TIP3    H117877   1.309   6.286   3.229
 6000TIP3    H217878   1.286   6.137   3.249
 6001TIP3   OH217879   1.478   6.669   3.464
 6001TIP3    H117880   1.470   6.655   3.558
 6001TIP3    H217881   1.391   6.649   3.429
 6002TIP3   OH217882   1.725   6.624   3.336
 6002TIP3    H117883   1.647   6.623   3.391
 6002TIP3    H217884   1.796   6.602   3.396
 6003TIP3   OH217885   1.962   6.591   3.483
 6003TIP3    H117886   1.975   6.497   3.491
 6003TIP3    H217887   1.957   6.622   3.574
 6004TIP3   OH217888   0.955   6.494   3.669
 6004TIP3    H117889   0.948   6.407   3.629
 6004TIP3    H217890   0.994   6.478   3.755
 6005TIP3   OH217891   1.416   6.177   3.526
 6005TIP3    H117892   1.484   6.109   3.520
 6005TIP3    H217893   1.387   6.190   3.436
 6006TIP3   OH217894   1.515   6.391   3.670
 6006TIP3    H117895   1.484   6.318   3.617
 6006TIP3    H217896   1.441   6.452   3.672
 6007TIP3   OH217897   0.308   7.436   2.573
 6007TIP3    H117898   0.314   7.370   2.642
 6007TIP3    H217899   0.315   7.520   2.620
 6008TIP3   OH217900   2.016   7.841   2.392
 6008TIP3    H117901   2.037   7.864   2.482
 6008TIP3    H217902   2.057   7.910   2.339
 6009TIP3   OH217903   2.045   7.871   2.670
 6009TIP3    H117904   1.996   7.789   2.675
 6009TIP3    H217905   2.118   7.858   2.731
 6010TIP3   OH217906   2.089   7.574   3.243
 6010TIP3    H117907   2.018   7.584   3.306
 6010TIP3    H217908   2.138   7.656   3.249
 6011TIP3   OH217909   1.906   7.091   1.869
 6011TIP3    H117910   1.962   7.161   1.834
 6011TIP3    H217911   1.958   7.053   1.940
 6012TIP3   OH217912   2.044   6.948   2.066
 6012TIP3    H117913   1.986   6.915   2.134
 6012TIP3    H217914   2.117   6.987   2.114
 6013TIP3   OH217915   2.113   7.364   2.481
 6013TIP3    H117916   2.163   7.295   2.438
 6013TIP3    H217917   2.118   7.439   2.422
 6014TIP3   OH217918   1.892   7.647   2.699
 6014TIP3    H117919   1.822   7.694   2.746
 6014TIP3    H217920   1.847   7.604   2.626
 6015TIP3   OH217921   1.951   6.873   1.706
 6015TIP3    H117922   1.883   6.877   1.638
 6015TIP3    H217923   1.933   6.950   1.761
 6016TIP3   OH217924   1.790   6.516   1.644
 6016TIP3    H117925   1.753   6.547   1.561
 6016TIP3    H217926   1.782   6.421   1.639
 6017TIP3   OH217927   1.831   6.775   2.214
 6017TIP3    H117928   1.835   6.695   2.162
 6017TIP3    H217929   1.876   6.753   2.296
 6018TIP3   OH217930   0.458   6.876   2.952
 6018TIP3    H117931   0.453   6.844   2.862
 6018TIP3    H217932   0.551   6.870   2.974
 6019TIP3   OH217933   2.122   7.231   3.050
 6019TIP3    H117934   2.185   7.160   3.034
 6019TIP3    H217935   2.153   7.303   2.995
 6020TIP3   OH217936   2.290   7.012   3.040
 6020TIP3    H117937   2.219   6.969   3.086
 6020TIP3    H217938   2.367   6.957   3.057
 6021TIP3   OH217939   1.756   6.246   1.610
 6021TIP3    H117940   1.829   6.218   1.665
 6021TIP3    H217941   1.680   6.199   1.645
 6022TIP3   OH217942   1.833   6.532   2.065
 6022TIP3    H117943   1.878   6.449   2.079
 6022TIP3    H217944   1.873   6.568   1.986
 6023TIP3   OH217945   1.987   6.707   2.589
 6023TIP3    H117946   2.067   6.726   2.539
 6023TIP3    H217947   2.002   6.749   2.674
 6024TIP3   OH217948   2.052   6.849   2.819
 6024TIP3    H117949   1.990   6.877   2.886
 6024TIP3    H217950   2.083   6.931   2.780
 6025TIP3   OH217951   0.697   6.590   3.645
 6025TIP3    H117952   0.792   6.580   3.652
 6025TIP3    H217953   0.662   6.501   3.645
 6026TIP3   OH217954   2.521   6.445   3.364
 6026TIP3    H117955   2.587   6.389   3.324
 6026TIP3    H217956   2.484   6.494   3.290
 6027TIP3   OH217957   1.943   6.285   2.127
 6027TIP3    H117958   1.990   6.270   2.209
 6027TIP3    H217959   1.882   6.212   2.121
 6028TIP3   OH217960   0.664   6.266   2.930
 6028TIP3    H117961   0.714   6.186   2.943
 6028TIP3    H217962   0.730   6.335   2.922
 6029TIP3   OH217963   0.474   6.551   3.006
 6029TIP3    H117964   0.522   6.544   2.924
 6029TIP3    H217965   0.494   6.639   3.039
 6030TIP3   OH217966   2.367   6.565   3.171
 6030TIP3    H117967   2.294   6.603   3.220
 6030TIP3    H217968   2.326   6.497   3.116
 6031TIP3   OH217969   1.985   6.196   1.762
 6031TIP3    H117970   2.033   6.135   1.705
 6031TIP3    H217971   2.041   6.273   1.766
 6032TIP3   OH217972   0.469   6.033   2.481
 6032TIP3    H117973   0.399   5.998   2.536
 6032TIP3    H217974   0.426   6.100   2.427
 6033TIP3   OH217975   1.575   7.730   2.032
 6033TIP3    H117976   1.638   7.731   1.961
 6033TIP3    H217977   1.597   7.806   2.086
 6034TIP3   OH217978   0.663   6.134   3.345
 6034TIP3    H117979   0.607   6.119   3.422
 6034TIP3    H217980   0.603   6.164   3.277
 6035TIP3   OH217981   0.684   7.545   3.415
 6035TIP3    H117982   0.590   7.538   3.400
 6035TIP3    H217983   0.694   7.541   3.510
 6036TIP3   OH217984   0.891   7.595   2.963
 6036TIP3    H117985   0.836   7.665   2.929
 6036TIP3    H217986   0.976   7.609   2.923
 6037TIP3   OH217987   1.290   7.823   3.098
 6037TIP3    H117988   1.326   7.819   3.187
 6037TIP3    H217989   1.353   7.875   3.049
 6038TIP3   OH217990   1.483   7.972   2.969
 6038TIP3    H117991   1.546   7.919   2.920
 6038TIP3    H217992   1.536   8.025   3.028
 6039TIP3   OH217993   2.279   6.305   3.066
 6039TIP3    H117994   2.190   6.288   3.037
 6039TIP3    H217995   2.323   6.220   3.061
 6040TIP3   OH217996   0.545   7.814   3.008
 6040TIP3    H117997   0.458   7.839   2.975
 6040TIP3    H217998   0.565   7.881   3.074
 6041TIP3   OH217999   0.774   7.817   2.854
 6041TIP3    H118000   0.691   7.820   2.902
 6041TIP3    H218001   0.753   7.849   2.766
 6042TIP3   OH218002   1.198   7.851   2.658
 6042TIP3    H118003   1.124   7.861   2.598
 6042TIP3    H218004   1.209   7.938   2.696
 6043TIP3   OH218005   1.453   7.755   2.686
 6043TIP3    H118006   1.363   7.787   2.673
 6043TIP3    H218007   1.508   7.821   2.642
 6044TIP3   OH218008   1.653   7.931   2.598
 6044TIP3    H118009   1.656   8.020   2.563
 6044TIP3    H218010   1.684   7.876   2.526
 6045TIP3   OH218011   0.468   7.630   2.725
 6045TIP3    H118012   0.481   7.606   2.816
 6045TIP3    H218013   0.542   7.590   2.679
 6046TIP3   OH218014   0.677   7.507   2.603
 6046TIP3    H118015   0.687   7.422   2.645
 6046TIP3    H218016   0.764   7.547   2.608
 6047TIP3   OH218017   0.941   7.591   2.620
 6047TIP3    H118018   0.958   7.498   2.607
 6047TIP3    H218019   0.996   7.616   2.694
 6048TIP3   OH218020   1.438   6.192   2.651
 6048TIP3    H118021   1.410   6.138   2.725
 6048TIP3    H218022   1.531   6.175   2.642
 6049TIP3   OH218023   1.996   6.165   2.592
 6049TIP3    H118024   2.029   6.210   2.514
 6049TIP3    H218025   1.902   6.177   2.589
 6050TIP3   OH218026   2.102   6.236   2.348
 6050TIP3    H118027   2.170   6.173   2.323
 6050TIP3    H218028   2.142   6.322   2.334
 6051TIP3   OH218029   0.723   5.938   2.699
 6051TIP3    H118030   0.636   5.898   2.708
 6051TIP3    H218031   0.783   5.864   2.699
 6052TIP3   OH218032   0.543   5.824   2.314
 6052TIP3    H118033   0.580   5.866   2.236
 6052TIP3    H218034   0.527   5.896   2.375
 6053TIP3   OH218035   1.168   6.019   2.597
 6053TIP3    H118036   1.231   6.040   2.528
 6053TIP3    H218037   1.220   6.024   2.678
 6054TIP3   OH218038   1.708   6.134   2.593
 6054TIP3    H118039   1.716   6.102   2.503
 6054TIP3    H218040   1.714   6.056   2.647
 6055TIP3   OH218041   1.758   6.075   2.136
 6055TIP3    H118042   1.679   6.121   2.163
 6055TIP3    H218043   1.749   5.987   2.174
 6056TIP3   OH218044   0.673   5.967   2.095
 6056TIP3    H118045   0.727   5.898   2.055
 6056TIP3    H218046   0.736   6.024   2.139
 6057TIP3   OH218047   1.150   6.169   2.222
 6057TIP3    H118048   1.205   6.114   2.277
 6057TIP3    H218049   1.162   6.258   2.257
 6058TIP3   OH218050   1.041   7.580   1.751
 6058TIP3    H118051   1.122   7.588   1.702
 6058TIP3    H218052   0.984   7.528   1.695
 6059TIP3   OH218053   1.743   7.705   1.813
 6059TIP3    H118054   1.739   7.610   1.800
 6059TIP3    H218055   1.709   7.742   1.731
 6060TIP3   OH218056   0.965   6.221   3.579
 6060TIP3    H118057   0.930   6.150   3.634
 6060TIP3    H218058   1.055   6.231   3.609
 6061TIP3   OH218059   1.208   6.227   3.709
 6061TIP3    H118060   1.284   6.204   3.654
 6061TIP3    H218061   1.201   6.155   3.771
 6062TIP3   OH218062   2.023   6.319   3.486
 6062TIP3    H118063   2.039   6.289   3.575
 6062TIP3    H218064   2.109   6.314   3.443
 6063TIP3   OH218065   1.939   7.844   2.989
 6063TIP3    H118066   1.859   7.818   2.943
 6063TIP3    H218067   1.932   7.939   2.996
 6064TIP3   OH218068   3.218   7.234   1.731
 6064TIP3    H118069   3.188   7.322   1.706
 6064TIP3    H218070   3.146   7.177   1.708
 6065TIP3   OH218071   3.218   7.228   2.157
 6065TIP3    H118072   3.271   7.213   2.235
 6065TIP3    H218073   3.172   7.145   2.143
 6066TIP3   OH218074   2.516   7.082   2.504
 6066TIP3    H118075   2.558   7.034   2.575
 6066TIP3    H218076   2.588   7.110   2.448
 6067TIP3   OH218077   3.491   7.539   1.830
 6067TIP3    H118078   3.476   7.474   1.898
 6067TIP3    H218079   3.509   7.620   1.877
 6068TIP3   OH218080   2.512   7.508   2.175
 6068TIP3    H118081   2.493   7.415   2.185
 6068TIP3    H218082   2.607   7.513   2.170
 6069TIP3   OH218083   2.187   6.720   1.971
 6069TIP3    H118084   2.149   6.804   1.998
 6069TIP3    H218085   2.115   6.675   1.926
 6070TIP3   OH218086   2.275   7.038   2.194
 6070TIP3    H118087   2.327   6.961   2.218
 6070TIP3    H218088   2.339   7.105   2.173
 6071TIP3   OH218089   3.147   7.959   1.846
 6071TIP3    H118090   3.174   7.894   1.780
 6071TIP3    H218091   3.152   7.912   1.929
 6072TIP3   OH218092   3.030   7.448   2.161
 6072TIP3    H118093   3.077   7.369   2.135
 6072TIP3    H218094   3.098   7.507   2.193
 6073TIP3   OH218095   4.063   6.776   2.178
 6073TIP3    H118096   4.075   6.863   2.216
 6073TIP3    H218097   4.099   6.783   2.089
 6074TIP3   OH218098   3.427   6.937   2.196
 6074TIP3    H118099   3.457   6.851   2.225
 6074TIP3    H218100   3.389   6.921   2.109
 6075TIP3   OH218101   2.784   6.595   2.155
 6075TIP3    H118102   2.763   6.668   2.097
 6075TIP3    H218103   2.727   6.523   2.125
 6076TIP3   OH218104   3.487   6.703   1.798
 6076TIP3    H118105   3.551   6.694   1.869
 6076TIP3    H218106   3.538   6.740   1.726
 6077TIP3   OH218107   2.416   6.816   2.280
 6077TIP3    H118108   2.499   6.798   2.324
 6077TIP3    H218109   2.419   6.764   2.200
 6078TIP3   OH218110   2.827   7.012   2.102
 6078TIP3    H118111   2.921   6.998   2.108
 6078TIP3    H218112   2.793   6.929   2.068
 6079TIP3   OH218113   4.115   7.001   2.338
 6079TIP3    H118114   4.026   7.034   2.332
 6079TIP3    H218115   4.148   7.033   2.422
 6080TIP3   OH218116   2.769   6.602   2.605
 6080TIP3    H118117   2.718   6.639   2.533
 6080TIP3    H218118   2.714   6.617   2.682
 6081TIP3   OH218119   3.109   7.450   1.597
 6081TIP3    H118120   3.070   7.425   1.513
 6081TIP3    H218121   3.062   7.529   1.623
 6082TIP3   OH218122   2.856   7.375   2.364
 6082TIP3    H118123   2.805   7.448   2.400
 6082TIP3    H218124   2.907   7.414   2.293
 6083TIP3   OH218125   3.646   6.713   2.022
 6083TIP3    H118126   3.596   6.698   2.102
 6083TIP3    H218127   3.699   6.791   2.041
 6084TIP3   OH218128   2.659   6.710   2.375
 6084TIP3    H118129   2.714   6.785   2.398
 6084TIP3    H218130   2.706   6.666   2.304
 6085TIP3   OH218131   2.706   7.577   2.477
 6085TIP3    H118132   2.695   7.667   2.447
 6085TIP3    H218133   2.628   7.560   2.530
 6086TIP3   OH218134   2.075   7.275   1.743
 6086TIP3    H118135   2.045   7.290   1.653
 6086TIP3    H218136   2.098   7.362   1.776
 6087TIP3   OH218137   3.521   7.786   1.967
 6087TIP3    H118138   3.433   7.780   2.006
 6087TIP3    H218139   3.519   7.868   1.917
 6088TIP3   OH218140   3.865   6.662   2.343
 6088TIP3    H118141   3.781   6.688   2.304
 6088TIP3    H218142   3.931   6.689   2.279
 6089TIP3   OH218143   3.107   6.292   2.344
 6089TIP3    H118144   3.103   6.201   2.371
 6089TIP3    H218145   3.030   6.333   2.382
 6090TIP3   OH218146   3.232   7.807   1.629
 6090TIP3    H118147   3.288   7.731   1.615
 6090TIP3    H218148   3.285   7.881   1.600
 6091TIP3   OH218149   3.385   7.588   1.579
 6091TIP3    H118150   3.328   7.513   1.564
 6091TIP3    H218151   3.431   7.567   1.660
 6092TIP3   OH218152   3.750   7.676   2.310
 6092TIP3    H118153   3.734   7.601   2.253
 6092TIP3    H218154   3.737   7.752   2.255
 6093TIP3   OH218155   3.042   7.072   1.586
 6093TIP3    H118156   2.960   7.118   1.568
 6093TIP3    H218157   3.091   7.077   1.504
 6094TIP3   OH218158   3.008   6.889   1.272
 6094TIP3    H118159   3.070   6.939   1.325
 6094TIP3    H218160   3.061   6.822   1.228
 6095TIP3   OH218161   3.930   7.333   2.182
 6095TIP3    H118162   3.847   7.380   2.181
 6095TIP3    H218163   3.966   7.345   2.094
 6096TIP3   OH218164   3.404   7.156   1.548
 6096TIP3    H118165   3.350   7.186   1.620
 6096TIP3    H218166   3.489   7.138   1.587
 6097TIP3   OH218167   3.634   7.192   2.495
 6097TIP3    H118168   3.632   7.277   2.539
 6097TIP3    H218169   3.553   7.189   2.444
 6098TIP3   OH218170   2.631   7.144   1.946
 6098TIP3    H118171   2.597   7.082   1.882
 6098TIP3    H218172   2.705   7.098   1.987
 6099TIP3   OH218173   2.776   7.559   2.090
 6099TIP3    H118174   2.756   7.550   1.997
 6099TIP3    H218175   2.865   7.524   2.098
 6100TIP3   OH218176   2.723   7.140   2.324
 6100TIP3    H118177   2.763   7.104   2.245
 6100TIP3    H218178   2.770   7.222   2.339
 6101TIP3   OH218179   3.282   7.775   2.100
 6101TIP3    H118180   3.267   7.856   2.150
 6101TIP3    H218181   3.266   7.705   2.163
 6102TIP3   OH218182   2.902   7.673   2.649
 6102TIP3    H118183   2.842   7.731   2.694
 6102TIP3    H218184   2.847   7.622   2.589
 6103TIP3   OH218185   3.231   7.027   1.378
 6103TIP3    H118186   3.292   7.083   1.425
 6103TIP3    H218187   3.257   7.035   1.286
 6104TIP3   OH218188   2.664   7.227   2.790
 6104TIP3    H118189   2.667   7.321   2.808
 6104TIP3    H218190   2.571   7.208   2.780
 6105TIP3   OH218191   2.981   7.695   1.631
 6105TIP3    H118192   3.065   7.740   1.640
 6105TIP3    H218193   2.924   7.759   1.588
 6106TIP3   OH218194   2.695   7.833   2.734
 6106TIP3    H118195   2.671   7.845   2.642
 6106TIP3    H218196   2.611   7.820   2.779
 6107TIP3   OH218197   2.505   6.983   1.749
 6107TIP3    H118198   2.429   7.034   1.721
 6107TIP3    H218199   2.471   6.896   1.766
 6108TIP3   OH218200   3.542   7.624   0.999
 6108TIP3    H118201   3.545   7.716   0.974
 6108TIP3    H218202   3.631   7.592   0.987
 6109TIP3   OH218203   2.293   7.397   2.691
 6109TIP3    H118204   2.231   7.381   2.620
 6109TIP3    H218205   2.327   7.311   2.714
 6110TIP3   OH218206   2.144   7.599   2.340
 6110TIP3    H118207   2.230   7.633   2.365
 6110TIP3    H218208   2.083   7.671   2.359
 6111TIP3   OH218209   3.991   8.040   2.383
 6111TIP3    H118210   3.996   7.945   2.394
 6111TIP3    H218211   3.910   8.065   2.426
 6112TIP3   OH218212   3.093   7.814   2.511
 6112TIP3    H118213   3.086   7.906   2.538
 6112TIP3    H218214   3.024   7.769   2.559
 6113TIP3   OH218215   2.872   7.913   1.471
 6113TIP3    H118216   2.827   7.900   1.387
 6113TIP3    H218217   2.840   7.997   1.503
 6114TIP3   OH218218   2.306   7.770   1.838
 6114TIP3    H118219   2.351   7.764   1.922
 6114TIP3    H218220   2.258   7.688   1.830
 6115TIP3   OH218221   3.076   7.855   1.091
 6115TIP3    H118222   3.126   7.780   1.057
 6115TIP3    H218223   3.109   7.867   1.181
 6116TIP3   OH218224   3.124   7.890   1.361
 6116TIP3    H118225   3.040   7.893   1.407
 6116TIP3    H218226   3.187   7.860   1.427
 6117TIP3   OH218227   3.878   7.143   2.651
 6117TIP3    H118228   3.793   7.155   2.607
 6117TIP3    H218229   3.895   7.049   2.645
 6118TIP3   OH218230   2.492   7.583   2.651
 6118TIP3    H118231   2.543   7.572   2.731
 6118TIP3    H218232   2.419   7.523   2.661
 6119TIP3   OH218233   2.869   6.383   2.465
 6119TIP3    H118234   2.784   6.350   2.435
 6119TIP3    H218235   2.848   6.464   2.511
 6120TIP3   OH218236   3.413   6.509   2.669
 6120TIP3    H118237   3.483   6.484   2.729
 6120TIP3    H218238   3.333   6.494   2.718
 6121TIP3   OH218239   3.638   6.927   2.584
 6121TIP3    H118240   3.594   6.922   2.668
 6121TIP3    H218241   3.621   7.016   2.553
 6122TIP3   OH218242   3.296   7.003   1.110
 6122TIP3    H118243   3.255   7.013   1.025
 6122TIP3    H218244   3.381   7.046   1.101
 6123TIP3   OH218245   3.038   6.411   1.432
 6123TIP3    H118246   3.005   6.428   1.520
 6123TIP3    H218247   2.990   6.333   1.402
 6124TIP3   OH218248   2.810   6.921   2.471
 6124TIP3    H118249   2.768   6.928   2.556
 6124TIP3    H218250   2.788   7.002   2.426
 6125TIP3   OH218251   2.688   6.795   1.994
 6125TIP3    H118252   2.599   6.773   2.019
 6125TIP3    H218253   2.698   6.764   1.905
 6126TIP3   OH218254   3.167   6.868   1.721
 6126TIP3    H118255   3.120   6.941   1.681
 6126TIP3    H218256   3.227   6.838   1.652
 6127TIP3   OH218257   3.354   7.137   2.792
 6127TIP3    H118258   3.328   7.070   2.855
 6127TIP3    H218259   3.446   7.154   2.812
 6128TIP3   OH218260   3.332   6.883   1.946
 6128TIP3    H118261   3.264   6.904   1.882
 6128TIP3    H218262   3.382   6.812   1.906
 6129TIP3   OH218263   2.655   6.933   2.697
 6129TIP3    H118264   2.674   6.995   2.768
 6129TIP3    H218265   2.636   6.850   2.742
 6130TIP3   OH218266   2.697   6.407   1.408
 6130TIP3    H118267   2.689   6.413   1.503
 6130TIP3    H218268   2.616   6.446   1.374
 6131TIP3   OH218269   2.237   6.457   2.272
 6131TIP3    H118270   2.308   6.491   2.325
 6131TIP3    H218271   2.277   6.438   2.187
 6132TIP3   OH218272   2.136   6.430   1.773
 6132TIP3    H118273   2.182   6.465   1.697
 6132TIP3    H218274   2.073   6.498   1.796
 6133TIP3   OH218275   3.385   7.140   2.371
 6133TIP3    H118276   3.407   7.072   2.306
 6133TIP3    H218277   3.338   7.092   2.440
 6134TIP3   OH218278   3.050   6.590   2.049
 6134TIP3    H118279   2.973   6.590   2.104
 6134TIP3    H218280   3.124   6.581   2.110
 6135TIP3   OH218281   2.448   6.672   2.050
 6135TIP3    H118282   2.360   6.675   2.014
 6135TIP3    H218283   2.476   6.581   2.037
 6136TIP3   OH218284   2.701   6.673   1.749
 6136TIP3    H118285   2.795   6.686   1.740
 6136TIP3    H218286   2.666   6.691   1.661
 6137TIP3   OH218287   3.491   6.674   2.251
 6137TIP3    H118288   3.477   6.690   2.344
 6137TIP3    H218289   3.421   6.613   2.226
 6138TIP3   OH218290   2.592   6.692   1.498
 6138TIP3    H118291   2.530   6.642   1.444
 6138TIP3    H218292   2.644   6.741   1.435
 6139TIP3   OH218293   3.698   8.379   2.471
 6139TIP3    H118294   3.695   8.389   2.376
 6139TIP3    H218295   3.775   8.429   2.498
 6140TIP3   OH218296   2.642   7.491   2.884
 6140TIP3    H118297   2.724   7.512   2.929
 6140TIP3    H218298   2.574   7.504   2.949
 6141TIP3   OH218299   3.100   6.960   2.151
 6141TIP3    H118300   3.167   6.913   2.102
 6141TIP3    H218301   3.100   6.920   2.238
 6142TIP3   OH218302   2.587   6.422   2.042
 6142TIP3    H118303   2.560   6.347   2.095
 6142TIP3    H218304   2.608   6.385   1.956
 6143TIP3   OH218305   3.077   6.863   2.415
 6143TIP3    H118306   2.990   6.896   2.439
 6143TIP3    H218307   3.138   6.914   2.468
 6144TIP3   OH218308   2.808   7.209   1.529
 6144TIP3    H118309   2.732   7.156   1.504
 6144TIP3    H218310   2.780   7.254   1.609
 6145TIP3   OH218311   3.698   7.472   2.132
 6145TIP3    H118312   3.735   7.521   2.058
 6145TIP3    H218313   3.619   7.432   2.097
 6146TIP3   OH218314   3.284   6.538   1.419
 6146TIP3    H118315   3.190   6.517   1.423
 6146TIP3    H218316   3.289   6.631   1.439
 6147TIP3   OH218317   3.216   7.550   2.554
 6147TIP3    H118318   3.271   7.543   2.632
 6147TIP3    H218319   3.180   7.638   2.557
 6148TIP3   OH218320   3.336   6.798   1.505
 6148TIP3    H118321   3.430   6.807   1.521
 6148TIP3    H218322   3.312   6.876   1.457
 6149TIP3   OH218323   2.493   7.217   2.174
 6149TIP3    H118324   2.532   7.203   2.088
 6149TIP3    H218325   2.561   7.192   2.236
 6150TIP3   OH218326   2.959   7.369   1.369
 6150TIP3    H118327   2.912   7.453   1.366
 6150TIP3    H218328   2.904   7.313   1.424
 6151TIP3   OH218329   2.388   7.167   2.817
 6151TIP3    H118330   2.404   7.153   2.910
 6151TIP3    H218331   2.315   7.110   2.796
 6152TIP3   OH218332   3.125   7.294   2.834
 6152TIP3    H118333   3.056   7.234   2.805
 6152TIP3    H218334   3.206   7.252   2.804
 6153TIP3   OH218335   3.364   7.840   2.440
 6153TIP3    H118336   3.268   7.829   2.440
 6153TIP3    H218337   3.384   7.878   2.525
 6154TIP3   OH218338   3.748   6.884   1.325
 6154TIP3    H118339   3.689   6.838   1.265
 6154TIP3    H218340   3.748   6.975   1.294
 6155TIP3   OH218341   3.995   7.751   2.404
 6155TIP3    H118342   3.901   7.739   2.391
 6155TIP3    H218343   4.034   7.724   2.320
 6156TIP3   OH218344   3.483   7.705   1.262
 6156TIP3    H118345   3.463   7.635   1.324
 6156TIP3    H218346   3.498   7.660   1.179
 6157TIP3   OH218347   3.470   7.337   2.031
 6157TIP3    H118348   3.380   7.316   2.057
 6157TIP3    H218349   3.503   7.255   1.994
 6158TIP3   OH218350   2.631   7.573   1.849
 6158TIP3    H118351   2.628   7.647   1.789
 6158TIP3    H218352   2.547   7.575   1.895
 6159TIP3   OH218353   2.187   6.858   1.565
 6159TIP3    H118354   2.230   6.941   1.585
 6159TIP3    H218355   2.107   6.860   1.617
 6160TIP3   OH218356   2.697   7.328   1.745
 6160TIP3    H118357   2.686   7.417   1.777
 6160TIP3    H218358   2.675   7.272   1.820
 6161TIP3   OH218359   2.910   7.888   2.302
 6161TIP3    H118360   2.944   7.959   2.248
 6161TIP3    H218361   2.987   7.858   2.352
 6162TIP3   OH218362   2.543   7.790   1.697
 6162TIP3    H118363   2.455   7.797   1.735
 6162TIP3    H218364   2.579   7.878   1.702
 6163TIP3   OH218365   3.259   7.558   2.280
 6163TIP3    H118366   3.242   7.553   2.374
 6163TIP3    H218367   3.345   7.518   2.268
 6164TIP3   OH218368   3.252   7.433   1.152
 6164TIP3    H118369   3.303   7.409   1.230
 6164TIP3    H218370   3.167   7.391   1.165
 6165TIP3   OH218371   3.518   8.044   2.314
 6165TIP3    H118372   3.448   7.984   2.337
 6165TIP3    H218373   3.484   8.096   2.242
 6166TIP3   OH218374   3.556   7.897   0.958
 6166TIP3    H118375   3.580   7.954   0.885
 6166TIP3    H218376   3.485   7.944   1.002
 6167TIP3   OH218377   2.596   6.679   2.811
 6167TIP3    H118378   2.501   6.688   2.816
 6167TIP3    H218379   2.619   6.628   2.889
 6168TIP3   OH218380   3.422   7.352   1.352
 6168TIP3    H118381   3.409   7.291   1.425
 6168TIP3    H218382   3.516   7.363   1.347
 6169TIP3   OH218383   2.339   7.782   2.457
 6169TIP3    H118384   2.397   7.732   2.515
 6169TIP3    H218385   2.348   7.872   2.487
 6170TIP3   OH218386   2.613   7.398   1.165
 6170TIP3    H118387   2.625   7.306   1.140
 6170TIP3    H218388   2.598   7.395   1.260
 6171TIP3   OH218389   2.545   7.415   1.436
 6171TIP3    H118390   2.603   7.392   1.509
 6171TIP3    H218391   2.543   7.511   1.437
 6172TIP3   OH218392   2.280   7.109   1.645
 6172TIP3    H118393   2.215   7.156   1.697
 6172TIP3    H218394   2.299   7.167   1.571
 6173TIP3   OH218395   3.446   6.735   2.514
 6173TIP3    H118396   3.523   6.782   2.547
 6173TIP3    H218397   3.436   6.660   2.573
 6174TIP3   OH218398   3.314   6.503   1.708
 6174TIP3    H118399   3.318   6.513   1.613
 6174TIP3    H218400   3.371   6.572   1.742
 6175TIP3   OH218401   2.814   7.598   1.365
 6175TIP3    H118402   2.730   7.623   1.404
 6175TIP3    H218403   2.844   7.676   1.319
 6176TIP3   OH218404   2.978   6.682   1.795
 6176TIP3    H118405   3.042   6.749   1.768
 6176TIP3    H218406   3.002   6.662   1.885
 6177TIP3   OH218407   3.283   6.973   2.567
 6177TIP3    H118408   3.307   7.019   2.648
 6177TIP3    H218409   3.334   6.892   2.569
 6178TIP3   OH218410   3.144   6.385   1.886
 6178TIP3    H118411   3.119   6.460   1.940
 6178TIP3    H218412   3.211   6.419   1.827
 6179TIP3   OH218413   2.565   7.687   1.444
 6179TIP3    H118414   2.547   7.760   1.385
 6179TIP3    H218415   2.556   7.725   1.532
 6180TIP3   OH218416   2.668   6.400   1.687
 6180TIP3    H118417   2.651   6.490   1.716
 6180TIP3    H218418   2.762   6.389   1.694
 6181TIP3   OH218419   3.902   6.867   2.560
 6181TIP3    H118420   3.807   6.878   2.573
 6181TIP3    H218421   3.909   6.811   2.483
 6182TIP3   OH218422   3.561   7.076   1.948
 6182TIP3    H118423   3.483   7.022   1.963
 6182TIP3    H218424   3.628   7.037   2.004
 6183TIP3   OH218425   2.301   7.281   1.424
 6183TIP3    H118426   2.370   7.347   1.433
 6183TIP3    H218427   2.335   7.220   1.359
 6184TIP3   OH218428   2.211   6.580   1.556
 6184TIP3    H118429   2.222   6.674   1.568
 6184TIP3    H218430   2.173   6.571   1.469
 6185TIP3   OH218431   3.533   8.047   1.868
 6185TIP3    H118432   3.490   8.101   1.802
 6185TIP3    H218433   3.626   8.071   1.862
 6186TIP3   OH218434   2.607   6.297   2.427
 6186TIP3    H118435   2.577   6.264   2.342
 6186TIP3    H218436   2.600   6.223   2.486
 6187TIP3   OH218437   2.128   7.544   1.819
 6187TIP3    H118438   2.090   7.587   1.896
 6187TIP3    H218439   2.086   7.586   1.745
 6188TIP3   OH218440   2.332   8.085   2.889
 6188TIP3    H118441   2.415   8.091   2.937
 6188TIP3    H218442   2.315   7.991   2.883
 6189TIP3   OH218443   2.801   7.992   2.933
 6189TIP3    H118444   2.893   7.966   2.941
 6189TIP3    H218445   2.768   7.941   2.859
 6190TIP3   OH218446   2.764   7.603   1.053
 6190TIP3    H118447   2.719   7.533   1.101
 6190TIP3    H218448   2.840   7.560   1.014
 6191TIP3   OH218449   3.416   7.938   2.691
 6191TIP3    H118450   3.435   7.869   2.754
 6191TIP3    H218451   3.489   7.999   2.699
 6192TIP3   OH218452   3.204   7.642   0.978
 6192TIP3    H118453   3.241   7.579   1.041
 6192TIP3    H218454   3.263   7.637   0.903
 6193TIP3   OH218455   2.442   7.492   3.079
 6193TIP3    H118456   2.461   7.399   3.088
 6193TIP3    H218457   2.354   7.495   3.039
 6194TIP3   OH218458   2.430   7.092   1.274
 6194TIP3    H118459   2.480   7.070   1.353
 6194TIP3    H218460   2.496   7.107   1.207
 6195TIP3   OH218461   3.060   7.571   2.851
 6195TIP3    H118462   3.015   7.593   2.769
 6195TIP3    H218463   3.096   7.484   2.836
 6196TIP3   OH218464   2.995   7.310   1.104
 6196TIP3    H118465   2.971   7.322   1.197
 6196TIP3    H218466   2.971   7.219   1.085
 6197TIP3   OH218467   3.528   7.615   2.463
 6197TIP3    H118468   3.606   7.642   2.414
 6197TIP3    H218469   3.466   7.687   2.452
 6198TIP3   OH218470   2.548   7.231   3.075
 6198TIP3    H118471   2.626   7.223   3.020
 6198TIP3    H218472   2.582   7.250   3.162
 6199TIP3   OH218473   2.598   7.033   1.485
 6199TIP3    H118474   2.579   7.004   1.574
 6199TIP3    H218475   2.647   6.961   1.446
 6200TIP3   OH218476   2.918   7.118   2.736
 6200TIP3    H118477   2.834   7.162   2.748
 6200TIP3    H218478   2.950   7.150   2.652
 6201TIP3   OH218479   2.739   6.850   1.330
 6201TIP3    H118480   2.709   6.853   1.239
 6201TIP3    H218481   2.834   6.863   1.325
 6202TIP3   OH218482   3.412   7.493   2.812
 6202TIP3    H118483   3.482   7.455   2.759
 6202TIP3    H218484   3.409   7.437   2.890
 6203TIP3   OH218485   3.519   7.127   1.016
 6203TIP3    H118486   3.508   7.088   0.929
 6203TIP3    H218487   3.500   7.220   1.003
 6204TIP3   OH218488   3.015   6.885   2.846
 6204TIP3    H118489   3.021   6.816   2.781
 6204TIP3    H218490   2.984   6.962   2.798
 6205TIP3   OH218491   3.027   6.689   2.641
 6205TIP3    H118492   3.055   6.727   2.558
 6205TIP3    H218493   2.937   6.662   2.626
 6206TIP3   OH218494   3.031   7.225   2.514
 6206TIP3    H118495   3.116   7.269   2.509
 6206TIP3    H218496   2.973   7.279   2.460
 6207TIP3   OH218497   3.622   7.179   2.888
 6207TIP3    H118498   3.671   7.097   2.895
 6207TIP3    H218499   3.689   7.247   2.881
 6208TIP3   OH218500   3.653   7.440   2.630
 6208TIP3    H118501   3.599   7.501   2.579
 6208TIP3    H218502   3.742   7.456   2.599
 6209TIP3   OH218503   2.904   6.965   3.090
 6209TIP3    H118504   2.834   6.903   3.111
 6209TIP3    H218505   2.932   6.941   3.002
 6210TIP3   OH218506   3.148   6.459   2.748
 6210TIP3    H118507   3.108   6.539   2.714
 6210TIP3    H218508   3.081   6.392   2.735
 6211TIP3   OH218509   3.271   6.927   2.950
 6211TIP3    H118510   3.262   6.913   3.044
 6211TIP3    H218511   3.184   6.906   2.914
 6212TIP3   OH218512   3.512   6.879   2.817
 6212TIP3    H118513   3.433   6.881   2.871
 6212TIP3    H218514   3.582   6.856   2.878
 6213TIP3   OH218515   3.737   6.838   2.973
 6213TIP3    H118516   3.755   6.745   2.980
 6213TIP3    H218517   3.736   6.870   3.063
 6214TIP3   OH218518   2.732   6.749   3.154
 6214TIP3    H118519   2.739   6.661   3.118
 6214TIP3    H218520   2.771   6.743   3.241
 6215TIP3   OH218521   3.212   6.433   3.013
 6215TIP3    H118522   3.280   6.366   3.007
 6215TIP3    H218523   3.183   6.446   2.923
 6216TIP3   OH218524   3.311   6.646   3.158
 6216TIP3    H118525   3.280   6.574   3.104
 6216TIP3    H218526   3.239   6.708   3.160
 6217TIP3   OH218527   2.565   7.899   1.265
 6217TIP3    H118528   2.655   7.881   1.239
 6217TIP3    H218529   2.527   7.946   1.191
 6218TIP3   OH218530   2.029   7.266   1.458
 6218TIP3    H118531   2.123   7.281   1.447
 6218TIP3    H218532   2.012   7.186   1.407
 6219TIP3   OH218533   1.946   7.860   1.907
 6219TIP3    H118534   1.878   7.809   1.863
 6219TIP3    H218535   1.990   7.799   1.965
 6220TIP3   OH218536   2.088   7.687   2.069
 6220TIP3    H118537   2.087   7.621   2.138
 6220TIP3    H218538   2.139   7.760   2.106
 6221TIP3   OH218539   3.791   8.134   1.869
 6221TIP3    H118540   3.824   8.149   1.958
 6221TIP3    H218541   3.866   8.154   1.812
 6222TIP3   OH218542   3.836   8.135   2.149
 6222TIP3    H118543   3.788   8.053   2.142
 6222TIP3    H218544   3.907   8.117   2.211
 6223TIP3   OH218545   3.911   7.831   2.736
 6223TIP3    H118546   3.833   7.845   2.789
 6223TIP3    H218547   3.957   7.914   2.738
 6224TIP3   OH218548   3.699   7.340   1.363
 6224TIP3    H118549   3.756   7.414   1.340
 6224TIP3    H218550   3.748   7.294   1.432
 6225TIP3   OH218551   3.848   7.195   1.546
 6225TIP3    H118552   3.780   7.166   1.608
 6225TIP3    H218553   3.912   7.240   1.601
 6226TIP3   OH218554   3.891   7.605   1.975
 6226TIP3    H118555   3.939   7.532   1.936
 6226TIP3    H218556   3.906   7.679   1.916
 6227TIP3   OH218557   3.693   7.896   2.158
 6227TIP3    H118558   3.627   7.941   2.210
 6227TIP3    H218559   3.644   7.858   2.085
 6228TIP3   OH218560   3.726   7.124   1.196
 6228TIP3    H118561   3.654   7.125   1.133
 6228TIP3    H218562   3.714   7.204   1.247
 6229TIP3   OH218563   3.584   6.770   1.138
 6229TIP3    H118564   3.536   6.805   1.063
 6229TIP3    H218565   3.575   6.675   1.130
 6230TIP3   OH218566   3.635   7.072   1.681
 6230TIP3    H118567   3.638   6.978   1.667
 6230TIP3    H218568   3.614   7.082   1.774
 6231TIP3   OH218569   2.255   7.127   2.453
 6231TIP3    H118570   2.247   7.095   2.363
 6231TIP3    H218571   2.348   7.120   2.472
 6232TIP3   OH218572   3.912   7.489   2.541
 6232TIP3    H118573   3.977   7.421   2.522
 6232TIP3    H218574   3.933   7.561   2.482
 6233TIP3   OH218575   4.084   7.272   2.528
 6233TIP3    H118576   4.010   7.230   2.571
 6233TIP3    H218577   4.160   7.220   2.553
 6234TIP3   OH218578   3.563   6.492   1.134
 6234TIP3    H118579   3.658   6.485   1.145
 6234TIP3    H218580   3.527   6.457   1.216
 6235TIP3   OH218581   3.625   6.799   1.567
 6235TIP3    H118582   3.672   6.717   1.581
 6235TIP3    H218583   3.666   6.838   1.490
 6236TIP3   OH218584   3.777   6.953   2.087
 6236TIP3    H118585   3.856   6.973   2.037
 6236TIP3    H218586   3.792   6.994   2.172
 6237TIP3   OH218587   3.850   7.104   2.314
 6237TIP3    H118588   3.779   7.132   2.372
 6237TIP3    H218589   3.880   7.184   2.271
 6238TIP3   OH218590   2.470   6.804   3.082
 6238TIP3    H118591   2.563   6.803   3.104
 6238TIP3    H218592   2.434   6.725   3.121
 6239TIP3   OH218593   4.318   6.708   2.851
 6239TIP3    H118594   4.384   6.648   2.815
 6239TIP3    H218595   4.278   6.749   2.774
 6240TIP3   OH218596   3.746   6.554   1.619
 6240TIP3    H118597   3.797   6.542   1.699
 6240TIP3    H218598   3.694   6.474   1.611
 6241TIP3   OH218599   2.447   6.525   2.443
 6241TIP3    H118600   2.500   6.446   2.449
 6241TIP3    H218601   2.510   6.595   2.424
 6242TIP3   OH218602   2.228   6.796   2.488
 6242TIP3    H118603   2.284   6.789   2.410
 6242TIP3    H218604   2.267   6.867   2.539
 6243TIP3   OH218605   4.161   6.811   2.651
 6243TIP3    H118606   4.074   6.849   2.661
 6243TIP3    H218607   4.147   6.732   2.598
 6244TIP3   OH218608   3.821   6.472   1.210
 6244TIP3    H118609   3.885   6.402   1.226
 6244TIP3    H218610   3.870   6.553   1.226
 6245TIP3   OH218611   2.215   6.302   2.002
 6245TIP3    H118612   2.130   6.287   2.044
 6245TIP3    H218613   2.195   6.354   1.925
 6246TIP3   OH218614   3.356   8.019   1.518
 6246TIP3    H118615   3.418   8.010   1.446
 6246TIP3    H218616   3.394   8.087   1.574
 6247TIP3   OH218617   2.439   6.352   2.834
 6247TIP3    H118618   2.388   6.345   2.914
 6247TIP3    H218619   2.382   6.400   2.773
 6248TIP3   OH218620   2.470   7.805   2.899
 6248TIP3    H118621   2.377   7.786   2.894
 6248TIP3    H218622   2.490   7.804   2.993
 6249TIP3   OH218623   2.684   7.851   2.452
 6249TIP3    H118624   2.628   7.918   2.414
 6249TIP3    H218625   2.769   7.862   2.410
 6250TIP3   OH218626   3.083   8.079   2.587
 6250TIP3    H118627   3.122   8.076   2.675
 6250TIP3    H218628   3.142   8.135   2.537
 6251TIP3   OH218629   3.263   8.241   2.456
 6251TIP3    H118630   3.322   8.198   2.395
 6251TIP3    H218631   3.320   8.297   2.509
 6252TIP3   OH218632   4.087   6.561   2.545
 6252TIP3    H118633   4.000   6.553   2.507
 6252TIP3    H218634   4.124   6.473   2.539
 6253TIP3   OH218635   2.338   8.064   2.493
 6253TIP3    H118636   2.248   8.085   2.468
 6253TIP3    H218637   2.363   8.132   2.555
 6254TIP3   OH218638   2.562   8.062   2.332
 6254TIP3    H118639   2.478   8.069   2.378
 6254TIP3    H218640   2.544   8.094   2.244
 6255TIP3   OH218641   2.982   8.088   2.127
 6255TIP3    H118642   2.914   8.100   2.061
 6255TIP3    H218643   2.990   8.174   2.168
 6256TIP3   OH218644   3.240   8.029   2.197
 6256TIP3    H118645   3.151   8.050   2.169
 6256TIP3    H218646   3.296   8.090   2.149
 6257TIP3   OH218647   3.440   8.183   2.088
 6257TIP3    H118648   3.457   8.274   2.064
 6257TIP3    H218649   3.468   8.133   2.012
 6258TIP3   OH218650   2.255   7.872   2.203
 6258TIP3    H118651   2.276   7.850   2.294
 6258TIP3    H218652   2.329   7.839   2.153
 6259TIP3   OH218653   2.458   7.752   2.068
 6259TIP3    H118654   2.469   7.668   2.113
 6259TIP3    H218655   2.544   7.794   2.075
 6260TIP3   OH218656   2.723   7.835   2.101
 6260TIP3    H118657   2.746   7.743   2.087
 6260TIP3    H218658   2.777   7.863   2.174
 6261TIP3   OH218659   3.275   6.492   2.188
 6261TIP3    H118660   3.236   6.423   2.241
 6261TIP3    H218661   3.342   6.448   2.136
 6262TIP3   OH218662   3.782   6.403   2.051
 6262TIP3    H118663   3.829   6.455   1.986
 6262TIP3    H218664   3.700   6.449   2.064
 6263TIP3   OH218665   3.914   6.494   1.828
 6263TIP3    H118666   3.979   6.428   1.805
 6263TIP3    H218667   3.959   6.577   1.817
 6264TIP3   OH218668   2.519   6.193   2.185
 6264TIP3    H118669   2.431   6.159   2.196
 6264TIP3    H218670   2.574   6.115   2.176
 6265TIP3   OH218671   2.338   6.106   1.835
 6265TIP3    H118672   2.368   6.155   1.758
 6265TIP3    H218673   2.304   6.173   1.895
 6266TIP3   OH218674   3.008   6.231   2.083
 6266TIP3    H118675   3.052   6.286   2.018
 6266TIP3    H218676   3.043   6.260   2.167
 6267TIP3   OH218677   3.480   6.364   2.059
 6267TIP3    H118678   3.512   6.333   1.974
 6267TIP3    H218679   3.496   6.290   2.118
 6268TIP3   OH218680   2.019   7.659   1.593
 6268TIP3    H118681   1.939   7.631   1.550
 6268TIP3    H218682   2.026   7.752   1.573
 6269TIP3   OH218683   2.454   6.233   1.602
 6269TIP3    H118684   2.499   6.170   1.546
 6269TIP3    H218685   2.525   6.289   1.636
 6270TIP3   OH218686   2.943   6.431   1.693
 6270TIP3    H118687   3.004   6.384   1.750
 6270TIP3    H218688   2.952   6.522   1.719
 6271TIP3   OH218689   2.822   7.828   1.197
 6271TIP3    H118690   2.906   7.855   1.159
 6271TIP3    H218691   2.793   7.755   1.142
 6272TIP3   OH218692   3.516   7.973   1.294
 6272TIP3    H118693   3.510   7.878   1.288
 6272TIP3    H218694   3.473   8.005   1.215
 6273TIP3   OH218695   2.751   6.479   3.066
 6273TIP3    H118696   2.717   6.413   3.125
 6273TIP3    H218697   2.843   6.488   3.090
 6274TIP3   OH218698   2.998   6.486   3.189
 6274TIP3    H118699   3.075   6.463   3.137
 6274TIP3    H218700   2.992   6.416   3.255
 6275TIP3   OH218701   2.125   7.636   1.268
 6275TIP3    H118702   2.131   7.657   1.362
 6275TIP3    H218703   2.212   7.602   1.246
 6276TIP3   OH218704   3.821   6.574   2.975
 6276TIP3    H118705   3.838   6.544   3.064
 6276TIP3    H218706   3.906   6.569   2.931
 6277TIP3   OH218707   3.738   8.106   2.476
 6277TIP3    H118708   3.665   8.075   2.422
 6277TIP3    H218709   3.726   8.200   2.481
 6278TIP3   OH218710   5.002   7.442   1.295
 6278TIP3    H118711   4.982   7.534   1.310
 6278TIP3    H218712   4.918   7.404   1.268
 6279TIP3   OH218713   5.005   7.481   1.650
 6279TIP3    H118714   5.055   7.466   1.731
 6279TIP3    H218715   4.964   7.396   1.632
 6280TIP3   OH218716   4.309   7.341   1.987
 6280TIP3    H118717   4.350   7.290   2.057
 6280TIP3    H218718   4.382   7.367   1.931
 6281TIP3   OH218719   5.295   7.766   1.354
 6281TIP3    H118720   5.267   7.701   1.418
 6281TIP3    H218721   5.306   7.847   1.404
 6282TIP3   OH218722   4.286   7.764   1.679
 6282TIP3    H118723   4.274   7.669   1.677
 6282TIP3    H218724   4.380   7.777   1.666
 6283TIP3   OH218725   3.987   6.969   1.460
 6283TIP3    H118726   3.955   7.055   1.488
 6283TIP3    H218727   3.912   6.927   1.419
 6284TIP3   OH218728   4.072   7.293   1.681
 6284TIP3    H118729   4.125   7.217   1.706
 6284TIP3    H218730   4.136   7.361   1.660
 6285TIP3   OH218731   4.943   8.233   1.341
 6285TIP3    H118732   4.943   8.147   1.300
 6285TIP3    H218733   4.941   8.216   1.435
 6286TIP3   OH218734   4.816   7.701   1.652
 6286TIP3    H118735   4.863   7.623   1.621
 6286TIP3    H218736   4.885   7.760   1.682
 6287TIP3   OH218737   5.843   7.018   1.688
 6287TIP3    H118738   5.850   7.104   1.731
 6287TIP3    H218739   5.881   7.031   1.602
 6288TIP3   OH218740   5.229   7.192   1.707
 6288TIP3    H118741   5.262   7.106   1.733
 6288TIP3    H218742   5.194   7.178   1.619
 6289TIP3   OH218743   4.575   6.844   1.652
 6289TIP3    H118744   4.558   6.920   1.596
 6289TIP3    H218745   4.522   6.774   1.614
 6290TIP3   OH218746   5.289   6.955   1.308
 6290TIP3    H118747   5.345   6.936   1.384
 6290TIP3    H218748   5.350   6.990   1.243
 6291TIP3   OH218749   4.208   7.068   1.775
 6291TIP3    H118750   4.291   7.052   1.819
 6291TIP3    H218751   4.212   7.017   1.694
 6292TIP3   OH218752   4.631   7.271   1.598
 6292TIP3    H118753   4.726   7.256   1.602
 6292TIP3    H218754   4.595   7.188   1.567
 6293TIP3   OH218755   5.879   7.236   1.856
 6293TIP3    H118756   5.807   7.295   1.834
 6293TIP3    H218757   5.937   7.288   1.912
 6294TIP3   OH218758   4.565   6.862   2.104
 6294TIP3    H118759   4.515   6.899   2.031
 6294TIP3    H218760   4.509   6.877   2.181
 6295TIP3   OH218761   4.903   7.694   1.277
 6295TIP3    H118762   4.867   7.659   1.195
 6295TIP3    H218763   4.848   7.770   1.297
 6296TIP3   OH218764   4.658   7.629   1.867
 6296TIP3    H118765   4.605   7.703   1.897
 6296TIP3    H218766   4.707   7.664   1.792
 6297TIP3   OH218767   5.443   6.953   1.533
 6297TIP3    H118768   5.392   6.941   1.614
 6297TIP3    H218769   5.495   7.032   1.549
 6298TIP3   OH218770   4.454   6.964   1.871
 6298TIP3    H118771   4.509   7.040   1.890
 6298TIP3    H218772   4.498   6.918   1.800
 6299TIP3   OH218773   4.503   7.835   1.969
 6299TIP3    H118774   4.495   7.925   1.937
 6299TIP3    H218775   4.423   7.820   2.018
 6300TIP3   OH218776   3.885   7.527   1.286
 6300TIP3    H118777   3.845   7.527   1.199
 6300TIP3    H218778   3.907   7.619   1.302
 6301TIP3   OH218779   5.314   8.004   1.499
 6301TIP3    H118780   5.225   8.012   1.536
 6301TIP3    H218781   5.307   8.041   1.411
 6302TIP3   OH218782   5.654   6.890   1.843
 6302TIP3    H118783   5.569   6.918   1.809
 6302TIP3    H218784   5.718   6.926   1.782
 6303TIP3   OH218785   4.903   6.549   1.834
 6303TIP3    H118786   4.898   6.457   1.860
 6303TIP3    H218787   4.825   6.589   1.873
 6304TIP3   OH218788   4.978   8.009   1.174
 6304TIP3    H118789   5.043   7.939   1.186
 6304TIP3    H218790   5.027   8.079   1.130
 6305TIP3   OH218791   5.162   7.815   1.116
 6305TIP3    H118792   5.175   7.738   1.060
 6305TIP3    H218793   5.205   7.792   1.198
 6306TIP3   OH218794   5.551   7.914   1.815
 6306TIP3    H118795   5.529   7.839   1.760
 6306TIP3    H218796   5.535   7.990   1.760
 6307TIP3   OH218797   4.815   7.310   1.120
 6307TIP3    H118798   4.727   7.343   1.104
 6307TIP3    H218799   4.870   7.357   1.057
 6308TIP3   OH218800   4.747   7.083   0.939
 6308TIP3    H118801   4.795   7.147   0.993
 6308TIP3    H218802   4.810   7.058   0.871
 6309TIP3   OH218803   5.730   7.583   1.673
 6309TIP3    H118804   5.644   7.625   1.678
 6309TIP3    H218805   5.762   7.606   1.586
 6310TIP3   OH218806   5.170   7.403   1.087
 6310TIP3    H118807   5.112   7.421   1.161
 6310TIP3    H218808   5.246   7.361   1.126
 6311TIP3   OH218809   5.419   7.452   1.990
 6311TIP3    H118810   5.417   7.536   2.036
 6311TIP3    H218811   5.337   7.450   1.940
 6312TIP3   OH218812   4.427   7.393   1.445
 6312TIP3    H118813   4.391   7.327   1.386
 6312TIP3    H218814   4.504   7.350   1.484
 6313TIP3   OH218815   4.554   7.803   1.585
 6313TIP3    H118816   4.533   7.802   1.491
 6313TIP3    H218817   4.644   7.773   1.589
 6314TIP3   OH218818   4.521   7.399   1.815
 6314TIP3    H118819   4.561   7.363   1.736
 6314TIP3    H218820   4.569   7.480   1.832
 6315TIP3   OH218821   5.063   8.028   1.597
 6315TIP3    H118822   5.053   8.109   1.648
 6315TIP3    H218823   5.046   7.958   1.660
 6316TIP3   OH218824   4.701   7.931   2.142
 6316TIP3    H118825   4.640   7.991   2.184
 6316TIP3    H218826   4.646   7.881   2.081
 6317TIP3   OH218827   5.019   7.218   0.940
 6317TIP3    H118828   5.081   7.286   0.965
 6317TIP3    H218829   4.984   7.248   0.855
 6318TIP3   OH218830   4.450   7.464   2.302
 6318TIP3    H118831   4.460   7.559   2.311
 6318TIP3    H218832   4.356   7.452   2.287
 6319TIP3   OH218833   4.734   7.910   1.252
 6319TIP3    H118834   4.812   7.961   1.228
 6319TIP3    H218835   4.672   7.927   1.181
 6320TIP3   OH218836   4.495   8.095   2.222
 6320TIP3    H118837   4.474   8.106   2.130
 6320TIP3    H218838   4.410   8.077   2.264
 6321TIP3   OH218839   5.534   6.538   0.960
 6321TIP3    H118840   5.460   6.549   1.021
 6321TIP3    H218841   5.566   6.627   0.946
 6322TIP3   OH218842   4.291   7.217   1.268
 6322TIP3    H118843   4.214   7.268   1.244
 6322TIP3    H218844   4.257   7.128   1.283
 6323TIP3   OH218845   4.090   7.648   2.170
 6323TIP3    H118846   4.021   7.632   2.106
 6323TIP3    H218847   4.122   7.561   2.193
 6324TIP3   OH218848   3.998   7.813   1.819
 6324TIP3    H118849   4.080   7.799   1.771
 6324TIP3    H218850   4.015   7.889   1.874
 6325TIP3   OH218851   5.780   8.284   1.894
 6325TIP3    H118852   5.782   8.189   1.903
 6325TIP3    H218853   5.700   8.311   1.940
 6326TIP3   OH218854   4.887   8.077   2.000
 6326TIP3    H118855   4.878   8.168   2.028
 6326TIP3    H218856   4.819   8.030   2.049
 6327TIP3   OH218857   4.561   8.211   1.020
 6327TIP3    H118858   4.584   8.119   1.028
 6327TIP3    H218859   4.643   8.258   1.035
 6328TIP3   OH218860   4.082   8.035   1.343
 6328TIP3    H118861   4.133   8.029   1.424
 6328TIP3    H218862   4.039   7.949   1.336
 6329TIP3   OH218863   4.830   8.053   0.851
 6329TIP3    H118864   4.815   8.110   0.926
 6329TIP3    H218865   4.897   8.097   0.800
 6330TIP3   OH218866   5.661   7.419   2.160
 6330TIP3    H118867   5.584   7.426   2.103
 6330TIP3    H218868   5.684   7.326   2.157
 6331TIP3   OH218869   4.282   7.843   2.137
 6331TIP3    H118870   4.331   7.834   2.219
 6331TIP3    H218871   4.212   7.778   2.143
 6332TIP3   OH218872   4.664   6.642   1.957
 6332TIP3    H118873   4.580   6.611   1.923
 6332TIP3    H218874   4.643   6.724   2.001
 6333TIP3   OH218875   5.215   6.768   2.167
 6333TIP3    H118876   5.286   6.733   2.220
 6333TIP3    H218877   5.135   6.740   2.212
 6334TIP3   OH218878   5.431   7.178   2.053
 6334TIP3    H118879   5.416   7.181   2.147
 6334TIP3    H218880   5.421   7.268   2.023
 6335TIP3   OH218881   5.305   7.246   0.701
 6335TIP3    H118882   5.272   7.191   0.630
 6335TIP3    H218883   5.233   7.306   0.720
 6336TIP3   OH218884   4.839   6.507   0.981
 6336TIP3    H118885   4.828   6.573   1.049
 6336TIP3    H218886   4.750   6.487   0.952
 6337TIP3   OH218887   4.605   7.178   1.962
 6337TIP3    H118888   4.561   7.187   2.047
 6337TIP3    H218889   4.584   7.259   1.916
 6338TIP3   OH218890   4.486   7.056   1.504
 6338TIP3    H118891   4.395   7.035   1.525
 6338TIP3    H218892   4.499   7.020   1.416
 6339TIP3   OH218893   4.956   7.120   1.254
 6339TIP3    H118894   4.912   7.191   1.207
 6339TIP3    H218895   5.010   7.077   1.187
 6340TIP3   OH218896   5.155   7.393   2.270
 6340TIP3    H118897   5.147   7.320   2.330
 6340TIP3    H218898   5.244   7.427   2.284
 6341TIP3   OH218899   5.139   7.141   1.455
 6341TIP3    H118900   5.068   7.161   1.394
 6341TIP3    H218901   5.187   7.069   1.413
 6342TIP3   OH218902   4.445   7.195   2.187
 6342TIP3    H118903   4.449   7.268   2.249
 6342TIP3    H218904   4.425   7.118   2.240
 6343TIP3   OH218905   4.416   6.636   0.953
 6343TIP3    H118906   4.431   6.654   1.046
 6343TIP3    H218907   4.348   6.699   0.927
 6344TIP3   OH218908   4.052   6.717   1.765
 6344TIP3    H118909   4.112   6.752   1.831
 6344TIP3    H218910   4.089   6.744   1.681
 6345TIP3   OH218911   3.954   6.708   1.258
 6345TIP3    H118912   4.000   6.746   1.182
 6345TIP3    H218913   3.887   6.773   1.280
 6346TIP3   OH218914   5.170   7.401   1.866
 6346TIP3    H118915   5.200   7.334   1.804
 6346TIP3    H218916   5.122   7.352   1.933
 6347TIP3   OH218917   4.844   6.834   1.543
 6347TIP3    H118918   4.768   6.834   1.601
 6347TIP3    H218919   4.919   6.829   1.602
 6348TIP3   OH218920   4.245   6.923   1.547
 6348TIP3    H118921   4.160   6.928   1.503
 6348TIP3    H218922   4.280   6.837   1.522
 6349TIP3   OH218923   4.493   6.915   1.271
 6349TIP3    H118924   4.583   6.930   1.242
 6349TIP3    H218925   4.440   6.930   1.192
 6350TIP3   OH218926   5.283   6.924   1.757
 6350TIP3    H118927   5.261   6.942   1.849
 6350TIP3    H218928   5.215   6.864   1.727
 6351TIP3   OH218929   4.302   6.911   1.074
 6351TIP3    H118930   4.215   6.890   1.041
 6351TIP3    H218931   4.349   6.944   0.997
 6352TIP3   OH218932   5.496   8.634   1.977
 6352TIP3    H118933   5.494   8.641   1.882
 6352TIP3    H218934   5.574   8.684   2.003
 6353TIP3   OH218935   4.441   7.736   2.383
 6353TIP3    H118936   4.516   7.766   2.435
 6353TIP3    H218937   4.366   7.749   2.440
 6354TIP3   OH218938   4.902   7.211   1.643
 6354TIP3    H118939   4.970   7.167   1.591
 6354TIP3    H218940   4.902   7.164   1.726
 6355TIP3   OH218941   4.382   6.676   1.521
 6355TIP3    H118942   4.358   6.599   1.572
 6355TIP3    H218943   4.406   6.642   1.435
 6356TIP3   OH218944   4.868   7.106   1.907
 6356TIP3    H118945   4.781   7.142   1.927
 6356TIP3    H218946   4.928   7.161   1.957
 6357TIP3   OH218947   4.576   7.414   1.048
 6357TIP3    H118948   4.499   7.372   1.011
 6357TIP3    H218949   4.542   7.473   1.115
 6358TIP3   OH218950   5.482   7.703   1.651
 6358TIP3    H118951   5.518   7.753   1.578
 6358TIP3    H218952   5.402   7.664   1.617
 6359TIP3   OH218953   5.033   6.733   0.981
 6359TIP3    H118954   4.951   6.723   0.934
 6359TIP3    H218955   5.043   6.827   0.992
 6360TIP3   OH218956   5.010   7.810   2.042
 6360TIP3    H118957   5.076   7.810   2.111
 6360TIP3    H218958   4.973   7.898   2.043
 6361TIP3   OH218959   5.087   6.988   1.049
 6361TIP3    H118960   5.181   6.993   1.029
 6361TIP3    H218961   5.048   7.062   1.002
 6362TIP3   OH218962   4.288   7.478   1.666
 6362TIP3    H118963   4.328   7.461   1.580
 6362TIP3    H218964   4.357   7.456   1.729
 6363TIP3   OH218965   4.791   7.597   1.042
 6363TIP3    H118966   4.786   7.687   1.009
 6363TIP3    H218967   4.701   7.565   1.035
 6364TIP3   OH218968   4.174   7.408   2.298
 6364TIP3    H118969   4.171   7.382   2.390
 6364TIP3    H218970   4.097   7.365   2.259
 6365TIP3   OH218971   4.926   7.543   2.352
 6365TIP3    H118972   4.856   7.489   2.315
 6365TIP3    H218973   5.005   7.511   2.310
 6366TIP3   OH218974   5.158   8.094   1.935
 6366TIP3    H118975   5.062   8.089   1.931
 6366TIP3    H218976   5.176   8.133   2.021
 6367TIP3   OH218977   5.565   7.143   0.806
 6367TIP3    H118978   5.502   7.098   0.750
 6367TIP3    H218979   5.522   7.225   0.830
 6368TIP3   OH218980   5.794   8.008   1.896
 6368TIP3    H118981   5.701   7.990   1.892
 6368TIP3    H218982   5.828   7.978   1.812
 6369TIP3   OH218983   5.442   7.875   0.756
 6369TIP3    H118984   5.350   7.896   0.769
 6369TIP3    H218985   5.445   7.826   0.675
 6370TIP3   OH218986   5.252   7.576   1.547
 6370TIP3    H118987   5.162   7.554   1.569
 6370TIP3    H218988   5.290   7.495   1.512
 6371TIP3   OH218989   4.409   7.815   1.340
 6371TIP3    H118990   4.406   7.898   1.291
 6371TIP3    H218991   4.317   7.790   1.349
 6372TIP3   OH218992   3.965   7.113   1.063
 6372TIP3    H118993   4.013   7.192   1.089
 6372TIP3    H218994   3.882   7.118   1.111
 6373TIP3   OH218995   4.507   7.576   1.251
 6373TIP3    H118996   4.486   7.666   1.278
 6373TIP3    H218997   4.481   7.522   1.325
 6374TIP3   OH218998   4.709   8.145   1.784
 6374TIP3    H118999   4.739   8.221   1.735
 6374TIP3    H219000   4.786   8.116   1.834
 6375TIP3   OH219001   4.313   8.038   1.199
 6375TIP3    H119002   4.225   8.044   1.236
 6375TIP3    H219003   4.356   8.119   1.228
 6376TIP3   OH219004   5.047   7.809   1.768
 6376TIP3    H119005   5.034   7.804   1.863
 6376TIP3    H219006   5.131   7.765   1.753
 6377TIP3   OH219007   5.156   7.691   0.646
 6377TIP3    H119008   5.188   7.681   0.735
 6377TIP3    H219009   5.068   7.728   0.655
 6378TIP3   OH219010   5.318   8.293   1.822
 6378TIP3    H119011   5.248   8.232   1.845
 6378TIP3    H219012   5.278   8.354   1.759
 6379TIP3   OH219013   4.391   6.924   2.321
 6379TIP3    H119014   4.299   6.949   2.315
 6379TIP3    H219015   4.389   6.834   2.355
 6380TIP3   OH219016   5.221   7.618   0.931
 6380TIP3    H119017   5.208   7.542   0.989
 6380TIP3    H219018   5.315   7.632   0.931
 6381TIP3   OH219019   4.121   8.034   1.964
 6381TIP3    H119020   4.181   7.982   2.018
 6381TIP3    H219021   4.135   8.124   1.993
 6382TIP3   OH219022   4.392   7.722   0.673
 6382TIP3    H119023   4.409   7.630   0.654
 6382TIP3    H219024   4.410   7.732   0.767
 6383TIP3   OH219025   4.253   7.718   1.025
 6383TIP3    H119026   4.336   7.676   1.002
 6383TIP3    H219027   4.262   7.808   0.994
 6384TIP3   OH219028   4.068   7.347   1.173
 6384TIP3    H119029   4.010   7.392   1.234
 6384TIP3    H219030   4.075   7.406   1.098
 6385TIP3   OH219031   5.226   6.999   2.017
 6385TIP3    H119032   5.310   7.041   2.033
 6385TIP3    H219033   5.228   6.921   2.073
 6386TIP3   OH219034   5.139   6.725   1.235
 6386TIP3    H119035   5.104   6.733   1.146
 6386TIP3    H219036   5.177   6.811   1.253
 6387TIP3   OH219037   4.582   7.939   1.022
 6387TIP3    H119038   4.489   7.949   1.001
 6387TIP3    H219039   4.624   7.919   0.939
 6388TIP3   OH219040   4.771   6.923   1.290
 6388TIP3    H119041   4.831   6.995   1.270
 6388TIP3    H219042   4.793   6.898   1.380
 6389TIP3   OH219043   5.067   7.229   2.054
 6389TIP3    H119044   5.100   7.276   2.131
 6389TIP3    H219045   5.121   7.150   2.050
 6390TIP3   OH219046   4.936   6.623   1.386
 6390TIP3    H119047   4.911   6.700   1.436
 6390TIP3    H219048   5.014   6.649   1.338
 6391TIP3   OH219049   4.320   7.974   0.938
 6391TIP3    H119050   4.314   8.055   0.887
 6391TIP3    H219051   4.302   8.000   1.028
 6392TIP3   OH219052   4.456   6.643   1.230
 6392TIP3    H119053   4.452   6.736   1.252
 6392TIP3    H219054   4.549   6.624   1.221
 6393TIP3   OH219055   5.706   7.157   2.069
 6393TIP3    H119056   5.613   7.139   2.051
 6393TIP3    H219057   5.746   7.163   1.982
 6394TIP3   OH219058   5.353   7.331   1.460
 6394TIP3    H119059   5.276   7.273   1.462
 6394TIP3    H219060   5.417   7.287   1.515
 6395TIP3   OH219061   4.047   7.549   0.983
 6395TIP3    H119062   4.106   7.613   1.022
 6395TIP3    H219063   4.072   7.547   0.890
 6396TIP3   OH219064   4.022   6.850   1.027
 6396TIP3    H119065   4.008   6.943   1.045
 6396TIP3    H219066   3.957   6.829   0.959
 6397TIP3   OH219067   5.313   8.339   1.420
 6397TIP3    H119068   5.280   8.363   1.334
 6397TIP3    H219069   5.408   8.340   1.411
 6398TIP3   OH219070   4.400   6.556   1.915
 6398TIP3    H119071   4.372   6.525   1.829
 6398TIP3    H219072   4.392   6.480   1.972
 6399TIP3   OH219073   3.924   7.804   1.320
 6399TIP3    H119074   3.877   7.844   1.393
 6399TIP3    H219075   3.880   7.838   1.242
 6400TIP3   OH219076   4.113   8.353   2.363
 6400TIP3    H119077   4.191   8.344   2.419
 6400TIP3    H219078   4.084   8.263   2.348
 6401TIP3   OH219079   4.580   8.275   2.413
 6401TIP3    H119080   4.675   8.265   2.425
 6401TIP3    H219081   4.559   8.212   2.344
 6402TIP3   OH219082   4.577   7.891   0.534
 6402TIP3    H119083   4.534   7.805   0.538
 6402TIP3    H219084   4.638   7.884   0.460
 6403TIP3   OH219085   5.211   8.195   2.184
 6403TIP3    H119086   5.232   8.124   2.245
 6403TIP3    H219087   5.283   8.257   2.192
 6404TIP3   OH219088   4.225   7.743   2.558
 6404TIP3    H119089   4.240   7.649   2.571
 6404TIP3    H219090   4.137   7.748   2.519
 6405TIP3   OH219091   4.169   7.306   0.817
 6405TIP3    H119092   4.232   7.277   0.883
 6405TIP3    H219093   4.190   7.398   0.802
 6406TIP3   OH219094   4.831   7.824   2.360
 6406TIP3    H119095   4.797   7.848   2.274
 6406TIP3    H219096   4.877   7.741   2.346
 6407TIP3   OH219097   4.651   7.604   0.617
 6407TIP3    H119098   4.720   7.613   0.683
 6407TIP3    H219099   4.681   7.533   0.560
 6408TIP3   OH219100   5.319   7.870   1.960
 6408TIP3    H119101   5.398   7.894   1.912
 6408TIP3    H219102   5.259   7.943   1.945
 6409TIP3   OH219103   4.325   7.485   2.569
 6409TIP3    H119104   4.397   7.474   2.506
 6409TIP3    H219105   4.368   7.492   2.654
 6410TIP3   OH219106   4.363   7.243   0.999
 6410TIP3    H119107   4.350   7.231   1.093
 6410TIP3    H219108   4.410   7.164   0.970
 6411TIP3   OH219109   4.718   7.364   2.262
 6411TIP3    H119110   4.630   7.401   2.270
 6411TIP3    H219111   4.749   7.392   2.176
 6412TIP3   OH219112   4.490   7.014   0.903
 6412TIP3    H119113   4.501   6.986   0.812
 6412TIP3    H219114   4.579   7.032   0.933
 6413TIP3   OH219115   5.215   7.744   2.313
 6413TIP3    H119116   5.285   7.711   2.257
 6413TIP3    H219117   5.215   7.686   2.389
 6414TIP3   OH219118   5.272   7.448   0.473
 6414TIP3    H119119   5.289   7.372   0.417
 6414TIP3    H219120   5.305   7.523   0.424
 6415TIP3   OH219121   4.849   7.133   2.367
 6415TIP3    H119122   4.839   7.066   2.299
 6415TIP3    H219123   4.802   7.209   2.332
 6416TIP3   OH219124   4.823   6.950   2.149
 6416TIP3    H119125   4.853   6.985   2.065
 6416TIP3    H219126   4.733   6.921   2.132
 6417TIP3   OH219127   4.818   7.482   2.037
 6417TIP3    H119128   4.906   7.515   2.020
 6417TIP3    H219129   4.761   7.534   1.980
 6418TIP3   OH219130   5.415   7.445   2.367
 6418TIP3    H119131   5.436   7.352   2.353
 6418TIP3    H219132   5.499   7.490   2.357
 6419TIP3   OH219133   5.442   7.697   2.127
 6419TIP3    H119134   5.390   7.758   2.075
 6419TIP3    H219135   5.532   7.709   2.096
 6420TIP3   OH219136   4.692   7.259   2.676
 6420TIP3    H119137   4.631   7.188   2.654
 6420TIP3    H219138   4.675   7.325   2.609
 6421TIP3   OH219139   4.946   6.713   2.239
 6421TIP3    H119140   4.906   6.794   2.207
 6421TIP3    H219141   4.880   6.646   2.223
 6422TIP3   OH219142   5.120   7.168   2.425
 6422TIP3    H119143   5.115   7.183   2.519
 6422TIP3    H219144   5.029   7.153   2.398
 6423TIP3   OH219145   5.379   7.172   2.319
 6423TIP3    H119146   5.294   7.154   2.359
 6423TIP3    H219147   5.442   7.122   2.371
 6424TIP3   OH219148   5.564   7.053   2.482
 6424TIP3    H119149   5.586   6.961   2.497
 6424TIP3    H219150   5.561   7.091   2.570
 6425TIP3   OH219151   4.539   7.024   2.576
 6425TIP3    H119152   4.520   6.999   2.485
 6425TIP3    H219153   4.575   6.944   2.615
 6426TIP3   OH219154   5.015   6.678   2.501
 6426TIP3    H119155   5.084   6.611   2.497
 6426TIP3    H219156   4.986   6.688   2.411
 6427TIP3   OH219157   5.111   6.908   2.611
 6427TIP3    H119158   5.077   6.820   2.595
 6427TIP3    H219159   5.148   6.935   2.527
 6428TIP3   OH219160   4.304   7.987   0.592
 6428TIP3    H119161   4.375   7.938   0.633
 6428TIP3    H219162   4.348   8.048   0.533
 6429TIP3   OH219163   3.786   7.478   1.035
 6429TIP3    H119164   3.868   7.513   1.001
 6429TIP3    H219165   3.758   7.413   0.970
 6430TIP3   OH219166   3.722   8.120   1.398
 6430TIP3    H119167   3.656   8.066   1.354
 6430TIP3    H219168   3.766   8.059   1.458
 6431TIP3   OH219169   3.860   7.946   1.566
 6431TIP3    H119170   3.849   7.877   1.631
 6431TIP3    H219171   3.914   8.012   1.610
 6432TIP3   OH219172   5.585   8.361   1.400
 6432TIP3    H119173   5.618   8.351   1.489
 6432TIP3    H219174   5.621   8.445   1.370
 6433TIP3   OH219175   5.638   8.359   1.667
 6433TIP3    H119176   5.591   8.276   1.667
 6433TIP3    H219177   5.705   8.349   1.735
 6434TIP3   OH219178   5.686   8.087   2.224
 6434TIP3    H119179   5.616   8.099   2.288
 6434TIP3    H219180   5.732   8.171   2.223
 6435TIP3   OH219181   5.489   7.677   0.956
 6435TIP3    H119182   5.504   7.714   0.869
 6435TIP3    H219183   5.562   7.616   0.968
 6436TIP3   OH219184   5.646   7.474   1.083
 6436TIP3    H119185   5.596   7.519   1.151
 6436TIP3    H219186   5.737   7.495   1.104
 6437TIP3   OH219187   5.649   7.842   1.486
 6437TIP3    H119188   5.696   7.780   1.430
 6437TIP3    H219189   5.655   7.925   1.440
 6438TIP3   OH219190   5.484   8.134   1.670
 6438TIP3    H119191   5.419   8.185   1.719
 6438TIP3    H219192   5.434   8.093   1.600
 6439TIP3   OH219193   5.571   7.336   0.582
 6439TIP3    H119194   5.484   7.314   0.615
 6439TIP3    H219195   5.616   7.373   0.658
 6440TIP3   OH219196   5.413   6.997   0.612
 6440TIP3    H119197   5.467   7.023   0.537
 6440TIP3    H219198   5.415   6.902   0.611
 6441TIP3   OH219199   5.392   7.292   1.191
 6441TIP3    H119200   5.435   7.207   1.192
 6441TIP3    H219201   5.393   7.321   1.282
 6442TIP3   OH219202   4.045   7.374   1.940
 6442TIP3    H119203   4.037   7.349   1.848
 6442TIP3    H219204   4.139   7.372   1.957
 6443TIP3   OH219205   5.697   7.734   2.027
 6443TIP3    H119206   5.766   7.670   2.008
 6443TIP3    H219207   5.702   7.795   1.953
 6444TIP3   OH219208   5.875   7.525   2.019
 6444TIP3    H119209   5.804   7.488   2.071
 6444TIP3    H219210   5.952   7.473   2.043
 6445TIP3   OH219211   5.409   6.727   0.665
 6445TIP3    H119212   5.494   6.684   0.664
 6445TIP3    H219213   5.389   6.740   0.757
 6446TIP3   OH219214   5.501   7.045   1.141
 6446TIP3    H119215   5.520   6.951   1.148
 6446TIP3    H219216   5.587   7.086   1.130
 6447TIP3   OH219217   5.552   7.199   1.608
 6447TIP3    H119218   5.634   7.222   1.565
 6447TIP3    H219219   5.558   7.240   1.694
 6448TIP3   OH219220   5.633   7.369   1.824
 6448TIP3    H119221   5.559   7.406   1.872
 6448TIP3    H219222   5.666   7.442   1.772
 6449TIP3   OH219223   4.257   7.062   2.577
 6449TIP3    H119224   4.352   7.064   2.589
 6449TIP3    H219225   4.231   6.976   2.611
 6450TIP3   OH219226   6.112   6.956   2.336
 6450TIP3    H119227   6.179   6.904   2.293
 6450TIP3    H219228   6.074   7.009   2.265
 6451TIP3   OH219229   5.527   6.774   1.156
 6451TIP3    H119230   5.591   6.767   1.226
 6451TIP3    H219231   5.466   6.702   1.172
 6452TIP3   OH219232   4.246   6.785   1.951
 6452TIP3    H119233   4.298   6.705   1.948
 6452TIP3    H219234   4.308   6.854   1.927
 6453TIP3   OH219235   4.014   7.053   1.981
 6453TIP3    H119236   4.073   7.041   1.905
 6453TIP3    H219237   4.030   7.142   2.010
 6454TIP3   OH219238   5.957   7.073   2.144
 6454TIP3    H119239   5.870   7.113   2.154
 6454TIP3    H219240   5.942   6.998   2.087
 6455TIP3   OH219241   5.643   6.787   0.852
 6455TIP3    H119242   5.672   6.714   0.797
 6455TIP3    H219243   5.650   6.864   0.796
 6456TIP3   OH219244   3.999   6.543   1.473
 6456TIP3    H119245   3.920   6.554   1.526
 6456TIP3    H219246   3.993   6.612   1.407
 6457TIP3   OH219247   5.119   8.223   1.074
 6457TIP3    H119248   5.172   8.212   0.995
 6457TIP3    H219249   5.149   8.306   1.111
 6458TIP3   OH219250   4.254   6.655   2.336
 6458TIP3    H119251   4.200   6.620   2.407
 6458TIP3    H219252   4.192   6.686   2.270
 6459TIP3   OH219253   4.270   8.072   2.387
 6459TIP3    H119254   4.176   8.054   2.386
 6459TIP3    H219255   4.280   8.146   2.447
 6460TIP3   OH219256   4.488   8.110   1.942
 6460TIP3    H119257   4.432   8.180   1.908
 6460TIP3    H219258   4.569   8.118   1.893
 6461TIP3   OH219259   4.877   8.341   2.083
 6461TIP3    H119260   4.915   8.335   2.171
 6461TIP3    H219261   4.937   8.397   2.034
 6462TIP3   OH219262   5.061   8.504   1.959
 6462TIP3    H119263   5.122   8.468   1.894
 6462TIP3    H219264   5.116   8.562   2.013
 6463TIP3   OH219265   5.869   6.835   2.027
 6463TIP3    H119266   5.788   6.841   1.976
 6463TIP3    H219267   5.896   6.743   2.019
 6464TIP3   OH219268   4.137   8.319   2.000
 6464TIP3    H119269   4.058   8.349   1.955
 6464TIP3    H219270   4.160   8.390   2.059
 6465TIP3   OH219271   4.365   8.329   1.836
 6465TIP3    H119272   4.280   8.332   1.879
 6465TIP3    H219273   4.348   8.360   1.747
 6466TIP3   OH219274   4.787   8.360   1.630
 6466TIP3    H119275   4.712   8.367   1.571
 6466TIP3    H219276   4.798   8.448   1.666
 6467TIP3   OH219277   5.034   8.279   1.704
 6467TIP3    H119278   4.945   8.305   1.679
 6467TIP3    H219279   5.089   8.350   1.671
 6468TIP3   OH219280   5.218   8.470   1.634
 6468TIP3    H119281   5.216   8.561   1.604
 6468TIP3    H219282   5.248   8.420   1.558
 6469TIP3   OH219283   4.034   8.117   1.713
 6469TIP3    H119284   4.064   8.095   1.802
 6469TIP3    H219285   4.107   8.091   1.657
 6470TIP3   OH219286   4.238   8.012   1.568
 6470TIP3    H119287   4.252   7.926   1.605
 6470TIP3    H219288   4.324   8.054   1.570
 6471TIP3   OH219289   4.502   8.077   1.603
 6471TIP3    H119290   4.531   7.987   1.592
 6471TIP3    H219291   4.568   8.118   1.657
 6472TIP3   OH219292   5.073   6.745   1.681
 6472TIP3    H119293   5.032   6.673   1.729
 6472TIP3    H219294   5.141   6.704   1.628
 6473TIP3   OH219295   5.572   6.671   1.593
 6473TIP3    H119296   5.615   6.721   1.524
 6473TIP3    H219297   5.482   6.705   1.594
 6474TIP3   OH219298   5.699   6.749   1.365
 6474TIP3    H119299   5.772   6.693   1.339
 6474TIP3    H219300   5.731   6.838   1.353
 6475TIP3   OH219301   4.315   6.449   1.672
 6475TIP3    H119302   4.226   6.414   1.684
 6475TIP3    H219303   4.371   6.372   1.668
 6476TIP3   OH219304   4.102   6.339   1.324
 6476TIP3    H119305   4.152   6.381   1.254
 6476TIP3    H219306   4.078   6.411   1.383
 6477TIP3   OH219307   4.790   6.489   1.582
 6477TIP3    H119308   4.839   6.532   1.512
 6477TIP3    H219309   4.834   6.516   1.662
 6478TIP3   OH219310   5.281   6.619   1.554
 6478TIP3    H119311   5.318   6.590   1.470
 6478TIP3    H219312   5.294   6.545   1.613
 6479TIP3   OH219313   5.352   6.567   1.163
 6479TIP3    H119314   5.272   6.617   1.183
 6479TIP3    H219315   5.335   6.480   1.199
 6480TIP3   OH219316   3.802   7.907   1.092
 6480TIP3    H119317   3.714   7.878   1.066
 6480TIP3    H219318   3.801   8.001   1.078
 6481TIP3   OH219319   4.243   6.466   1.121
 6481TIP3    H119320   4.290   6.422   1.050
 6481TIP3    H219321   4.309   6.523   1.161
 6482TIP3   OH219322   4.735   6.666   1.196
 6482TIP3    H119323   4.796   6.628   1.259
 6482TIP3    H219324   4.745   6.761   1.206
 6483TIP3   OH219325   4.551   8.126   0.677
 6483TIP3    H119326   4.633   8.169   0.704
 6483TIP3    H219327   4.580   8.047   0.631
 6484TIP3   OH219328   5.318   8.171   0.892
 6484TIP3    H119329   5.354   8.093   0.934
 6484TIP3    H219330   5.306   8.145   0.801
 6485TIP3   OH219331   4.544   6.711   2.545
 6485TIP3    H119332   4.514   6.651   2.614
 6485TIP3    H219333   4.636   6.728   2.566
 6486TIP3   OH219334   4.791   6.742   2.652
 6486TIP3    H119335   4.870   6.714   2.605
 6486TIP3    H219336   4.790   6.689   2.731
 6487TIP3   OH219337   3.857   7.890   0.807
 6487TIP3    H119338   3.856   7.877   0.901
 6487TIP3    H219339   3.943   7.857   0.779
 6488TIP3   OH219340   5.645   6.782   2.484
 6488TIP3    H119341   5.681   6.710   2.536
 6488TIP3    H219342   5.716   6.805   2.423
 6489TIP3   OH219343   5.532   8.361   1.985
 6489TIP3    H119344   5.460   8.331   1.930
 6489TIP3    H219345   5.522   8.456   1.988
 6490TIP3   OH219346   6.717   7.769   1.228
 6490TIP3    H119347   6.809   7.769   1.203
 6490TIP3    H219348   6.688   7.679   1.213
 6491TIP3   OH219349   6.075   7.575   1.517
 6491TIP3    H119350   6.114   7.532   1.593
 6491TIP3    H219351   6.148   7.586   1.456
 6492TIP3   OH219352   5.933   7.939   1.249
 6492TIP3    H119353   5.976   7.853   1.249
 6492TIP3    H219354   6.000   7.999   1.281
 6493TIP3   OH219355   5.708   7.199   1.043
 6493TIP3    H119356   5.681   7.290   1.059
 6493TIP3    H219357   5.675   7.180   0.955
 6494TIP3   OH219358   5.889   7.535   1.176
 6494TIP3    H119359   5.925   7.458   1.221
 6494TIP3    H219360   5.962   7.596   1.169
 6495TIP3   OH219361   7.591   7.204   1.251
 6495TIP3    H119362   7.551   7.288   1.273
 6495TIP3    H219363   7.603   7.208   1.156
 6496TIP3   OH219364   6.972   7.519   1.309
 6496TIP3    H119365   7.062   7.490   1.322
 6496TIP3    H219366   6.974   7.569   1.227
 6497TIP3   OH219367   6.318   7.129   1.155
 6497TIP3    H119368   6.311   7.162   1.065
 6497TIP3    H219369   6.280   7.041   1.150
 6498TIP3   OH219370   6.908   7.233   0.769
 6498TIP3    H119371   6.967   7.213   0.842
 6498TIP3    H219372   6.953   7.198   0.692
 6499TIP3   OH219373   5.958   7.319   1.329
 6499TIP3    H119374   6.044   7.311   1.369
 6499TIP3    H219375   5.950   7.243   1.272
 6500TIP3   OH219376   6.497   7.626   0.991
 6500TIP3    H119377   6.572   7.609   1.048
 6500TIP3    H219378   6.491   7.549   0.935
 6501TIP3   OH219379   7.723   7.614   1.304
 6501TIP3    H119380   7.645   7.560   1.316
 6501TIP3    H219381   7.785   7.583   1.370
 6502TIP3   OH219382   6.387   7.828   1.441
 6502TIP3    H119383   6.343   7.902   1.483
 6502TIP3    H219384   6.392   7.852   1.349
 6503TIP3   OH219385   7.220   7.348   0.834
 6503TIP3    H119386   7.187   7.385   0.916
 6503TIP3    H219387   7.177   7.401   0.766
 6504TIP3   OH219388   6.211   7.225   1.395
 6504TIP3    H119389   6.279   7.268   1.446
 6504TIP3    H219390   6.257   7.186   1.321
 6505TIP3   OH219391   6.280   8.054   1.538
 6505TIP3    H119392   6.308   8.126   1.483
 6505TIP3    H219393   6.191   8.076   1.564
 6506TIP3   OH219394   5.728   7.735   0.799
 6506TIP3    H119395   5.682   7.782   0.730
 6506TIP3    H219396   5.734   7.797   0.872
 6507TIP3   OH219397   7.171   8.366   0.847
 6507TIP3    H119398   7.178   8.271   0.845
 6507TIP3    H219399   7.102   8.387   0.785
 6508TIP3   OH219400   7.410   7.139   1.459
 6508TIP3    H119401   7.316   7.136   1.441
 6508TIP3    H219402   7.451   7.152   1.373
 6509TIP3   OH219403   6.747   6.727   1.308
 6509TIP3    H119404   6.733   6.644   1.354
 6509TIP3    H219405   6.698   6.791   1.360
 6510TIP3   OH219406   7.245   8.199   1.380
 6510TIP3    H119407   7.329   8.222   1.341
 6510TIP3    H219408   7.190   8.173   1.306
 6511TIP3   OH219409   7.448   7.843   1.051
 6511TIP3    H119410   7.479   7.900   1.121
 6511TIP3    H219411   7.432   7.902   0.977
 6512TIP3   OH219412   7.166   7.674   1.528
 6512TIP3    H119413   7.200   7.746   1.582
 6512TIP3    H219414   7.076   7.698   1.509
 6513TIP3   OH219415   6.235   7.686   0.971
 6513TIP3    H119416   6.195   7.609   0.930
 6513TIP3    H219417   6.329   7.667   0.972
 6514TIP3   OH219418   6.355   8.118   1.124
 6514TIP3    H119419   6.333   8.044   1.068
 6514TIP3    H219420   6.445   8.141   1.100
 6515TIP3   OH219421   6.285   7.595   1.342
 6515TIP3    H119422   6.340   7.549   1.279
 6515TIP3    H219423   6.338   7.672   1.367
 6516TIP3   OH219424   6.454   8.161   1.720
 6516TIP3    H119425   6.392   8.227   1.750
 6516TIP3    H219426   6.400   8.099   1.670
 6517TIP3   OH219427   6.253   7.745   1.781
 6517TIP3    H119428   6.253   7.840   1.792
 6517TIP3    H219429   6.161   7.723   1.763
 6518TIP3   OH219430   6.258   8.350   1.744
 6518TIP3    H119431   6.220   8.356   1.656
 6518TIP3    H219432   6.183   8.339   1.802
 6519TIP3   OH219433   6.228   7.461   0.817
 6519TIP3    H119434   6.297   7.472   0.753
 6519TIP3    H219435   6.148   7.453   0.765
 6520TIP3   OH219436   5.870   7.900   1.657
 6520TIP3    H119437   5.800   7.874   1.597
 6520TIP3    H219438   5.911   7.817   1.684
 6521TIP3   OH219439   5.720   8.074   1.360
 6521TIP3    H119440   5.790   8.031   1.310
 6521TIP3    H219441   5.759   8.156   1.390
 6522TIP3   OH219442   7.640   8.584   1.255
 6522TIP3    H119443   7.676   8.508   1.209
 6522TIP3    H219444   7.618   8.550   1.342
 6523TIP3   OH219445   6.604   8.320   1.555
 6523TIP3    H119446   6.604   8.413   1.578
 6523TIP3    H219447   6.550   8.278   1.623
 6524TIP3   OH219448   5.942   8.271   0.801
 6524TIP3    H119449   5.968   8.242   0.889
 6524TIP3    H219450   5.902   8.194   0.761
 6525TIP3   OH219451   7.470   7.636   1.683
 6525TIP3    H119452   7.431   7.642   1.595
 6525TIP3    H219453   7.489   7.542   1.694
 6526TIP3   OH219454   6.032   8.119   1.638
 6526TIP3    H119455   6.074   8.117   1.724
 6526TIP3    H219456   5.973   8.044   1.638
 6527TIP3   OH219457   7.000   7.009   1.659
 6527TIP3    H119458   7.070   6.984   1.721
 6527TIP3    H219459   6.919   6.986   1.705
 6528TIP3   OH219460   7.251   7.434   1.605
 6528TIP3    H119461   7.196   7.414   1.680
 6528TIP3    H219462   7.219   7.518   1.573
 6529TIP3   OH219463   6.392   7.407   1.509
 6529TIP3    H119464   6.347   7.413   1.594
 6529TIP3    H219465   6.348   7.472   1.454
 6530TIP3   OH219466   6.299   7.209   0.887
 6530TIP3    H119467   6.267   7.299   0.877
 6530TIP3    H219468   6.330   7.185   0.800
 6531TIP3   OH219469   6.942   7.646   1.790
 6531TIP3    H119470   6.912   7.578   1.850
 6531TIP3    H219471   7.035   7.658   1.811
 6532TIP3   OH219472   6.846   7.473   0.912
 6532TIP3    H119473   6.791   7.515   0.846
 6532TIP3    H219474   6.879   7.394   0.870
 6533TIP3   OH219475   6.220   7.445   1.717
 6533TIP3    H119476   6.243   7.501   1.792
 6533TIP3    H219477   6.205   7.359   1.756
 6534TIP3   OH219478   5.782   6.998   1.305
 6534TIP3    H119479   5.852   7.030   1.363
 6534TIP3    H219480   5.817   7.009   1.217
 6535TIP3   OH219481   5.703   6.975   0.643
 6535TIP3    H119482   5.758   7.012   0.575
 6535TIP3    H219483   5.672   7.051   0.693
 6536TIP3   OH219484   6.909   7.734   1.467
 6536TIP3    H119485   6.916   7.651   1.418
 6536TIP3    H219486   6.825   7.728   1.511
 6537TIP3   OH219487   6.571   7.156   1.247
 6537TIP3    H119488   6.482   7.143   1.214
 6537TIP3    H219489   6.582   7.088   1.314
 6538TIP3   OH219490   6.009   7.111   1.164
 6538TIP3    H119491   6.019   7.091   1.071
 6538TIP3    H219492   6.050   7.036   1.209
 6539TIP3   OH219493   6.360   7.148   0.626
 6539TIP3    H119494   6.407   7.092   0.564
 6539TIP3    H219495   6.278   7.170   0.580
 6540TIP3   OH219496   7.148   7.114   1.380
 6540TIP3    H119497   7.102   7.176   1.437
 6540TIP3    H219498   7.080   7.057   1.346
 6541TIP3   OH219499   7.243   8.879   1.449
 6541TIP3    H119500   7.198   8.810   1.400
 6541TIP3    H219501   7.303   8.919   1.386
 6542TIP3   OH219502   6.227   8.010   1.870
 6542TIP3    H119503   6.308   8.026   1.919
 6542TIP3    H219504   6.157   8.019   1.936
 6543TIP3   OH219505   6.695   7.513   1.142
 6543TIP3    H119506   6.760   7.491   1.075
 6543TIP3    H219507   6.713   7.452   1.214
 6544TIP3   OH219508   6.200   6.890   1.103
 6544TIP3    H119509   6.165   6.804   1.127
 6544TIP3    H219510   6.146   6.917   1.028
 6545TIP3   OH219511   6.647   7.400   1.415
 6545TIP3    H119512   6.559   7.411   1.451
 6545TIP3    H219513   6.705   7.443   1.478
 6546TIP3   OH219514   7.318   8.083   1.124
 6546TIP3    H119515   7.266   8.093   1.044
 6546TIP3    H219516   7.290   7.999   1.160
 6547TIP3   OH219517   6.818   8.093   1.613
 6547TIP3    H119518   6.866   8.070   1.692
 6547TIP3    H219519   6.763   8.017   1.596
 6548TIP3   OH219520   6.088   7.720   1.197
 6548TIP3    H119521   6.134   7.723   1.113
 6548TIP3    H219522   6.150   7.679   1.257
 6549TIP3   OH219523   5.973   7.680   1.797
 6549TIP3    H119524   5.981   7.657   1.889
 6549TIP3    H219525   5.904   7.622   1.764
 6550TIP3   OH219526   6.715   7.808   1.820
 6550TIP3    H119527   6.647   7.748   1.792
 6550TIP3    H219528   6.797   7.766   1.794
 6551TIP3   OH219529   7.533   8.157   1.464
 6551TIP3    H119530   7.521   8.246   1.497
 6551TIP3    H219531   7.628   8.150   1.449
 6552TIP3   OH219532   6.927   7.911   0.891
 6552TIP3    H119533   6.903   7.873   0.976
 6552TIP3    H219534   6.975   7.841   0.846
 6553TIP3   OH219535   6.278   8.209   0.849
 6553TIP3    H119536   6.256   8.208   0.756
 6553TIP3    H219537   6.299   8.118   0.869
 6554TIP3   OH219538   5.827   7.328   0.481
 6554TIP3    H119539   5.848   7.405   0.427
 6554TIP3    H219540   5.739   7.344   0.513
 6555TIP3   OH219541   6.307   7.731   0.671
 6555TIP3    H119542   6.283   7.773   0.588
 6555TIP3    H219543   6.224   7.710   0.713
 6556TIP3   OH219544   6.430   8.512   1.378
 6556TIP3    H119545   6.446   8.521   1.284
 6556TIP3    H219546   6.510   8.547   1.418
 6557TIP3   OH219547   7.101   8.707   1.301
 6557TIP3    H119548   7.065   8.620   1.284
 6557TIP3    H219549   7.067   8.762   1.231
 6558TIP3   OH219550   6.175   7.194   1.818
 6558TIP3    H119551   6.084   7.166   1.814
 6558TIP3    H219552   6.224   7.115   1.841
 6559TIP3   OH219553   5.888   8.296   1.451
 6559TIP3    H119554   5.943   8.243   1.508
 6559TIP3    H219555   5.884   8.381   1.495
 6560TIP3   OH219556   5.807   7.629   0.558
 6560TIP3    H119557   5.807   7.666   0.646
 6560TIP3    H219558   5.867   7.683   0.508
 6561TIP3   OH219559   7.008   7.264   1.573
 6561TIP3    H119560   7.046   7.297   1.654
 6561TIP3    H219561   6.987   7.173   1.590
 6562TIP3   OH219562   6.643   7.257   0.640
 6562TIP3    H119563   6.732   7.270   0.671
 6562TIP3    H219564   6.608   7.188   0.696
 6563TIP3   OH219565   6.830   7.479   1.596
 6563TIP3    H119566   6.874   7.540   1.656
 6563TIP3    H219567   6.893   7.409   1.582
 6564TIP3   OH219568   6.831   6.971   0.863
 6564TIP3    H119569   6.794   6.972   0.951
 6564TIP3    H219570   6.823   7.061   0.833
 6565TIP3   OH219571   6.218   6.876   0.646
 6565TIP3    H119572   6.203   6.964   0.612
 6565TIP3    H219573   6.313   6.864   0.642
 6566TIP3   OH219574   7.499   7.345   1.623
 6566TIP3    H119575   7.410   7.375   1.637
 6566TIP3    H219576   7.490   7.257   1.587
 6567TIP3   OH219577   7.085   7.696   0.840
 6567TIP3    H119578   7.056   7.624   0.783
 6567TIP3    H219579   7.179   7.682   0.850
 6568TIP3   OH219580   5.860   7.050   0.434
 6568TIP3    H119581   5.842   7.141   0.408
 6568TIP3    H219582   5.842   6.999   0.356
 6569TIP3   OH219583   6.133   6.812   1.418
 6569TIP3    H119584   6.134   6.764   1.335
 6569TIP3    H219585   6.179   6.755   1.480
 6570TIP3   OH219586   5.699   7.967   0.944
 6570TIP3    H119587   5.734   8.025   1.011
 6570TIP3    H219588   5.665   8.025   0.876
 6571TIP3   OH219589   5.937   8.598   1.872
 6571TIP3    H119590   6.012   8.601   1.932
 6571TIP3    H219591   5.927   8.505   1.851
 6572TIP3   OH219592   6.383   8.501   1.940
 6572TIP3    H119593   6.477   8.481   1.935
 6572TIP3    H219594   6.345   8.455   1.865
 6573TIP3   OH219595   7.047   8.432   1.707
 6573TIP3    H119596   7.022   8.364   1.770
 6573TIP3    H219597   7.106   8.489   1.755
 6574TIP3   OH219598   6.020   8.001   2.057
 6574TIP3    H119599   6.040   7.908   2.065
 6574TIP3    H219600   5.935   8.003   2.014
 6575TIP3   OH219601   6.665   8.081   1.870
 6575TIP3    H119602   6.603   8.100   1.800
 6575TIP3    H219603   6.696   7.992   1.851
 6576TIP3   OH219604   7.163   8.106   1.653
 6576TIP3    H119605   7.227   8.177   1.651
 6576TIP3    H219606   7.121   8.110   1.566
 6577TIP3   OH219607   6.136   7.746   2.053
 6577TIP3    H119608   6.208   7.742   1.990
 6577TIP3    H219609   6.180   7.765   2.137
 6578TIP3   OH219610   6.513   7.637   1.720
 6578TIP3    H119611   6.426   7.675   1.728
 6578TIP3    H219612   6.544   7.666   1.635
 6579TIP3   OH219613   6.970   7.999   1.826
 6579TIP3    H119614   7.051   8.025   1.781
 6579TIP3    H219615   6.999   7.938   1.894
 6580TIP3   OH219616   6.597   7.392   1.820
 6580TIP3    H119617   6.592   7.322   1.756
 6580TIP3    H219618   6.571   7.471   1.772
 6581TIP3   OH219619   6.602   7.194   1.616
 6581TIP3    H119620   6.624   7.250   1.542
 6581TIP3    H219621   6.565   7.115   1.575
 6582TIP3   OH219622   6.637   7.751   1.495
 6582TIP3    H119623   6.674   7.761   1.407
 6582TIP3    H219624   6.550   7.791   1.489
 6583TIP3   OH219625   7.210   7.664   1.880
 6583TIP3    H119626   7.279   7.598   1.881
 6583TIP3    H219627   7.241   7.730   1.818
 6584TIP3   OH219628   7.264   7.863   1.701
 6584TIP3    H119629   7.220   7.944   1.676
 6584TIP3    H219630   7.354   7.874   1.669
 6585TIP3   OH219631   6.494   7.475   2.066
 6585TIP3    H119632   6.426   7.411   2.085
 6585TIP3    H219633   6.521   7.455   1.976
 6586TIP3   OH219634   6.730   6.971   1.720
 6586TIP3    H119635   6.698   7.060   1.709
 6586TIP3    H219636   6.690   6.921   1.649
 6587TIP3   OH219637   6.851   7.430   1.929
 6587TIP3    H119638   6.831   7.415   2.022
 6587TIP3    H219639   6.768   7.411   1.884
 6588TIP3   OH219640   7.095   7.362   1.817
 6588TIP3    H119641   7.014   7.379   1.865
 6588TIP3    H219642   7.164   7.362   1.884
 6589TIP3   OH219643   7.369   7.374   1.940
 6589TIP3    H119644   7.372   7.279   1.946
 6589TIP3    H219645   7.359   7.404   2.030
 6590TIP3   OH219646   6.322   7.266   2.131
 6590TIP3    H119647   6.325   7.181   2.087
 6590TIP3    H219648   6.363   7.250   2.216
 6591TIP3   OH219649   6.798   6.941   1.984
 6591TIP3    H119650   6.867   6.875   1.976
 6591TIP3    H219651   6.762   6.950   1.896
 6592TIP3   OH219652   6.899   7.154   2.131
 6592TIP3    H119653   6.868   7.084   2.075
 6592TIP3    H219654   6.827   7.217   2.135
 6593TIP3   OH219655   5.464   8.400   0.895
 6593TIP3    H119656   5.416   8.319   0.914
 6593TIP3    H219657   5.493   8.432   0.981
 6594TIP3   OH219658   5.734   8.210   1.073
 6594TIP3    H119659   5.649   8.207   1.117
 6594TIP3    H219660   5.775   8.290   1.107
 6595TIP3   OH219661   7.428   8.635   1.075
 6595TIP3    H119662   7.351   8.581   1.088
 6595TIP3    H219663   7.485   8.615   1.150
 6596TIP3   OH219664   7.377   8.295   1.714
 6596TIP3    H119665   7.335   8.323   1.796
 6596TIP3    H219666   7.423   8.373   1.683
 6597TIP3   OH219667   7.217   8.455   1.095
 6597TIP3    H119668   7.131   8.478   1.130
 6597TIP3    H219669   7.201   8.434   1.003
 6598TIP3   OH219670   5.828   7.637   1.426
 6598TIP3    H119671   5.825   7.606   1.336
 6598TIP3    H219672   5.919   7.622   1.453
 6599TIP3   OH219673   7.511   7.948   1.631
 6599TIP3    H119674   7.584   7.892   1.606
 6599TIP3    H219675   7.508   8.015   1.563
 6600TIP3   OH219676   7.696   7.757   1.582
 6600TIP3    H119677   7.618   7.708   1.605
 6600TIP3    H219678   7.761   7.732   1.649
 6601TIP3   OH219679   7.498   7.433   1.047
 6601TIP3    H119680   7.565   7.496   1.018
 6601TIP3    H219681   7.445   7.482   1.110
 6602TIP3   OH219682   7.363   7.626   1.182
 6602TIP3    H119683   7.384   7.652   1.272
 6602TIP3    H219684   7.396   7.699   1.129
 6603TIP3   OH219685   6.055   7.325   2.073
 6603TIP3    H119686   6.151   7.319   2.080
 6603TIP3    H219687   6.024   7.241   2.107
 6604TIP3   OH219688   7.909   7.217   1.856
 6604TIP3    H119689   7.961   7.141   1.828
 6604TIP3    H219690   7.898   7.268   1.776
 6605TIP3   OH219691   6.007   7.045   1.468
 6605TIP3    H119692   6.051   6.961   1.457
 6605TIP3    H219693   6.076   7.111   1.458
 6606TIP3   OH219694   5.788   7.317   1.543
 6606TIP3    H119695   5.844   7.313   1.465
 6606TIP3    H219696   5.796   7.408   1.572
 6607TIP3   OH219697   7.774   7.322   1.635
 6607TIP3    H119698   7.687   7.351   1.661
 6607TIP3    H219699   7.760   7.238   1.592
 6608TIP3   OH219700   5.837   6.862   1.037
 6608TIP3    H119701   5.746   6.847   1.010
 6608TIP3    H219702   5.881   6.890   0.957
 6609TIP3   OH219703   6.050   6.879   1.815
 6609TIP3    H119704   5.996   6.869   1.894
 6609TIP3    H219705   5.991   6.917   1.750
 6610TIP3   OH219706   6.048   8.318   1.913
 6610TIP3    H119707   5.954   8.301   1.902
 6610TIP3    H219708   6.062   8.311   2.008
 6611TIP3   OH219709   6.182   8.354   1.476
 6611TIP3    H119710   6.146   8.431   1.433
 6611TIP3    H219711   6.272   8.347   1.443
 6612TIP3   OH219712   6.642   8.594   1.583
 6612TIP3    H119713   6.692   8.586   1.664
 6612TIP3    H219714   6.704   8.629   1.519
 6613TIP3   OH219715   6.895   8.665   1.484
 6613TIP3    H119716   6.975   8.686   1.436
 6613TIP3    H219717   6.871   8.747   1.527
 6614TIP3   OH219718   7.632   7.052   1.601
 6614TIP3    H119719   7.545   7.057   1.561
 6614TIP3    H219720   7.659   6.961   1.588
 6615TIP3   OH219721   5.885   8.575   1.531
 6615TIP3    H119722   5.804   8.593   1.484
 6615TIP3    H219723   5.895   8.649   1.591
 6616TIP3   OH219724   6.073   8.563   1.336
 6616TIP3    H119725   6.016   8.582   1.410
 6616TIP3    H219726   6.016   8.523   1.271
 6617TIP3   OH219727   6.696   8.664   0.954
 6617TIP3    H119728   6.607   8.648   0.923
 6617TIP3    H219729   6.703   8.759   0.960
 6618TIP3   OH219730   6.937   8.557   0.949
 6618TIP3    H119731   6.846   8.584   0.941
 6618TIP3    H219732   6.964   8.588   1.035
 6619TIP3   OH219733   7.189   8.725   0.923
 6619TIP3    H119734   7.119   8.775   0.966
 6619TIP3    H219735   7.146   8.645   0.893
 6620TIP3   OH219736   5.893   8.408   1.193
 6620TIP3    H119737   5.882   8.366   1.278
 6620TIP3    H219738   5.953   8.350   1.145
 6621TIP3   OH219739   6.032   8.193   1.047
 6621TIP3    H119740   6.039   8.159   1.136
 6621TIP3    H219741   6.106   8.253   1.038
 6622TIP3   OH219742   6.227   8.366   1.115
 6622TIP3    H119743   6.278   8.286   1.107
 6622TIP3    H219744   6.292   8.434   1.133
 6623TIP3   OH219745   6.939   6.969   1.275
 6623TIP3    H119746   6.848   6.982   1.251
 6623TIP3    H219747   6.986   6.967   1.192
 6624TIP3   OH219748   7.406   6.956   0.948
 6624TIP3    H119749   7.497   6.930   0.935
 6624TIP3    H219750   7.392   6.948   1.043
 6625TIP3   OH219751   7.588   7.049   0.695
 6625TIP3    H119752   7.624   6.990   0.761
 6625TIP3    H219753   7.548   7.119   0.747
 6626TIP3   OH219754   6.108   6.651   1.190
 6626TIP3    H119755   6.019   6.625   1.211
 6626TIP3    H219756   6.160   6.571   1.200
 6627TIP3   OH219757   5.881   6.600   0.932
 6627TIP3    H119758   5.964   6.628   0.893
 6627TIP3    H219759   5.853   6.675   0.985
 6628TIP3   OH219760   6.465   6.704   1.219
 6628TIP3    H119761   6.443   6.774   1.158
 6628TIP3    H219762   6.479   6.748   1.302
 6629TIP3   OH219763   7.106   6.981   1.063
 6629TIP3    H119764   7.126   7.000   0.971
 6629TIP3    H219765   7.143   6.894   1.078
 6630TIP3   OH219766   6.001   6.733   0.553
 6630TIP3    H119767   6.019   6.667   0.487
 6630TIP3    H219768   6.087   6.766   0.579
 6631TIP3   OH219769   6.492   6.868   0.680
 6631TIP3    H119770   6.552   6.810   0.728
 6631TIP3    H219771   6.521   6.956   0.703
 6632TIP3   OH219772   6.348   6.996   2.045
 6632TIP3    H119773   6.314   6.925   2.100
 6632TIP3    H219774   6.439   7.005   2.071
 6633TIP3   OH219775   6.594   6.999   2.170
 6633TIP3    H119776   6.668   6.975   2.114
 6633TIP3    H219777   6.588   6.927   2.233
 6634TIP3   OH219778   7.402   7.098   1.962
 6634TIP3    H119779   7.410   7.069   2.053
 6634TIP3    H219780   7.492   7.095   1.928
 6635TIP3   OH219781   7.345   8.590   1.346
 6635TIP3    H119782   7.301   8.541   1.416
 6635TIP3    H219783   7.275   8.644   1.307
 6636TIP3   OH219784   8.215   7.487   1.014
 6636TIP3    H119785   8.180   7.405   0.980
 6636TIP3    H219786   8.170   7.499   1.097
 6637TIP3   OH219787   8.013   8.024   1.256
 6637TIP3    H119788   8.089   8.081   1.249
 6637TIP3    H219789   7.956   8.052   1.184
 6638TIP3   OH219790   7.806   8.092   1.070
 6638TIP3    H119791   7.719   8.130   1.057
 6638TIP3    H219792   7.788   8.001   1.094
 6639TIP3   OH219793   7.942   8.316   0.995
 6639TIP3    H119794   8.002   8.333   1.068
 6639TIP3    H219795   7.898   8.234   1.018
 6640TIP3   OH219796   8.878   7.344   1.082
 6640TIP3    H119797   8.940   7.308   1.146
 6640TIP3    H219798   8.835   7.267   1.045
 6641TIP3   OH219799   8.045   7.746   1.066
 6641TIP3    H119800   8.074   7.749   1.157
 6641TIP3    H219801   7.989   7.669   1.062
 6642TIP3   OH219802   8.047   8.193   1.521
 6642TIP3    H119803   8.022   8.219   1.433
 6642TIP3    H219804   7.966   8.195   1.571
 6643TIP3   OH219805   7.796   7.852   1.202
 6643TIP3    H119806   7.881   7.862   1.246
 6643TIP3    H219807   7.767   7.764   1.226
 6644TIP3   OH219808   8.066   7.506   1.243
 6644TIP3    H119809   7.975   7.479   1.229
 6644TIP3    H219810   8.094   7.458   1.320
 6645TIP3   OH219811   7.871   7.087   0.805
 6645TIP3    H119812   7.890   7.047   0.721
 6645TIP3    H219813   7.956   7.099   0.847
 6646TIP3   OH219814   7.768   8.865   1.494
 6646TIP3    H119815   7.832   8.862   1.423
 6646TIP3    H219816   7.686   8.837   1.454
 6647TIP3   OH219817   7.815   8.261   1.656
 6647TIP3    H119818   7.762   8.206   1.714
 6647TIP3    H219819   7.753   8.323   1.619
 6648TIP3   OH219820   7.885   7.978   1.667
 6648TIP3    H119821   7.933   7.905   1.628
 6648TIP3    H219822   7.947   8.018   1.728
 6649TIP3   OH219823   8.278   7.912   1.084
 6649TIP3    H119824   8.261   7.882   1.173
 6649TIP3    H219825   8.196   7.897   1.037
 6650TIP3   OH219826   8.452   7.635   1.363
 6650TIP3    H119827   8.471   7.554   1.316
 6650TIP3    H219828   8.370   7.667   1.324
 6651TIP3   OH219829   8.437   7.849   1.537
 6651TIP3    H119830   8.349   7.887   1.537
 6651TIP3    H219831   8.430   7.770   1.482
 6652TIP3   OH219832   8.603   7.214   1.247
 6652TIP3    H119833   8.561   7.296   1.220
 6652TIP3    H219834   8.554   7.146   1.201
 6653TIP3   OH219835   8.689   7.810   1.404
 6653TIP3    H119836   8.611   7.839   1.453
 6653TIP3    H219837   8.654   7.752   1.336
 6654TIP3   OH219838   8.058   7.472   1.758
 6654TIP3    H119839   8.104   7.465   1.674
 6654TIP3    H219840   8.128   7.464   1.823
 6655TIP3   OH219841   8.651   7.186   1.516
 6655TIP3    H119842   8.728   7.131   1.500
 6655TIP3    H219843   8.626   7.219   1.430
 6656TIP3   OH219844   8.582   7.331   1.733
 6656TIP3    H119845   8.618   7.272   1.667
 6656TIP3    H219846   8.590   7.418   1.694
 6657TIP3   OH219847   7.855   7.650   1.778
 6657TIP3    H119848   7.921   7.582   1.764
 6657TIP3    H219849   7.781   7.603   1.816
 6658TIP3   OH219850   7.802   7.349   0.730
 6658TIP3    H119851   7.814   7.255   0.738
 6658TIP3    H219852   7.863   7.375   0.660
 6659TIP3   OH219853   7.599   7.532   0.766
 6659TIP3    H119854   7.666   7.466   0.754
 6659TIP3    H219855   7.638   7.595   0.827
 6660TIP3   OH219856   7.827   7.102   1.419
 6660TIP3    H119857   7.762   7.066   1.478
 6660TIP3    H219858   7.777   7.143   1.349
 6661TIP3   OH219859   7.905   8.546   1.410
 6661TIP3    H119860   7.812   8.558   1.427
 6661TIP3    H219861   7.949   8.569   1.492
 6662TIP3   OH219862   8.133   7.170   1.607
 6662TIP3    H119863   8.091   7.108   1.667
 6662TIP3    H219864   8.213   7.198   1.653
 6663TIP3   OH219865   8.336   7.227   1.783
 6663TIP3    H119866   8.430   7.241   1.778
 6663TIP3    H219867   8.326   7.146   1.832
 6664TIP3   OH219868   9.289   7.258   1.437
 6664TIP3    H119869   9.210   7.225   1.479
 6664TIP3    H219870   9.327   7.320   1.500
 6665TIP3   OH219871   0.357   8.021   3.519
 6665TIP3    H119872   0.420   7.959   3.482
 6665TIP3    H219873   0.305   8.050   3.444
 6666TIP3   OH219874   0.194   8.102   3.309
 6666TIP3    H119875   0.111   8.123   3.352
 6666TIP3    H219876   0.173   8.028   3.251
 6667TIP3   OH219877   0.122   7.878   3.158
 6667TIP3    H119878   0.031   7.849   3.165
 6667TIP3    H219879   0.173   7.798   3.163
 6668TIP3   OH219880   1.904   8.306   2.331
 6668TIP3    H119881   1.927   8.388   2.375
 6668TIP3    H219882   1.935   8.318   2.242
 6669TIP3   OH219883   1.291   8.486   2.344
 6669TIP3    H119884   1.320   8.400   2.375
 6669TIP3    H219885   1.232   8.467   2.271
 6670TIP3   OH219886   1.322   8.223   1.984
 6670TIP3    H119887   1.381   8.198   2.055
 6670TIP3    H219888   1.374   8.282   1.930
 6671TIP3   OH219889   1.992   8.525   2.480
 6671TIP3    H119890   1.991   8.601   2.421
 6671TIP3    H219891   2.021   8.560   2.564
 6672TIP3   OH219892   0.595   8.152   2.750
 6672TIP3    H119893   0.543   8.176   2.673
 6672TIP3    H219894   0.536   8.166   2.824
 6673TIP3   OH219895   1.499   8.207   2.189
 6673TIP3    H119896   1.451   8.213   2.272
 6673TIP3    H219897   1.555   8.284   2.188
 6674TIP3   OH219898   0.485   8.237   2.510
 6674TIP3    H119899   0.543   8.313   2.516
 6674TIP3    H219900   0.475   8.222   2.416
 6675TIP3   OH219901   1.703   8.183   2.490
 6675TIP3    H119902   1.619   8.215   2.458
 6675TIP3    H219903   1.768   8.220   2.429
 6676TIP3   OH219904   0.961   7.855   2.506
 6676TIP3    H119905   0.951   7.762   2.528
 6676TIP3    H219906   0.882   7.896   2.540
 6677TIP3   OH219907   1.596   8.829   2.599
 6677TIP3    H119908   1.554   8.914   2.584
 6677TIP3    H219909   1.531   8.765   2.571
 6678TIP3   OH219910   1.627   7.810   1.584
 6678TIP3    H119911   1.549   7.828   1.635
 6678TIP3    H219912   1.636   7.885   1.526
 6679TIP3   OH219913   1.800   8.669   2.726
 6679TIP3    H119914   1.717   8.714   2.706
 6679TIP3    H219915   1.775   8.578   2.736
 6680TIP3   OH219916   0.713   7.938   2.613
 6680TIP3    H119917   0.633   7.904   2.574
 6680TIP3    H219918   0.687   8.019   2.655
 6681TIP3   OH219919   1.260   8.069   2.823
 6681TIP3    H119920   1.331   8.036   2.879
 6681TIP3    H219921   1.180   8.043   2.869
 6682TIP3   OH219922   1.473   8.492   2.782
 6682TIP3    H119923   1.446   8.460   2.868
 6682TIP3    H219924   1.472   8.588   2.790
 6683TIP3   OH219925   0.623   8.475   2.580
 6683TIP3    H119926   0.566   8.468   2.657
 6683TIP3    H219927   0.582   8.543   2.526
 6684TIP3   OH219928   1.201   8.674   2.930
 6684TIP3    H119929   1.198   8.627   3.013
 6684TIP3    H219930   1.294   8.688   2.913
 6685TIP3   OH219931   1.140   8.388   2.142
 6685TIP3    H119932   1.093   8.450   2.087
 6685TIP3    H219933   1.188   8.333   2.080
 6686TIP3   OH219934   0.490   8.462   2.825
 6686TIP3    H119935   0.415   8.514   2.854
 6686TIP3    H219936   0.486   8.382   2.878
 6687TIP3   OH219937   1.185   8.761   2.424
 6687TIP3    H119938   1.206   8.707   2.348
 6687TIP3    H219939   1.258   8.747   2.484
 6688TIP3   OH219940   0.942   8.119   2.174
 6688TIP3    H119941   0.903   8.206   2.183
 6688TIP3    H219942   1.003   8.113   2.248
 6689TIP3   OH219943   1.351   8.229   2.424
 6689TIP3    H119944   1.333   8.250   2.516
 6689TIP3    H219945   1.280   8.171   2.398
 6690TIP3   OH219946   0.904   8.372   2.301
 6690TIP3    H119947   0.992   8.386   2.267
 6690TIP3    H219948   0.916   8.366   2.396
 6691TIP3   OH219949   0.888   8.370   2.578
 6691TIP3    H119950   0.805   8.417   2.577
 6691TIP3    H219951   0.948   8.426   2.626
 6692TIP3   OH219952   1.022   8.839   3.081
 6692TIP3    H119953   0.935   8.837   3.040
 6692TIP3    H219954   1.081   8.805   3.013
 6693TIP3   OH219955   0.464   8.234   2.992
 6693TIP3    H119956   0.403   8.273   3.054
 6693TIP3    H219957   0.506   8.163   3.041
 6694TIP3   OH219958   1.292   8.301   2.681
 6694TIP3    H119959   1.366   8.346   2.724
 6694TIP3    H219960   1.279   8.222   2.733
 6695TIP3   OH219961   1.174   8.105   1.796
 6695TIP3    H119962   1.230   8.112   1.718
 6695TIP3    H219963   1.222   8.150   1.865
 6696TIP3   OH219964   1.094   8.496   2.720
 6696TIP3    H119965   1.120   8.531   2.805
 6696TIP3    H219966   1.157   8.425   2.703
 6697TIP3   OH219967   1.097   7.944   2.024
 6697TIP3    H119968   1.044   8.002   2.079
 6697TIP3    H219969   1.125   7.999   1.951
 6698TIP3   OH219970   1.731   8.403   2.729
 6698TIP3    H119971   1.640   8.413   2.759
 6698TIP3    H219972   1.724   8.401   2.634
 6699TIP3   OH219973   1.401   8.502   2.015
 6699TIP3    H119974   1.399   8.470   2.105
 6699TIP3    H219975   1.471   8.566   2.013
 6700TIP3   OH219976   0.457   7.846   2.556
 6700TIP3    H119977   0.438   7.803   2.473
 6700TIP3    H219978   0.453   7.775   2.621
 6701TIP3   OH219979   0.525   8.760   3.216
 6701TIP3    H119980   0.565   8.673   3.221
 6701TIP3    H219981   0.446   8.753   3.271
 6702TIP3   OH219982   0.743   8.571   2.831
 6702TIP3    H119983   0.654   8.536   2.829
 6702TIP3    H219984   0.762   8.594   2.740
 6703TIP3   OH219985   0.837   8.365   2.994
 6703TIP3    H119986   0.842   8.294   2.929
 6703TIP3    H219987   0.810   8.442   2.943
 6704TIP3   OH219988   0.860   8.189   2.783
 6704TIP3    H119989   0.884   8.237   2.704
 6704TIP3    H219990   0.766   8.174   2.774
 6705TIP3   OH219991   1.466   8.659   3.156
 6705TIP3    H119992   1.439   8.577   3.113
 6705TIP3    H219993   1.553   8.676   3.122
 6706TIP3   OH219994   0.645   8.515   3.235
 6706TIP3    H119995   0.619   8.425   3.253
 6706TIP3    H219996   0.727   8.507   3.186
 6707TIP3   OH219997   0.999   7.982   2.892
 6707TIP3    H119998   0.958   8.060   2.855
 6707TIP3    H219999   0.934   7.913   2.881
 6708TIP3   OH220000   1.110   8.380   3.037
 6708TIP3    H120001   1.110   8.443   3.109
 6708TIP3    H220002   1.018   8.360   3.022
 6709TIP3   OH220003   1.381   8.425   3.023
 6709TIP3    H120004   1.293   8.388   3.031
 6709TIP3    H220005   1.436   8.368   3.077
 6710TIP3   OH220006   1.623   8.365   3.157
 6710TIP3    H120007   1.636   8.270   3.154
 6710TIP3    H220008   1.614   8.385   3.250
 6711TIP3   OH220009   0.576   8.264   3.323
 6711TIP3    H120010   0.588   8.182   3.275
 6711TIP3    H220011   0.625   8.251   3.405
 6712TIP3   OH220012   1.058   7.965   3.158
 6712TIP3    H120013   1.129   7.901   3.150
 6712TIP3    H220014   1.028   7.979   3.069
 6713TIP3   OH220015   1.159   8.175   3.303
 6713TIP3    H120016   1.130   8.103   3.248
 6713TIP3    H220017   1.084   8.236   3.305
 6714TIP3   OH220018   1.581   8.540   1.749
 6714TIP3    H120019   1.524   8.463   1.754
 6714TIP3    H220020   1.571   8.582   1.834
 6715TIP3   OH220021   1.802   8.975   2.741
 6715TIP3    H120022   1.736   8.943   2.678
 6715TIP3    H220023   1.844   9.048   2.696
 6716TIP3   OH220024   1.432   8.306   1.703
 6716TIP3    H120025   1.487   8.228   1.712
 6716TIP3    H220026   1.421   8.316   1.609
 6717TIP3   OH220027   1.637   8.438   2.213
 6717TIP3    H120028   1.713   8.471   2.165
 6717TIP3    H220029   1.658   8.451   2.305
 6718TIP3   OH220030   1.686   8.516   2.475
 6718TIP3    H120031   1.629   8.586   2.443
 6718TIP3    H220032   1.774   8.553   2.470
 6719TIP3   OH220033   0.333   8.327   3.221
 6719TIP3    H120034   0.417   8.310   3.263
 6719TIP3    H220035   0.275   8.258   3.254
 6720TIP3   OH220036   2.150   8.262   2.995
 6720TIP3    H120037   2.217   8.203   2.960
 6720TIP3    H220038   2.116   8.308   2.918
 6721TIP3   OH220039   1.591   8.082   1.772
 6721TIP3    H120040   1.631   8.067   1.858
 6721TIP3    H220041   1.528   8.011   1.762
 6722TIP3   OH220042   0.319   8.054   2.683
 6722TIP3    H120043   0.364   7.982   2.639
 6722TIP3    H220044   0.332   8.130   2.626
 6723TIP3   OH220045   1.998   8.363   2.787
 6723TIP3    H120046   1.908   8.394   2.791
 6723TIP3    H220047   1.992   8.280   2.740
 6724TIP3   OH220048   1.651   8.009   1.381
 6724TIP3    H120049   1.690   7.942   1.326
 6724TIP3    H220050   1.718   8.077   1.387
 6725TIP3   OH220051   0.300   7.903   2.923
 6725TIP3    H120052   0.229   7.925   2.983
 6725TIP3    H220053   0.292   7.966   2.852
 6726TIP3   OH220054   1.920   8.118   2.690
 6726TIP3    H120055   1.837   8.120   2.643
 6726TIP3    H220056   1.949   8.027   2.684
 6727TIP3   OH220057   1.132   8.057   2.369
 6727TIP3    H120058   1.083   7.986   2.412
 6727TIP3    H220059   1.198   8.012   2.316
 6728TIP3   OH220060   1.624   7.940   2.210
 6728TIP3    H120061   1.672   7.992   2.145
 6728TIP3    H220062   1.540   7.986   2.219
 6729TIP3   OH220063   1.755   8.041   1.993
 6729TIP3    H120064   1.826   7.984   1.964
 6729TIP3    H220065   1.788   8.129   1.978
 6730TIP3   OH220066   0.809   7.759   2.278
 6730TIP3    H120067   0.784   7.823   2.211
 6730TIP3    H220068   0.871   7.807   2.333
 6731TIP3   OH220069   1.326   7.941   2.219
 6731TIP3    H120070   1.287   7.918   2.134
 6731TIP3    H220071   1.338   7.857   2.263
 6732TIP3   OH220072   1.418   7.859   1.757
 6732TIP3    H120073   1.337   7.873   1.710
 6732TIP3    H220074   1.402   7.782   1.812
 6733TIP3   OH220075   0.598   8.014   3.200
 6733TIP3    H120076   0.559   7.956   3.266
 6733TIP3    H220077   0.690   8.019   3.225
 6734TIP3   OH220078   0.842   8.022   3.329
 6734TIP3    H120079   0.921   8.000   3.279
 6734TIP3    H220080   0.835   7.952   3.394
 6735TIP3   OH220081   1.671   8.098   3.127
 6735TIP3    H120082   1.692   8.070   3.217
 6735TIP3    H220083   1.755   8.100   3.082
 6736TIP3   OH220084   1.820   8.483   1.607
 6736TIP3    H120085   1.781   8.541   1.542
 6736TIP3    H220086   1.759   8.484   1.680
 6737TIP3   OH220087   3.821   8.573   1.608
 6737TIP3    H120088   3.886   8.640   1.585
 6737TIP3    H220089   3.776   8.555   1.525
 6738TIP3   OH220090   3.042   8.764   1.816
 6738TIP3    H120091   3.074   8.685   1.859
 6738TIP3    H220092   3.008   8.733   1.732
 6739TIP3   OH220093   2.422   8.404   1.777
 6739TIP3    H120094   2.401   8.484   1.728
 6739TIP3    H220095   2.362   8.338   1.743
 6740TIP3   OH220096   3.116   8.496   1.439
 6740TIP3    H120097   3.175   8.484   1.513
 6740TIP3    H220098   3.170   8.539   1.372
 6741TIP3   OH220099   2.043   8.586   1.941
 6741TIP3    H120100   2.135   8.580   1.968
 6741TIP3    H220101   2.044   8.563   1.848
 6742TIP3   OH220102   2.471   8.785   1.778
 6742TIP3    H120103   2.562   8.772   1.752
 6742TIP3    H220104   2.420   8.736   1.714
 6743TIP3   OH220105   3.790   8.798   1.977
 6743TIP3    H120106   3.795   8.890   1.952
 6743TIP3    H220107   3.732   8.797   2.054
 6744TIP3   OH220108   2.407   8.388   2.234
 6744TIP3    H120109   2.357   8.434   2.167
 6744TIP3    H220110   2.352   8.395   2.313
 6745TIP3   OH220111   3.274   8.496   1.667
 6745TIP3    H120112   3.228   8.501   1.751
 6745TIP3    H220113   3.334   8.570   1.668
 6746TIP3   OH220114   2.301   8.503   2.008
 6746TIP3    H120115   2.358   8.578   2.024
 6746TIP3    H220116   2.341   8.457   1.934
 6747TIP3   OH220117   3.510   8.440   2.007
 6747TIP3    H120118   3.433   8.495   2.012
 6747TIP3    H220119   3.566   8.482   1.941
 6748TIP3   OH220120   2.747   8.095   1.972
 6748TIP3    H120121   2.738   8.004   2.000
 6748TIP3    H220122   2.670   8.138   2.009
 6749TIP3   OH220123   2.628   8.690   0.979
 6749TIP3    H120124   2.721   8.712   0.986
 6749TIP3    H220125   2.619   8.652   0.892
 6750TIP3   OH220126   3.365   9.057   2.102
 6750TIP3    H120127   3.285   9.026   2.145
 6750TIP3    H220128   3.347   9.148   2.080
 6751TIP3   OH220129   3.375   8.070   1.073
 6751TIP3    H120130   3.299   8.090   1.127
 6751TIP3    H220131   3.388   8.147   1.019
 6752TIP3   OH220132   3.567   9.016   2.283
 6752TIP3    H120133   3.506   9.037   2.213
 6752TIP3    H220134   3.585   8.923   2.272
 6753TIP3   OH220135   2.509   8.180   2.088
 6753TIP3    H120136   2.424   8.151   2.055
 6753TIP3    H220137   2.491   8.263   2.132
 6754TIP3   OH220138   3.036   8.296   2.298
 6754TIP3    H120139   3.110   8.282   2.358
 6754TIP3    H220140   2.959   8.270   2.348
 6755TIP3   OH220141   3.358   8.643   2.251
 6755TIP3    H120142   3.306   8.633   2.331
 6755TIP3    H220143   3.294   8.664   2.183
 6756TIP3   OH220144   2.644   8.249   1.054
 6756TIP3    H120145   2.623   8.259   1.147
 6756TIP3    H220146   2.615   8.160   1.032
 6757TIP3   OH220147   2.484   8.706   2.034
 6757TIP3    H120148   2.453   8.778   2.088
 6757TIP3    H220149   2.482   8.740   1.944
 6758TIP3   OH220150   2.320   8.610   1.627
 6758TIP3    H120151   2.229   8.591   1.651
 6758TIP3    H220152   2.330   8.571   1.540
 6759TIP3   OH220153   2.809   8.693   1.329
 6759TIP3    H120154   2.760   8.768   1.295
 6759TIP3    H220155   2.869   8.669   1.257
 6760TIP3   OH220156   2.965   8.935   2.524
 6760TIP3    H120157   2.959   8.840   2.523
 6760TIP3    H220158   3.017   8.956   2.446
 6761TIP3   OH220159   2.944   8.670   1.572
 6761TIP3    H120160   2.894   8.696   1.494
 6761TIP3    H220161   3.005   8.604   1.540
 6762TIP3   OH220162   2.213   8.666   2.304
 6762TIP3    H120163   2.207   8.730   2.375
 6762TIP3    H220164   2.243   8.585   2.346
 6763TIP3   OH220165   2.308   8.212   1.023
 6763TIP3    H120166   2.315   8.226   1.117
 6763TIP3    H220167   2.216   8.227   1.003
 6764TIP3   OH220168   1.874   8.271   1.921
 6764TIP3    H120169   1.944   8.306   1.976
 6764TIP3    H220170   1.914   8.263   1.834
 6765TIP3   OH220171   1.845   8.212   1.402
 6765TIP3    H120172   1.927   8.189   1.358
 6765TIP3    H220173   1.840   8.307   1.396
 6766TIP3   OH220174   2.959   8.993   1.973
 6766TIP3    H120175   2.988   8.919   1.920
 6766TIP3    H220176   3.011   8.986   2.053
 6767TIP3   OH220177   2.693   8.396   1.680
 6767TIP3    H120178   2.610   8.398   1.727
 6767TIP3    H220179   2.759   8.420   1.745
 6768TIP3   OH220180   2.083   8.482   1.687
 6768TIP3    H120181   1.994   8.478   1.651
 6768TIP3    H220182   2.119   8.394   1.672
 6769TIP3   OH220183   2.350   8.476   1.390
 6769TIP3    H120184   2.442   8.498   1.374
 6769TIP3    H220185   2.304   8.504   1.311
 6770TIP3   OH220186   3.127   8.515   1.912
 6770TIP3    H120187   3.118   8.524   2.007
 6770TIP3    H220188   3.062   8.449   1.888
 6771TIP3   OH220189   2.175   8.486   1.172
 6771TIP3    H120190   2.140   8.414   1.119
 6771TIP3    H220191   2.240   8.528   1.115
 6772TIP3   OH220192   2.738   8.732   1.747
 6772TIP3    H120193   2.805   8.706   1.684
 6772TIP3    H220194   2.788   8.762   1.823
 6773TIP3   OH220195   2.223   8.237   1.666
 6773TIP3    H120196   2.197   8.161   1.718
 6773TIP3    H220197   2.256   8.199   1.584
 6774TIP3   OH220198   2.727   8.581   2.066
 6774TIP3    H120199   2.644   8.623   2.045
 6774TIP3    H220200   2.782   8.651   2.100
 6775TIP3   OH220201   2.897   8.359   1.077
 6775TIP3    H120202   2.804   8.341   1.065
 6775TIP3    H220203   2.903   8.455   1.075
 6776TIP3   OH220204   2.983   8.631   1.117
 6776TIP3    H120205   3.067   8.608   1.156
 6776TIP3    H220206   3.006   8.676   1.036
 6777TIP3   OH220207   2.800   9.166   2.530
 6777TIP3    H120208   2.850   9.246   2.514
 6777TIP3    H220209   2.857   9.095   2.500
 6778TIP3   OH220210   3.383   8.713   0.993
 6778TIP3    H120211   3.329   8.684   0.919
 6778TIP3    H220212   3.379   8.808   0.989
 6779TIP3   OH220213   2.256   8.423   2.459
 6779TIP3    H120214   2.162   8.433   2.474
 6779TIP3    H220215   2.289   8.377   2.536
 6780TIP3   OH220216   3.085   8.543   2.192
 6780TIP3    H120217   3.117   8.576   2.276
 6780TIP3    H220218   3.059   8.453   2.210
 6781TIP3   OH220219   2.965   8.288   1.338
 6781TIP3    H120220   2.941   8.315   1.249
 6781TIP3    H220221   3.010   8.364   1.375
 6782TIP3   OH220222   2.632   8.497   1.423
 6782TIP3    H120223   2.694   8.565   1.396
 6782TIP3    H220224   2.654   8.480   1.514
 6783TIP3   OH220225   2.902   8.753   2.187
 6783TIP3    H120226   2.958   8.827   2.213
 6783TIP3    H220227   2.962   8.679   2.182
 6784TIP3   OH220228   2.786   8.185   1.523
 6784TIP3    H120229   2.764   8.261   1.576
 6784TIP3    H220230   2.857   8.215   1.466
 6785TIP3   OH220231   2.319   8.212   1.310
 6785TIP3    H120232   2.308   8.300   1.345
 6785TIP3    H220233   2.413   8.195   1.315
 6786TIP3   OH220234   3.585   8.758   2.168
 6786TIP3    H120235   3.522   8.709   2.220
 6786TIP3    H220236   3.539   8.777   2.086
 6787TIP3   OH220237   3.226   8.831   1.544
 6787TIP3    H120238   3.150   8.846   1.600
 6787TIP3    H220239   3.293   8.797   1.602
 6788TIP3   OH220240   2.244   8.107   2.053
 6788TIP3    H120241   2.215   8.077   1.967
 6788TIP3    H220242   2.236   8.030   2.109
 6789TIP3   OH220243   2.281   9.007   2.760
 6789TIP3    H120244   2.354   8.978   2.705
 6789TIP3    H220245   2.226   9.060   2.702
 6790TIP3   OH220246   2.542   8.845   2.346
 6790TIP3    H120247   2.467   8.856   2.289
 6790TIP3    H220248   2.611   8.898   2.306
 6791TIP3   OH220249   2.373   8.585   1.017
 6791TIP3    H120250   2.340   8.592   0.927
 6791TIP3    H220251   2.458   8.627   1.014
 6792TIP3   OH220252   2.658   8.630   2.491
 6792TIP3    H120253   2.658   8.560   2.426
 6792TIP3    H220254   2.617   8.704   2.446
 6793TIP3   OH220255   2.666   8.441   2.290
 6793TIP3    H120256   2.699   8.483   2.210
 6793TIP3    H220257   2.573   8.425   2.272
 6794TIP3   OH220258   3.362   8.927   2.667
 6794TIP3    H120259   3.384   8.841   2.632
 6794TIP3    H220260   3.351   8.982   2.589
 6795TIP3   OH220261   2.501   8.782   2.786
 6795TIP3    H120262   2.453   8.703   2.761
 6795TIP3    H220263   2.555   8.803   2.710
 6796TIP3   OH220264   2.785   8.220   2.390
 6796TIP3    H120265   2.747   8.302   2.356
 6796TIP3    H220266   2.719   8.154   2.370
 6797TIP3   OH220267   2.925   8.666   2.565
 6797TIP3    H120268   2.906   8.624   2.649
 6797TIP3    H220269   2.843   8.660   2.517
 6798TIP3   OH220270   3.170   8.616   2.450
 6798TIP3    H120271   3.083   8.630   2.489
 6798TIP3    H220272   3.231   8.629   2.522
 6799TIP3   OH220273   3.369   8.635   2.648
 6799TIP3    H120274   3.401   8.548   2.627
 6799TIP3    H220275   3.322   8.624   2.731
 6800TIP3   OH220276   2.371   8.535   2.771
 6800TIP3    H120277   2.386   8.447   2.734
 6800TIP3    H220278   2.402   8.529   2.861
 6801TIP3   OH220279   2.850   8.216   2.653
 6801TIP3    H120280   2.923   8.155   2.646
 6801TIP3    H220281   2.817   8.225   2.564
 6802TIP3   OH220282   2.949   8.430   2.795
 6802TIP3    H120283   2.924   8.353   2.744
 6802TIP3    H220284   2.870   8.484   2.797
 6803TIP3   OH220285   3.228   8.610   0.798
 6803TIP3    H120286   3.177   8.636   0.720
 6803TIP3    H220287   3.226   8.514   0.796
 6804TIP3   OH220288   3.348   8.829   1.298
 6804TIP3    H120289   3.298   8.750   1.276
 6804TIP3    H220290   3.311   8.858   1.381
 6805TIP3   OH220291   3.815   9.129   2.207
 6805TIP3    H120292   3.722   9.119   2.228
 6805TIP3    H220293   3.855   9.048   2.237
 6806TIP3   OH220294   3.190   8.339   0.765
 6806TIP3    H120295   3.263   8.300   0.813
 6806TIP3    H220296   3.116   8.282   0.784
 6807TIP3   OH220297   3.248   8.581   1.199
 6807TIP3    H120298   3.293   8.497   1.215
 6807TIP3    H220299   3.298   8.620   1.127
 6808TIP3   OH220300   3.435   8.725   1.698
 6808TIP3    H120301   3.500   8.779   1.653
 6808TIP3    H220302   3.479   8.695   1.777
 6809TIP3   OH220303   3.415   8.822   1.966
 6809TIP3    H120304   3.395   8.906   2.009
 6809TIP3    H220305   3.365   8.825   1.884
 6810TIP3   OH220306   2.110   8.608   2.720
 6810TIP3    H120307   2.204   8.597   2.731
 6810TIP3    H220308   2.072   8.528   2.757
 6811TIP3   OH220309   3.937   8.528   2.480
 6811TIP3    H120310   4.003   8.467   2.448
 6811TIP3    H220311   3.907   8.575   2.402
 6812TIP3   OH220312   3.373   8.344   1.264
 6812TIP3    H120313   3.421   8.334   1.346
 6812TIP3    H220314   3.311   8.271   1.264
 6813TIP3   OH220315   2.081   8.326   2.102
 6813TIP3    H120316   2.140   8.251   2.093
 6813TIP3    H220317   2.135   8.401   2.077
 6814TIP3   OH220318   1.867   8.578   2.151
 6814TIP3    H120319   1.923   8.559   2.076
 6814TIP3    H220320   1.879   8.672   2.167
 6815TIP3   OH220321   3.814   8.639   2.263
 6815TIP3    H120322   3.734   8.687   2.242
 6815TIP3    H220323   3.799   8.551   2.228
 6816TIP3   OH220324   3.429   8.273   0.893
 6816TIP3    H120325   3.475   8.214   0.834
 6816TIP3    H220326   3.482   8.352   0.894
 6817TIP3   OH220327   1.851   8.098   1.655
 6817TIP3    H120328   1.765   8.093   1.696
 6817TIP3    H220329   1.838   8.155   1.579
 6818TIP3   OH220330   2.077   8.132   2.455
 6818TIP3    H120331   2.030   8.135   2.538
 6818TIP3    H220332   2.025   8.187   2.396
 6819TIP3   OH220333   3.716   8.389   2.194
 6819TIP3    H120334   3.643   8.401   2.133
 6819TIP3    H220335   3.755   8.304   2.169
 6820TIP3   OH220336   2.943   8.320   1.832
 6820TIP3    H120337   2.890   8.250   1.870
 6820TIP3    H220338   3.001   8.274   1.770
 6821TIP3   OH220339   3.419   8.226   1.689
 6821TIP3    H120340   3.471   8.275   1.625
 6821TIP3    H220341   3.343   8.282   1.705
 6822TIP3   OH220342   3.553   8.323   1.473
 6822TIP3    H120343   3.617   8.256   1.451
 6822TIP3    H220344   3.599   8.406   1.456
 6823TIP3   OH220345   2.162   8.007   1.809
 6823TIP3    H120346   2.073   7.974   1.823
 6823TIP3    H220347   2.216   7.928   1.802
 6824TIP3   OH220348   2.000   7.915   1.501
 6824TIP3    H120349   2.023   7.967   1.424
 6824TIP3    H220350   1.954   7.976   1.558
 6825TIP3   OH220351   2.640   8.042   1.716
 6825TIP3    H120352   2.686   8.092   1.648
 6825TIP3    H220353   2.681   8.071   1.798
 6826TIP3   OH220354   3.116   8.172   1.676
 6826TIP3    H120355   3.167   8.142   1.601
 6826TIP3    H220356   3.127   8.103   1.741
 6827TIP3   OH220357   3.186   8.140   1.261
 6827TIP3    H120358   3.105   8.186   1.285
 6827TIP3    H220359   3.176   8.053   1.301
 6828TIP3   OH220360   2.095   8.055   1.268
 6828TIP3    H120361   2.118   7.984   1.208
 6828TIP3    H220362   2.178   8.097   1.290
 6829TIP3   OH220363   2.593   8.245   1.325
 6829TIP3    H120364   2.649   8.194   1.384
 6829TIP3    H220365   2.603   8.335   1.355
 6830TIP3   OH220366   2.384   8.266   2.685
 6830TIP3    H120367   2.350   8.206   2.751
 6830TIP3    H220368   2.477   8.276   2.707
 6831TIP3   OH220369   2.627   8.278   2.813
 6831TIP3    H120370   2.707   8.258   2.765
 6831TIP3    H220371   2.623   8.213   2.883
 6832TIP3   OH220372   3.457   8.379   2.607
 6832TIP3    H120373   3.477   8.349   2.696
 6832TIP3    H220374   3.541   8.375   2.562
 6833TIP3   OH220375   3.586   8.738   1.195
 6833TIP3    H120376   3.526   8.789   1.249
 6833TIP3    H220377   3.537   8.721   1.114
 6834TIP3   OH220378   5.487   8.883   1.406
 6834TIP3    H120379   5.528   8.964   1.438
 6834TIP3    H220380   5.403   8.912   1.369
 6835TIP3   OH220381   4.887   9.030   1.341
 6835TIP3    H120382   4.891   8.939   1.370
 6835TIP3    H220383   4.810   9.034   1.284
 6836TIP3   OH220384   4.161   8.703   1.299
 6836TIP3    H120385   4.149   8.772   1.234
 6836TIP3    H220386   4.122   8.625   1.258
 6837TIP3   OH220387   4.795   8.793   1.051
 6837TIP3    H120388   4.875   8.744   1.031
 6837TIP3    H220389   4.752   8.804   0.966
 6838TIP3   OH220390   3.847   8.832   1.449
 6838TIP3    H120391   3.937   8.835   1.482
 6838TIP3    H220392   3.857   8.818   1.355
 6839TIP3   OH220393   4.216   9.063   1.326
 6839TIP3    H120394   4.311   9.072   1.318
 6839TIP3    H220395   4.189   9.027   1.242
 6840TIP3   OH220396   5.574   9.128   1.506
 6840TIP3    H120397   5.483   9.156   1.513
 6840TIP3    H220398   5.608   9.136   1.595
 6841TIP3   OH220399   4.197   8.651   1.749
 6841TIP3    H120400   4.154   8.701   1.679
 6841TIP3    H220401   4.147   8.671   1.828
 6842TIP3   OH220402   5.147   8.726   1.277
 6842TIP3    H120403   5.054   8.730   1.298
 6842TIP3    H220404   5.173   8.818   1.268
 6843TIP3   OH220405   4.105   8.801   1.542
 6843TIP3    H120406   4.164   8.875   1.555
 6843TIP3    H220407   4.133   8.762   1.459
 6844TIP3   OH220408   5.295   8.705   1.509
 6844TIP3    H120409   5.231   8.706   1.438
 6844TIP3    H220410   5.373   8.747   1.472
 6845TIP3   OH220411   4.560   8.387   1.479
 6845TIP3    H120412   4.530   8.318   1.420
 6845TIP3    H220413   4.481   8.416   1.524
 6846TIP3   OH220414   8.360   0.048   1.618
 6846TIP3    H120415   8.358   0.139   1.647
 6846TIP3    H220416   8.275   0.035   1.575
 6847TIP3   OH220417   5.231   8.360   0.494
 6847TIP3    H120418   5.154   8.377   0.439
 6847TIP3    H220419   5.276   8.444   0.498
 6848TIP3   OH220420   5.366   9.223   1.745
 6848TIP3    H120421   5.275   9.244   1.725
 6848TIP3    H220422   5.367   9.128   1.755
 6849TIP3   OH220423   4.319   8.455   1.596
 6849TIP3    H120424   4.238   8.415   1.564
 6849TIP3    H220425   4.289   8.535   1.641
 6850TIP3   OH220426   4.845   8.577   1.795
 6850TIP3    H120427   4.913   8.558   1.859
 6850TIP3    H220428   4.764   8.549   1.838
 6851TIP3   OH220429   5.086   9.022   1.721
 6851TIP3    H120430   5.037   9.011   1.802
 6851TIP3    H220431   5.071   9.113   1.696
 6852TIP3   OH220432   4.589   8.484   0.520
 6852TIP3    H120433   4.545   8.520   0.443
 6852TIP3    H220434   4.644   8.413   0.486
 6853TIP3   OH220435   4.235   9.050   1.598
 6853TIP3    H120436   4.148   9.058   1.636
 6853TIP3    H220437   4.223   9.072   1.505
 6854TIP3   OH220438   4.098   8.897   1.116
 6854TIP3    H120439   4.007   8.891   1.144
 6854TIP3    H220440   4.100   8.853   1.031
 6855TIP3   OH220441   4.627   8.923   0.868
 6855TIP3    H120442   4.574   9.003   0.867
 6855TIP3    H220443   4.671   8.923   0.783
 6856TIP3   OH220444   4.778   9.186   1.917
 6856TIP3    H120445   4.764   9.113   1.978
 6856TIP3    H220446   4.870   9.209   1.930
 6857TIP3   OH220447   4.694   9.021   1.153
 6857TIP3    H120448   4.649   9.061   1.079
 6857TIP3    H220449   4.716   8.933   1.123
 6858TIP3   OH220450   4.068   8.980   1.834
 6858TIP3    H120451   4.149   9.024   1.861
 6858TIP3    H220452   4.070   8.896   1.879
 6859TIP3   OH220453   4.046   8.614   0.434
 6859TIP3    H120454   4.111   8.657   0.489
 6859TIP3    H220455   4.064   8.520   0.443
 6860TIP3   OH220456   3.689   8.535   1.362
 6860TIP3    H120457   3.659   8.618   1.325
 6860TIP3    H220458   3.694   8.475   1.288
 6861TIP3   OH220459   3.564   8.520   0.918
 6861TIP3    H120460   3.615   8.566   0.852
 6861TIP3    H220461   3.497   8.583   0.945
 6862TIP3   OH220462   4.842   9.232   1.512
 6862TIP3    H120463   4.868   9.164   1.451
 6862TIP3    H220464   4.779   9.190   1.571
 6863TIP3   OH220465   4.504   8.772   1.243
 6863TIP3    H120466   4.433   8.721   1.282
 6863TIP3    H220467   4.584   8.728   1.272
 6864TIP3   OH220468   3.860   8.767   1.179
 6864TIP3    H120469   3.764   8.767   1.175
 6864TIP3    H220470   3.886   8.687   1.134
 6865TIP3   OH220471   4.095   8.731   0.894
 6865TIP3    H120472   4.143   8.648   0.897
 6865TIP3    H220473   4.062   8.737   0.804
 6866TIP3   OH220474   4.901   8.768   1.406
 6866TIP3    H120475   4.890   8.781   1.500
 6866TIP3    H220476   4.831   8.707   1.382
 6867TIP3   OH220477   4.036   8.825   0.626
 6867TIP3    H120478   4.044   8.909   0.671
 6867TIP3    H220479   4.055   8.844   0.534
 6868TIP3   OH220480   4.493   9.047   1.350
 6868TIP3    H120481   4.559   9.084   1.292
 6868TIP3    H220482   4.514   8.954   1.355
 6869TIP3   OH220483   4.080   8.462   1.180
 6869TIP3    H120484   4.028   8.416   1.246
 6869TIP3    H220485   4.087   8.400   1.107
 6870TIP3   OH220486   4.482   8.908   1.611
 6870TIP3    H120487   4.410   8.965   1.582
 6870TIP3    H220488   4.558   8.965   1.617
 6871TIP3   OH220489   7.795   0.055   1.952
 6871TIP3    H120490   7.802   0.145   1.919
 6871TIP3    H220491   7.879   0.015   1.932
 6872TIP3   OH220492   4.057   8.725   1.971
 6872TIP3    H120493   3.963   8.737   1.980
 6872TIP3    H220494   4.080   8.664   2.042
 6873TIP3   OH220495   4.866   8.823   1.672
 6873TIP3    H120496   4.941   8.862   1.716
 6873TIP3    H220497   4.852   8.740   1.717
 6874TIP3   OH220498   4.576   8.721   0.656
 6874TIP3    H120499   4.583   8.642   0.602
 6874TIP3    H220500   4.665   8.734   0.690
 6875TIP3   OH220501   4.449   8.715   0.971
 6875TIP3    H120502   4.480   8.779   0.908
 6875TIP3    H220503   4.491   8.739   1.054
 6876TIP3   OH220504   4.708   9.054   1.681
 6876TIP3    H120505   4.732   9.096   1.764
 6876TIP3    H220506   4.760   8.973   1.679
 6877TIP3   OH220507   4.617   8.488   1.072
 6877TIP3    H120508   4.551   8.510   1.138
 6877TIP3    H220509   4.567   8.483   0.990
 6878TIP3   OH220510   4.000   8.423   0.820
 6878TIP3    H120511   3.958   8.502   0.788
 6878TIP3    H220512   4.089   8.450   0.844
 6879TIP3   OH220513   5.339   8.929   1.691
 6879TIP3    H120514   5.250   8.962   1.704
 6879TIP3    H220515   5.327   8.851   1.637
 6880TIP3   OH220516   8.170   0.066   1.087
 6880TIP3    H120517   8.153   0.011   1.011
 6880TIP3    H220518   8.266   0.066   1.095
 6881TIP3   OH220519   3.631   8.744   0.749
 6881TIP3    H120520   3.656   8.834   0.769
 6881TIP3    H220521   3.577   8.751   0.670
 6882TIP3   OH220522   4.070   8.351   1.561
 6882TIP3    H120523   4.021   8.338   1.480
 6882TIP3    H220524   4.042   8.280   1.619
 6883TIP3   OH220525   7.321   0.025   2.236
 6883TIP3    H120526   7.360   0.024   2.149
 6883TIP3    H220527   7.229   0.002   2.222
 6884TIP3   OH220528   4.320   9.112   1.864
 6884TIP3    H120529   4.379   9.183   1.888
 6884TIP3    H220530   4.318   9.112   1.768
 6885TIP3   OH220531   4.460   8.916   1.992
 6885TIP3    H120532   4.465   8.838   1.937
 6885TIP3    H220533   4.413   8.980   1.938
 6886TIP3   OH220534   4.456   8.718   1.800
 6886TIP3    H120535   4.477   8.777   1.728
 6886TIP3    H220536   4.365   8.692   1.784
 6887TIP3   OH220537   5.041   9.211   1.996
 6887TIP3    H120538   5.102   9.138   2.007
 6887TIP3    H220539   5.089   9.288   2.025
 6888TIP3   OH220540   4.341   9.034   2.219
 6888TIP3    H120541   4.271   8.972   2.239
 6888TIP3    H220542   4.371   9.008   2.132
 6889TIP3   OH220543   4.590   8.493   1.869
 6889TIP3    H120544   4.548   8.574   1.840
 6889TIP3    H220545   4.524   8.426   1.853
 6890TIP3   OH220546   4.718   8.975   2.078
 6890TIP3    H120547   4.709   8.972   2.173
 6890TIP3    H220548   4.631   8.949   2.045
 6891TIP3   OH220549   4.954   8.922   1.939
 6891TIP3    H120550   4.877   8.929   1.995
 6891TIP3    H220551   5.028   8.914   2.000
 6892TIP3   OH220552   5.185   8.918   2.094
 6892TIP3    H120553   5.204   8.824   2.102
 6892TIP3    H220554   5.181   8.949   2.185
 6893TIP3   OH220555   4.185   8.812   2.290
 6893TIP3    H120556   4.186   8.732   2.238
 6893TIP3    H220557   4.231   8.790   2.370
 6894TIP3   OH220558   4.649   8.494   2.132
 6894TIP3    H120559   4.721   8.431   2.130
 6894TIP3    H220560   4.620   8.500   2.041
 6895TIP3   OH220561   4.741   8.702   2.286
 6895TIP3    H120562   4.713   8.637   2.222
 6895TIP3    H220563   4.674   8.770   2.283
 6896TIP3   OH220564   5.147   9.136   0.856
 6896TIP3    H120565   5.172   9.056   0.904
 6896TIP3    H220566   5.053   9.143   0.870
 6897TIP3   OH220567   8.873   0.145   1.768
 6897TIP3    H120568   8.778   0.144   1.775
 6897TIP3    H220569   8.897   0.053   1.761
 6898TIP3   OH220570   5.034   8.875   0.763
 6898TIP3    H120571   5.099   8.815   0.727
 6898TIP3    H220572   5.050   8.958   0.717
 6899TIP3   OH220573   5.262   8.981   1.292
 6899TIP3    H120574   5.304   9.026   1.218
 6899TIP3    H220575   5.253   9.049   1.359
 6900TIP3   OH220576   5.305   9.197   1.449
 6900TIP3    H120577   5.237   9.236   1.505
 6900TIP3    H220578   5.327   9.266   1.387
 6901TIP3   OH220579   3.927   8.898   2.306
 6901TIP3    H120580   4.020   8.880   2.293
 6901TIP3    H220581   3.885   8.813   2.301
 6902TIP3   OH220582   5.753   8.762   1.991
 6902TIP3    H120583   5.817   8.711   1.941
 6902TIP3    H220584   5.709   8.816   1.925
 6903TIP3   OH220585   5.186   8.675   0.671
 6903TIP3    H120586   5.272   8.657   0.633
 6903TIP3    H220587   5.166   8.597   0.723
 6904TIP3   OH220588   3.674   8.586   1.840
 6904TIP3    H120589   3.716   8.661   1.880
 6904TIP3    H220590   3.712   8.580   1.752
 6905TIP3   OH220591   3.647   8.880   1.628
 6905TIP3    H120592   3.712   8.854   1.562
 6905TIP3    H220593   3.675   8.968   1.655
 6906TIP3   OH220594   5.594   8.901   1.826
 6906TIP3    H120595   5.506   8.933   1.843
 6906TIP3    H220596   5.591   8.871   1.735
 6907TIP3   OH220597   3.624   8.373   1.144
 6907TIP3    H120598   3.535   8.356   1.176
 6907TIP3    H220599   3.611   8.425   1.065
 6908TIP3   OH220600   3.923   8.427   1.868
 6908TIP3    H120601   3.942   8.463   1.781
 6908TIP3    H220602   3.830   8.445   1.881
 6909TIP3   OH220603   5.500   8.596   1.701
 6909TIP3    H120604   5.415   8.590   1.657
 6909TIP3    H220605   5.541   8.511   1.687
 6910TIP3   OH220606   4.695   8.593   1.347
 6910TIP3    H120607   4.652   8.521   1.394
 6910TIP3    H220608   4.765   8.550   1.298
 6911TIP3   OH220609   5.221   8.458   1.182
 6911TIP3    H120610   5.250   8.519   1.114
 6911TIP3    H220611   5.153   8.506   1.230
 6912TIP3   OH220612   5.299   8.625   0.975
 6912TIP3    H120613   5.370   8.618   0.911
 6912TIP3    H220614   5.305   8.713   1.010
 6913TIP3   OH220615   3.942   8.273   1.329
 6913TIP3    H120616   3.855   8.235   1.343
 6913TIP3    H220617   3.999   8.196   1.316
 6914TIP3   OH220618   3.764   8.171   1.019
 6914TIP3    H120619   3.741   8.207   0.933
 6914TIP3    H220620   3.721   8.229   1.081
 6915TIP3   OH220621   4.435   8.275   1.254
 6915TIP3    H120622   4.486   8.258   1.175
 6915TIP3    H220623   4.402   8.364   1.243
 6916TIP3   OH220624   4.926   8.487   1.232
 6916TIP3    H120625   4.920   8.479   1.137
 6916TIP3    H220626   4.931   8.396   1.263
 6917TIP3   OH220627   4.954   8.472   0.644
 6917TIP3    H120628   4.884   8.410   0.667
 6917TIP3    H220629   5.030   8.443   0.694
 6918TIP3   OH220630   3.747   8.305   0.771
 6918TIP3    H120631   3.777   8.232   0.716
 6918TIP3    H220632   3.827   8.351   0.796
 6919TIP3   OH220633   4.251   8.501   0.892
 6919TIP3    H120634   4.291   8.415   0.879
 6919TIP3    H220635   4.323   8.563   0.880
 6920TIP3   OH220636   4.183   8.549   2.181
 6920TIP3    H120637   4.142   8.488   2.243
 6920TIP3    H220638   4.276   8.548   2.204
 6921TIP3   OH220639   4.436   8.526   2.304
 6921TIP3    H120640   4.507   8.530   2.241
 6921TIP3    H220641   4.455   8.448   2.357
 6922TIP3   OH220642   5.251   8.648   2.106
 6922TIP3    H120643   5.269   8.620   2.196
 6922TIP3    H220644   5.337   8.644   2.062
 6923TIP3   OH220645   5.552   9.120   0.862
 6923TIP3    H120646   5.615   9.192   0.869
 6923TIP3    H220647   5.605   9.041   0.870
 6924TIP3   OH220648   6.078   8.877   1.362
 6924TIP3    H120649   6.031   8.838   1.288
 6924TIP3    H220650   6.009   8.900   1.424
 6925TIP3   OH220651   5.838   9.064   1.012
 6925TIP3    H120652   5.908   9.108   1.062
 6925TIP3    H220653   5.881   9.036   0.932
 6926TIP3   OH220654   6.436   8.656   0.887
 6926TIP3    H120655   6.366   8.614   0.839
 6926TIP3    H220656   6.399   8.740   0.915
 6927TIP3   OH220657   5.998   8.811   1.101
 6927TIP3    H120658   5.972   8.747   1.034
 6927TIP3    H220659   6.033   8.885   1.051
 6928TIP3   OH220660   6.753   8.862   1.254
 6928TIP3    H120661   6.758   8.867   1.349
 6928TIP3    H220662   6.665   8.830   1.235
 6929TIP3   OH220663   0.386   0.175   1.082
 6929TIP3    H120664   0.314   0.132   1.129
 6929TIP3    H220665   0.367   0.268   1.088
 6930TIP3   OH220666   9.271   0.107   0.997
 6930TIP3    H120667   9.288   0.116   1.091
 6930TIP3    H220668   9.297   0.191   0.960
 6931TIP3   OH220669   0.021   0.240   1.491
 6931TIP3    H120670  -0.001   0.164   1.545
 6931TIP3    H220671   0.093   0.210   1.437
 6932TIP3   OH220672   9.003   0.064   1.357
 6932TIP3    H120673   9.085   0.052   1.405
 6932TIP3    H220674   8.936   0.027   1.415
 6933TIP3   OH220675   5.500   8.713   0.800
 6933TIP3    H120676   5.561   8.767   0.850
 6933TIP3    H220677   5.554   8.670   0.734
 6934TIP3   OH220678   9.569   0.004   1.137
 6934TIP3    H120679   9.555   0.011   1.043
 6934TIP3    H220680   9.616   0.083   1.161
 6935TIP3   OH220681   9.577   0.354   1.528
 6935TIP3    H120682   9.601   0.441   1.562
 6935TIP3    H220683   9.657   0.321   1.488
 6936TIP3   OH220684   5.875   8.990   1.518
 6936TIP3    H120685   5.786   8.983   1.486
 6936TIP3    H220686   5.883   8.922   1.585
 6937TIP3   OH220687   6.591   9.122   1.142
 6937TIP3    H120688   6.579   9.198   1.084
 6937TIP3    H220689   6.683   9.125   1.167
 6938TIP3   OH220690   9.746   0.210   1.186
 6938TIP3    H120691   9.819   0.202   1.248
 6938TIP3    H220692   9.784   0.187   1.101
 6939TIP3   OH220693   0.629  -0.002   1.163
 6939TIP3    H120694   0.575   0.025   1.237
 6939TIP3    H220695   0.611   0.063   1.095
 6940TIP3   OH220696   5.762   8.631   1.062
 6940TIP3    H120697   5.734   8.575   0.989
 6940TIP3    H220698   5.812   8.573   1.119
 6941TIP3   OH220699   9.095   0.253   1.657
 6941TIP3    H120700   9.017   0.221   1.702
 6941TIP3    H220701   9.063   0.318   1.595
 6942TIP3   OH220702   9.330   0.190   1.260
 6942TIP3    H120703   9.289   0.232   1.336
 6942TIP3    H220704   9.371   0.261   1.212
 6943TIP3   OH220705   6.214   9.086   1.564
 6943TIP3    H120706   6.250   9.020   1.506
 6943TIP3    H220707   6.222   9.168   1.515
 6944TIP3   OH220708   6.308   8.972   1.221
 6944TIP3    H120709   6.295   9.065   1.207
 6944TIP3    H220710   6.227   8.943   1.264
 6945TIP3   OH220711   0.308   0.298   1.582
 6945TIP3    H120712   0.387   0.255   1.615
 6945TIP3    H220713   0.333   0.329   1.495
 6946TIP3   OH220714   9.371   0.066   1.760
 6946TIP3    H120715   9.313  -0.001   1.795
 6946TIP3    H220716   9.367   0.054   1.665
 6947TIP3   OH220717   6.301   8.750   1.456
 6947TIP3    H120718   6.216   8.778   1.423
 6947TIP3    H220719   6.315   8.664   1.416
 6948TIP3   OH220720   6.502   9.250   1.634
 6948TIP3    H120721   6.444   9.222   1.704
 6948TIP3    H220722   6.467   9.207   1.555
 6949TIP3   OH220723   6.754   9.196   1.513
 6949TIP3    H120724   6.670   9.180   1.557
 6949TIP3    H220725   6.820   9.169   1.577
 6950TIP3   OH220726   6.962   9.140   1.685
 6950TIP3    H120727   7.000   9.053   1.677
 6950TIP3    H220728   6.903   9.135   1.759
 6951TIP3   OH220729   5.966   9.073   1.815
 6951TIP3    H120730   5.983   8.997   1.760
 6951TIP3    H220731   6.010   9.054   1.897
 6952TIP3   OH220732   6.426   8.728   1.693
 6952TIP3    H120733   6.502   8.675   1.668
 6952TIP3    H220734   6.374   8.735   1.613
 6953TIP3   OH220735   6.517   8.969   1.784
 6953TIP3    H120736   6.481   8.891   1.741
 6953TIP3    H220737   6.442   9.028   1.792
 6954TIP3   OH220738   5.709   9.135   1.747
 6954TIP3    H120739   5.800   9.129   1.775
 6954TIP3    H220740   5.665   9.061   1.790
 6955TIP3   OH220741   7.471   9.049   1.382
 6955TIP3    H120742   7.496   8.957   1.387
 6955TIP3    H220743   7.554   9.097   1.387
 6956TIP3   OH220744   5.665   8.864   0.962
 6956TIP3    H120745   5.707   8.784   0.994
 6956TIP3    H220746   5.727   8.934   0.982
 6957TIP3   OH220747   5.402   9.100   1.083
 6957TIP3    H120748   5.433   9.118   0.995
 6957TIP3    H220749   5.480   9.107   1.138
 6958TIP3   OH220750   5.669   8.779   1.587
 6958TIP3    H120751   5.621   8.707   1.629
 6958TIP3    H220752   5.619   8.798   1.507
 6959TIP3   OH220753   7.298   8.877   1.166
 6959TIP3    H120754   7.236   8.920   1.107
 6959TIP3    H220755   7.330   8.802   1.116
 6960TIP3   OH220756   5.686   8.607   0.616
 6960TIP3    H120757   5.715   8.560   0.694
 6960TIP3    H220758   5.716   8.553   0.543
 6961TIP3   OH220759   5.986   8.805   1.699
 6961TIP3    H120760   5.956   8.737   1.760
 6961TIP3    H220761   6.078   8.818   1.721
 6962TIP3   OH220762   6.220   8.809   1.852
 6962TIP3    H120763   6.298   8.777   1.807
 6962TIP3    H220764   6.201   8.742   1.918
 6963TIP3   OH220765   7.049   8.882   1.649
 6963TIP3    H120766   7.070   8.857   1.739
 6963TIP3    H220767   7.122   8.848   1.597
 6964TIP3   OH220768   1.825   0.249   6.059
 6964TIP3    H120769   1.918   0.228   6.067
 6964TIP3    H220770   1.813   0.327   6.114
 6965TIP3   OH220771   1.419   0.633   6.097
 6965TIP3    H120772   1.443   0.577   6.024
 6965TIP3    H220773   1.446   0.584   6.175
 6966TIP3   OH220774   1.805   0.476   6.227
 6966TIP3    H120775   1.718   0.483   6.266
 6966TIP3    H220776   1.819   0.560   6.184
 6967TIP3   OH220777   1.530   0.486   5.895
 6967TIP3    H120778   1.564   0.399   5.876
 6967TIP3    H220779   1.600   0.546   5.868
 6968TIP3   OH220780   1.661   0.255   5.831
 6968TIP3    H120781   1.679   0.178   5.776
 6968TIP3    H220782   1.717   0.244   5.907
 6969TIP3   OH220783   2.073   0.359   6.593
 6969TIP3    H120784   2.073   0.276   6.546
 6969TIP3    H220785   2.058   0.425   6.525
 6970TIP3   OH220786   8.803   9.201   6.376
 6970TIP3    H120787   8.724   9.245   6.407
 6970TIP3    H220788   8.830   9.251   6.299
 6971TIP3   OH220789   1.931   0.355   5.278
 6971TIP3    H120790   1.927   0.449   5.259
 6971TIP3    H220791   2.023   0.332   5.263
 6972TIP3   OH220792   2.302   0.746   6.642
 6972TIP3    H120793   2.311   0.651   6.648
 6972TIP3    H220794   2.221   0.766   6.690
 6973TIP3   OH220795   1.149   0.648   5.765
 6973TIP3    H120796   1.073   0.607   5.722
 6973TIP3    H220797   1.121   0.738   5.780
 6974TIP3   OH220798   1.322   0.598   5.396
 6974TIP3    H120799   1.388   0.568   5.334
 6974TIP3    H220800   1.371   0.623   5.474
 6975TIP3   OH220801   1.402   0.600   5.679
 6975TIP3    H120802   1.310   0.611   5.703
 6975TIP3    H220803   1.441   0.555   5.754
 6976TIP3   OH220804   2.013   1.062   6.729
 6976TIP3    H120805   2.009   1.074   6.634
 6976TIP3    H220806   2.094   1.108   6.755
 6977TIP3   OH220807   2.053   0.147   6.403
 6977TIP3    H120808   2.078   0.200   6.328
 6977TIP3    H220809   1.959   0.132   6.392
 6978TIP3   OH220810   2.321   0.474   6.656
 6978TIP3    H120811   2.239   0.434   6.686
 6978TIP3    H220812   2.334   0.439   6.567
 6979TIP3   OH220813   1.879   0.385   5.553
 6979TIP3    H120814   1.875   0.304   5.603
 6979TIP3    H220815   1.890   0.357   5.462
 6980TIP3   OH220816   1.410   0.156   5.485
 6980TIP3    H120817   1.504   0.172   5.477
 6980TIP3    H220818   1.404   0.084   5.548
 6981TIP3   OH220819   1.840   0.733   6.548
 6981TIP3    H120820   1.751   0.704   6.570
 6981TIP3    H220821   1.828   0.802   6.484
 6982TIP3   OH220822   1.923   0.630   5.245
 6982TIP3    H120823   1.970   0.705   5.208
 6982TIP3    H220824   1.847   0.669   5.289
 6983TIP3   OH220825   1.748   0.025   5.687
 6983TIP3    H120826   1.747  -0.047   5.751
 6983TIP3    H220827   1.841   0.040   5.670
 6984TIP3   OH220828   1.843   0.732   6.139
 6984TIP3    H120829   1.801   0.783   6.071
 6984TIP3    H220830   1.937   0.747   6.126
 6985TIP3   OH220831   1.745   0.683   6.853
 6985TIP3    H120832   1.771   0.592   6.843
 6985TIP3    H220833   1.810   0.721   6.911
 6986TIP3   OH220834   1.412   0.235   5.223
 6986TIP3    H120835   1.408   0.213   5.316
 6986TIP3    H220836   1.471   0.310   5.218
 6987TIP3   OH220837   8.423   9.111   5.226
 6987TIP3    H120838   8.450   9.039   5.168
 6987TIP3    H220839   8.339   9.139   5.191
 6988TIP3   OH220840   2.107   0.798   6.129
 6988TIP3    H120841   2.140   0.814   6.217
 6988TIP3    H220842   2.172   0.838   6.071
 6989TIP3   OH220843   2.145   0.804   6.412
 6989TIP3    H120844   2.105   0.718   6.403
 6989TIP3    H220845   2.213   0.793   6.478
 6990TIP3   OH220846   2.186   0.520   6.972
 6990TIP3    H120847   2.125   0.528   7.046
 6990TIP3    H220848   2.237   0.601   6.975
 6991TIP3   OH220849   2.021   0.053   5.672
 6991TIP3    H120850   2.086   0.113   5.634
 6991TIP3    H220851   2.070   0.003   5.737
 6992TIP3   OH220852   8.689   9.145   5.862
 6992TIP3    H120853   8.659   9.113   5.948
 6992TIP3    H220854   8.776   9.182   5.879
 6993TIP3   OH220855   2.151   0.291   6.192
 6993TIP3    H120856   2.219   0.227   6.169
 6993TIP3    H220857   2.174   0.369   6.143
 6994TIP3   OH220858   2.006   0.560   6.410
 6994TIP3    H120859   1.944   0.609   6.465
 6994TIP3    H220860   1.952   0.522   6.341
 6995TIP3   OH220861   8.609   9.130   5.441
 6995TIP3    H120862   8.554   9.133   5.363
 6995TIP3    H220863   8.578   9.203   5.495
 6996TIP3   OH220864   2.262   0.125   6.812
 6996TIP3    H120865   2.315   0.048   6.832
 6996TIP3    H220866   2.286   0.149   6.723
 6997TIP3   OH220867   8.979   9.163   6.850
 6997TIP3    H120868   8.991   9.070   6.829
 6997TIP3    H220869   9.068   9.196   6.863
 6998TIP3   OH220870   1.695   0.674   5.797
 6998TIP3    H120871   1.749   0.674   5.718
 6998TIP3    H220872   1.721   0.753   5.844
 6999TIP3   OH220873   1.611   0.964   6.711
 6999TIP3    H120874   1.632   0.870   6.706
 6999TIP3    H220875   1.675   1.000   6.772
 7000TIP3   OH220876   1.322   0.844   6.332
 7000TIP3    H120877   1.294   0.761   6.293
 7000TIP3    H220878   1.314   0.909   6.262
 7001TIP3   OH220879   1.566   0.767   6.454
 7001TIP3    H120880   1.481   0.790   6.418
 7001TIP3    H220881   1.628   0.822   6.406
 7002TIP3   OH220882   1.780   0.910   6.341
 7002TIP3    H120883   1.770   0.996   6.299
 7002TIP3    H220884   1.803   0.851   6.269
 7003TIP3   OH220885   1.070   0.530   5.302
 7003TIP3    H120886   1.160   0.547   5.330
 7003TIP3    H220887   1.062   0.435   5.302
 7004TIP3   OH220888   1.838   0.655   5.563
 7004TIP3    H120889   1.848   0.560   5.559
 7004TIP3    H220890   1.779   0.676   5.490
 7005TIP3   OH220891   2.045   0.789   6.738
 7005TIP3    H120892   1.976   0.755   6.681
 7005TIP3    H220893   2.030   0.883   6.741
 7006TIP3   OH220894   3.321   0.166   5.470
 7006TIP3    H120895   3.290   0.254   5.449
 7006TIP3    H220896   3.254   0.107   5.436
 7007TIP3   OH220897   3.317   0.173   5.883
 7007TIP3    H120898   3.367   0.151   5.962
 7007TIP3    H220899   3.274   0.092   5.858
 7008TIP3   OH220900   2.601   0.088   6.248
 7008TIP3    H120901   2.661   0.014   6.244
 7008TIP3    H220902   2.625   0.134   6.329
 7009TIP3   OH220903   3.594   0.476   5.570
 7009TIP3    H120904   3.575   0.410   5.637
 7009TIP3    H220905   3.612   0.556   5.620
 7010TIP3   OH220906   2.597   0.446   5.939
 7010TIP3    H120907   2.585   0.351   5.945
 7010TIP3    H220908   2.691   0.457   5.924
 7011TIP3   OH220909   8.836   8.924   5.767
 7011TIP3    H120910   8.796   9.002   5.806
 7011TIP3    H220911   8.773   8.895   5.701
 7012TIP3   OH220912   8.941   9.214   5.927
 7012TIP3    H120913   8.985   9.136   5.961
 7012TIP3    H220914   9.012   9.277   5.913
 7013TIP3   OH220915   3.250   0.892   5.587
 7013TIP3    H120916   3.271   0.830   5.518
 7013TIP3    H220917   3.256   0.841   5.668
 7014TIP3   OH220918   3.117   0.383   5.904
 7014TIP3    H120919   3.163   0.307   5.868
 7014TIP3    H220920   3.187   0.443   5.931
 7015TIP3   OH220921   0.289   9.097   5.946
 7015TIP3    H120922   0.384   9.087   5.934
 7015TIP3    H220923   0.251   9.073   5.861
 7016TIP3   OH220924   9.041   8.983   6.040
 7016TIP3    H120925   9.127   8.966   6.079
 7016TIP3    H220926   9.034   8.920   5.969
 7017TIP3   OH220927   9.474   9.176   5.835
 7017TIP3    H120928   9.569   9.160   5.834
 7017TIP3    H220929   9.436   9.091   5.813
 7018TIP3   OH220930   0.752   9.097   6.229
 7018TIP3    H120931   0.722   9.146   6.153
 7018TIP3    H220932   0.847   9.107   6.228
 7019TIP3   OH220933   3.222   0.393   5.349
 7019TIP3    H120934   3.188   0.365   5.264
 7019TIP3    H220935   3.163   0.464   5.376
 7020TIP3   OH220936   2.986   0.294   6.132
 7020TIP3    H120937   2.926   0.359   6.166
 7020TIP3    H220938   3.022   0.334   6.052
 7021TIP3   OH220939   9.298   8.915   6.104
 7021TIP3    H120940   9.368   8.961   6.151
 7021TIP3    H220941   9.340   8.883   6.024
 7022TIP3   OH220942   2.819   0.497   6.226
 7022TIP3    H120943   2.791   0.583   6.194
 7022TIP3    H220944   2.746   0.467   6.280
 7023TIP3   OH220945   2.206   0.212   5.534
 7023TIP3    H120946   2.176   0.224   5.444
 7023TIP3    H220947   2.227   0.300   5.565
 7024TIP3   OH220948   3.620   0.719   5.714
 7024TIP3    H120949   3.532   0.712   5.749
 7024TIP3    H220950   3.621   0.803   5.667
 7025TIP3   OH220951   3.328   0.749   5.360
 7025TIP3    H120952   3.381   0.670   5.351
 7025TIP3    H220953   3.385   0.821   5.333
 7026TIP3   OH220954   3.470   0.520   5.327
 7026TIP3    H120955   3.396   0.460   5.331
 7026TIP3    H220956   3.524   0.497   5.403
 7027TIP3   OH220957   3.846   0.607   6.057
 7027TIP3    H120958   3.827   0.535   5.998
 7027TIP3    H220959   3.836   0.686   6.004
 7028TIP3   OH220960   3.147   0.004   5.326
 7028TIP3    H120961   3.073   0.063   5.313
 7028TIP3    H220962   3.152  -0.045   5.243
 7029TIP3   OH220963   9.648   9.047   5.101
 7029TIP3    H120964   9.737   9.080   5.096
 7029TIP3    H220965   9.649   8.968   5.048
 7030TIP3   OH220966   4.026   0.291   5.947
 7030TIP3    H120967   3.940   0.332   5.938
 7030TIP3    H220968   4.062   0.293   5.858
 7031TIP3   OH220969   3.502   0.103   5.273
 7031TIP3    H120970   3.444   0.129   5.345
 7031TIP3    H220971   3.584   0.080   5.316
 7032TIP3   OH220972   3.704   0.118   6.233
 7032TIP3    H120973   3.708   0.204   6.275
 7032TIP3    H220974   3.620   0.116   6.189
 7033TIP3   OH220975   2.748   0.084   5.706
 7033TIP3    H120976   2.713   0.029   5.636
 7033TIP3    H220977   2.820   0.033   5.742
 7034TIP3   OH220978   2.858   0.498   5.834
 7034TIP3    H120979   2.834   0.483   5.742
 7034TIP3    H220980   2.944   0.458   5.843
 7035TIP3   OH220981   2.860   0.055   6.071
 7035TIP3    H120982   2.890   0.027   5.985
 7035TIP3    H220983   2.903   0.139   6.086
 7036TIP3   OH220984   3.377   0.715   5.836
 7036TIP3    H120985   3.365   0.795   5.888
 7036TIP3    H220986   3.360   0.644   5.897
 7037TIP3   OH220987   3.006   0.605   6.397
 7037TIP3    H120988   2.945   0.664   6.441
 7037TIP3    H220989   2.951   0.552   6.340
 7038TIP3   OH220990   0.098   9.162   5.109
 7038TIP3    H120991   0.135   9.235   5.160
 7038TIP3    H220992   0.120   9.182   5.019
 7039TIP3   OH220993   3.079   0.630   5.387
 7039TIP3    H120994   3.161   0.679   5.383
 7039TIP3    H220995   3.020   0.677   5.328
 7040TIP3   OH220996   2.800   0.771   6.470
 7040TIP3    H120997   2.771   0.775   6.379
 7040TIP3    H220998   2.722   0.746   6.519
 7041TIP3   OH220999   9.175   9.170   5.498
 7041TIP3    H121000   9.090   9.210   5.480
 7041TIP3    H221001   9.154   9.078   5.517
 7042TIP3   OH221002   3.656   0.559   4.747
 7042TIP3    H121003   3.647   0.651   4.722
 7042TIP3    H221004   3.746   0.537   4.723
 7043TIP3   OH221005   2.344   0.361   6.404
 7043TIP3    H121006   2.275   0.342   6.340
 7043TIP3    H221007   2.354   0.279   6.453
 7044TIP3   OH221008   2.271   0.506   6.063
 7044TIP3    H121009   2.362   0.487   6.038
 7044TIP3    H221010   2.277   0.583   6.119
 7045TIP3   OH221011   4.083   0.964   6.128
 7045TIP3    H121012   4.086   0.869   6.141
 7045TIP3    H221013   4.004   0.992   6.175
 7046TIP3   OH221014   3.188   0.750   6.253
 7046TIP3    H121015   3.181   0.842   6.280
 7046TIP3    H221016   3.122   0.705   6.306
 7047TIP3   OH221017   2.970   0.850   5.200
 7047TIP3    H121018   2.919   0.825   5.123
 7047TIP3    H221019   2.930   0.931   5.231
 7048TIP3   OH221020   2.416   0.709   5.591
 7048TIP3    H121021   2.463   0.704   5.674
 7048TIP3    H221022   2.369   0.626   5.584
 7049TIP3   OH221023   3.171   0.780   4.831
 7049TIP3    H121024   3.218   0.703   4.799
 7049TIP3    H221025   3.205   0.794   4.919
 7050TIP3   OH221026   3.224   0.824   5.100
 7050TIP3    H121027   3.136   0.829   5.138
 7050TIP3    H221028   3.277   0.782   5.168
 7051TIP3   OH221029   3.969   0.043   6.421
 7051TIP3    H121030   3.923   0.099   6.358
 7051TIP3    H221031   3.997  -0.032   6.370
 7052TIP3   OH221032   2.612   0.437   6.392
 7052TIP3    H121033   2.648   0.368   6.447
 7052TIP3    H221034   2.517   0.420   6.392
 7053TIP3   OH221035   0.420   9.174   6.445
 7053TIP3    H121036   0.503   9.132   6.462
 7053TIP3    H221037   0.436   9.231   6.369
 7054TIP3   OH221038   0.163   9.160   4.841
 7054TIP3    H121039   0.107   9.170   4.764
 7054TIP3    H221040   0.235   9.221   4.827
 7055TIP3   OH221041   9.473   9.094   6.237
 7055TIP3    H121042   9.412   9.094   6.311
 7055TIP3    H221043   9.441   9.163   6.179
 7056TIP3   OH221044   9.337   8.944   5.766
 7056TIP3    H121045   9.251   8.910   5.792
 7056TIP3    H221046   9.345   8.920   5.674
 7057TIP3   OH221047   0.008   9.048   5.479
 7057TIP3    H121048  -0.040   9.119   5.436
 7057TIP3    H221049   0.070   9.018   5.414
 7058TIP3   OH221050   3.486   0.160   6.519
 7058TIP3    H121051   3.394   0.185   6.527
 7058TIP3    H221052   3.534   0.241   6.532
 7059TIP3   OH221053   0.176   9.048   5.698
 7059TIP3    H121054   0.111   9.072   5.632
 7059TIP3    H221055   0.214   8.967   5.666
 7060TIP3   OH221056   9.278   9.122   6.426
 7060TIP3    H121057   9.266   9.207   6.469
 7060TIP3    H221058   9.203   9.070   6.453
 7061TIP3   OH221059   3.446   0.045   6.105
 7061TIP3    H121060   3.486  -0.021   6.049
 7061TIP3    H221061   3.355   0.017   6.115
 7062TIP3   OH221062   9.085   8.824   5.804
 7062TIP3    H121063   9.001   8.864   5.784
 7062TIP3    H221064   9.077   8.734   5.774
 7063TIP3   OH221065   9.348   8.864   5.505
 7063TIP3    H121066   9.442   8.852   5.490
 7063TIP3    H221067   9.308   8.846   5.420
 7064TIP3   OH221068   9.226   8.816   5.261
 7064TIP3    H121069   9.173   8.774   5.194
 7064TIP3    H221070   9.275   8.885   5.215
 7065TIP3   OH221071   3.803   1.312   6.217
 7065TIP3    H121072   3.801   1.327   6.122
 7065TIP3    H221073   3.882   1.356   6.247
 7066TIP3   OH221074   9.752   9.143   5.885
 7066TIP3    H121075   9.821   9.090   5.845
 7066TIP3    H221076   9.749   9.114   5.976
 7067TIP3   OH221077   9.739   9.096   6.159
 7067TIP3    H121078   9.646   9.097   6.181
 7067TIP3    H221079   9.779   9.043   6.227
 7068TIP3   OH221080   2.930   0.164   5.263
 7068TIP3    H121081   2.855   0.109   5.239
 7068TIP3    H221082   2.906   0.202   5.347
 7069TIP3   OH221083   3.786   0.409   5.877
 7069TIP3    H121084   3.823   0.459   5.804
 7069TIP3    H221085   3.709   0.366   5.840
 7070TIP3   OH221086   3.314   0.479   6.281
 7070TIP3    H121087   3.385   0.496   6.343
 7070TIP3    H221088   3.262   0.560   6.283
 7071TIP3   OH221089   0.193   8.978   5.294
 7071TIP3    H121090   0.289   8.979   5.296
 7071TIP3    H221091   0.171   9.035   5.220
 7072TIP3   OH221092   2.614   0.162   5.936
 7072TIP3    H121093   2.664   0.142   5.857
 7072TIP3    H221094   2.670   0.131   6.008
 7073TIP3   OH221095   3.108   0.329   5.103
 7073TIP3    H121096   3.048   0.403   5.100
 7073TIP3    H221097   3.052   0.254   5.125
 7074TIP3   OH221098   2.384   0.141   6.560
 7074TIP3    H121099   2.479   0.145   6.569
 7074TIP3    H221100   2.368   0.058   6.516
 7075TIP3   OH221101   3.217   0.231   6.535
 7075TIP3    H121102   3.134   0.186   6.553
 7075TIP3    H221103   3.223   0.233   6.440
 7076TIP3   OH221104   3.458   0.775   6.180
 7076TIP3    H121105   3.363   0.765   6.184
 7076TIP3    H221106   3.481   0.812   6.265
 7077TIP3   OH221107   0.580   9.045   5.066
 7077TIP3    H121108   0.582   8.969   5.007
 7077TIP3    H221109   0.562   9.120   5.009
 7078TIP3   OH221110   4.094   0.684   6.147
 7078TIP3    H121111   4.000   0.667   6.141
 7078TIP3    H221112   4.129   0.659   6.062
 7079TIP3   OH221113   3.588   0.631   5.014
 7079TIP3    H121114   3.561   0.562   5.075
 7079TIP3    H221115   3.606   0.585   4.932
 7080TIP3   OH221116   3.560   0.277   5.770
 7080TIP3    H121117   3.469   0.258   5.792
 7080TIP3    H221118   3.592   0.198   5.727
 7081TIP3   OH221119   2.728   0.495   5.584
 7081TIP3    H121120   2.728   0.573   5.529
 7081TIP3    H221121   2.637   0.467   5.586
 7082TIP3   OH221122   8.854   9.021   5.412
 7082TIP3    H121123   8.910   9.098   5.406
 7082TIP3    H221124   8.766   9.055   5.422
 7083TIP3   OH221125   2.843   0.254   5.505
 7083TIP3    H121126   2.815   0.343   5.525
 7083TIP3    H221127   2.812   0.202   5.578
 7084TIP3   OH221128   3.005   0.821   6.046
 7084TIP3    H121129   3.041   0.896   5.999
 7084TIP3    H221130   3.078   0.789   6.100
 7085TIP3   OH221131   2.645   0.722   5.437
 7085TIP3    H121132   2.559   0.727   5.480
 7085TIP3    H221133   2.680   0.811   5.445
 7086TIP3   OH221134   3.355   0.494   6.006
 7086TIP3    H121135   3.348   0.488   6.101
 7086TIP3    H221136   3.435   0.445   5.985
 7087TIP3   OH221137   3.321   0.360   4.917
 7087TIP3    H121138   3.393   0.334   4.975
 7087TIP3    H221139   3.242   0.346   4.970
 7088TIP3   OH221140   3.613   0.983   6.058
 7088TIP3    H121141   3.543   0.921   6.078
 7088TIP3    H221142   3.579   1.037   5.988
 7089TIP3   OH221143   3.657   0.830   4.689
 7089TIP3    H121144   3.669   0.884   4.612
 7089TIP3    H221145   3.591   0.875   4.741
 7090TIP3   OH221146   3.535   0.280   5.062
 7090TIP3    H121147   3.519   0.226   5.140
 7090TIP3    H221148   3.631   0.284   5.056
 7091TIP3   OH221149   2.415   0.735   6.206
 7091TIP3    H121150   2.474   0.678   6.256
 7091TIP3    H221151   2.430   0.822   6.242
 7092TIP3   OH221152   2.659   0.359   5.208
 7092TIP3    H121153   2.750   0.331   5.201
 7092TIP3    H221154   2.662   0.454   5.197
 7093TIP3   OH221155   2.408   0.048   5.417
 7093TIP3    H121156   2.345   0.099   5.468
 7093TIP3    H221157   2.422   0.099   5.338
 7094TIP3   OH221158   2.931   0.539   5.113
 7094TIP3    H121159   2.846   0.562   5.150
 7094TIP3    H221160   2.947   0.605   5.045
 7095TIP3   OH221161   9.622   8.846   5.524
 7095TIP3    H121162   9.689   8.909   5.495
 7095TIP3    H221163   9.618   8.858   5.619
 7096TIP3   OH221164   0.135   9.170   6.359
 7096TIP3    H121165   0.060   9.226   6.341
 7096TIP3    H221166   0.182   9.166   6.276
 7097TIP3   OH221167   2.681   0.632   5.181
 7097TIP3    H121168   2.658   0.706   5.124
 7097TIP3    H221169   2.666   0.665   5.270
 7098TIP3   OH221170   0.368   9.262   5.678
 7098TIP3    H121171   0.297   9.199   5.685
 7098TIP3    H221172   0.436   9.228   5.736
 7099TIP3   OH221173   2.436   0.210   5.174
 7099TIP3    H121174   2.507   0.270   5.196
 7099TIP3    H221175   2.475   0.148   5.112
 7100TIP3   OH221176   8.832   8.744   5.391
 7100TIP3    H121177   8.829   8.833   5.425
 7100TIP3    H221178   8.741   8.720   5.376
 7101TIP3   OH221179   3.644   0.984   5.629
 7101TIP3    H121180   3.603   1.038   5.561
 7101TIP3    H221181   3.738   0.996   5.616
 7102TIP3   OH221182   2.247   0.484   5.583
 7102TIP3    H121183   2.201   0.527   5.656
 7102TIP3    H221184   2.215   0.529   5.505
 7103TIP3   OH221185   2.428   1.015   6.630
 7103TIP3    H121186   2.512   1.013   6.676
 7103TIP3    H221187   2.397   0.925   6.632
 7104TIP3   OH221188   2.904   0.933   6.666
 7104TIP3    H121189   2.993   0.900   6.681
 7104TIP3    H221190   2.870   0.880   6.594
 7105TIP3   OH221191   2.866   0.523   4.787
 7105TIP3    H121192   2.840   0.438   4.823
 7105TIP3    H221193   2.942   0.504   4.732
 7106TIP3   OH221194   3.517   0.867   6.430
 7106TIP3    H121195   3.530   0.798   6.495
 7106TIP3    H221196   3.591   0.927   6.444
 7107TIP3   OH221197   3.295   0.561   4.731
 7107TIP3    H121198   3.321   0.495   4.796
 7107TIP3    H221199   3.352   0.544   4.656
 7108TIP3   OH221200   2.567   0.474   6.780
 7108TIP3    H121201   2.614   0.394   6.757
 7108TIP3    H221202   2.478   0.459   6.747
 7109TIP3   OH221203   2.616   0.089   4.980
 7109TIP3    H121204   2.664   0.071   5.061
 7109TIP3    H221205   2.682   0.130   4.923
 7110TIP3   OH221206   3.163   0.503   6.599
 7110TIP3    H121207   3.108   0.532   6.526
 7110TIP3    H221208   3.189   0.414   6.576
 7111TIP3   OH221209   3.622   0.551   6.210
 7111TIP3    H121210   3.702   0.575   6.162
 7111TIP3    H221211   3.563   0.625   6.195
 7112TIP3   OH221212   9.250   9.229   5.227
 7112TIP3    H121213   9.229   9.213   5.319
 7112TIP3    H221214   9.284   9.145   5.196
 7113TIP3   OH221215   2.986   0.090   6.493
 7113TIP3    H121216   2.903   0.119   6.531
 7113TIP3    H221217   2.972   0.095   6.398
 7114TIP3   OH221218   9.375   9.002   5.122
 7114TIP3    H121219   9.353   9.008   5.029
 7114TIP3    H221220   9.466   9.029   5.127
 7115TIP3   OH221221   3.554   0.408   6.626
 7115TIP3    H121222   3.648   0.428   6.619
 7115TIP3    H221223   3.546   0.359   6.708
 7116TIP3   OH221224   3.628   0.080   4.741
 7116TIP3    H121225   3.611   0.045   4.653
 7116TIP3    H221226   3.596   0.170   4.738
 7117TIP3   OH221227   9.657   9.108   6.581
 7117TIP3    H121228   9.603   9.036   6.547
 7117TIP3    H221229   9.611   9.187   6.553
 7118TIP3   OH221230   3.220   0.215   6.263
 7118TIP3    H121231   3.264   0.299   6.253
 7118TIP3    H221232   3.137   0.226   6.217
 7119TIP3   OH221233   3.759   0.362   6.353
 7119TIP3    H121234   3.702   0.428   6.314
 7119TIP3    H221235   3.846   0.380   6.318
 7120TIP3   OH221236   9.520   9.180   6.881
 7120TIP3    H121237   9.428   9.189   6.903
 7120TIP3    H221238   9.521   9.157   6.789
 7121TIP3   OH221239   0.120   9.155   6.660
 7121TIP3    H121240   0.101   9.220   6.728
 7121TIP3    H221241   0.034   9.118   6.639
 7122TIP3   OH221242   2.671   0.848   5.006
 7122TIP3    H121243   2.755   0.819   4.971
 7122TIP3    H221244   2.626   0.886   4.931
 7123TIP3   OH221245   2.176   0.234   5.260
 7123TIP3    H121246   2.269   0.239   5.239
 7123TIP3    H221247   2.145   0.156   5.214
 7124TIP3   OH221248   2.041   0.807   5.654
 7124TIP3    H121249   1.974   0.757   5.608
 7124TIP3    H221250   2.082   0.744   5.713
 7125TIP3   OH221251   2.176   0.630   5.818
 7125TIP3    H121252   2.169   0.563   5.886
 7125TIP3    H221253   2.227   0.700   5.858
 7126TIP3   OH221254   3.916   1.032   5.624
 7126TIP3    H121255   3.936   1.059   5.713
 7126TIP3    H221256   3.974   1.085   5.569
 7127TIP3   OH221257   3.934   1.064   5.904
 7127TIP3    H121258   3.886   0.981   5.898
 7127TIP3    H221259   4.003   1.048   5.968
 7128TIP3   OH221260   3.985   0.769   6.469
 7128TIP3    H121261   3.912   0.776   6.531
 7128TIP3    H221262   4.031   0.852   6.477
 7129TIP3   OH221263   3.812   0.279   5.057
 7129TIP3    H121264   3.865   0.354   5.031
 7129TIP3    H221265   3.848   0.253   5.142
 7130TIP3   OH221266   3.916   0.177   5.288
 7130TIP3    H121267   3.853   0.136   5.346
 7130TIP3    H221268   3.980   0.218   5.346
 7131TIP3   OH221269   3.971   0.550   5.721
 7131TIP3    H121270   4.014   0.478   5.675
 7131TIP3    H221271   3.976   0.623   5.660
 7132TIP3   OH221272   3.788   0.829   5.907
 7132TIP3    H121273   3.721   0.874   5.958
 7132TIP3    H221274   3.740   0.788   5.835
 7133TIP3   OH221275   3.825   0.039   4.923
 7133TIP3    H121276   3.755   0.048   4.859
 7133TIP3    H221277   3.822   0.120   4.974
 7134TIP3   OH221278   0.431   8.972   4.835
 7134TIP3    H121279   0.366   9.033   4.871
 7134TIP3    H221280   0.381   8.913   4.779
 7135TIP3   OH221281   0.459   9.259   5.416
 7135TIP3    H121282   0.465   9.165   5.396
 7135TIP3    H221283   0.431   9.263   5.507
 7136TIP3   OH221284   2.348   0.108   6.157
 7136TIP3    H121285   2.356   0.066   6.072
 7136TIP3    H221286   2.438   0.115   6.189
 7137TIP3   OH221287   4.016   0.404   6.269
 7137TIP3    H121288   4.090   0.342   6.274
 7137TIP3    H221289   4.039   0.463   6.197
 7138TIP3   OH221290   4.238   0.250   6.334
 7138TIP3    H121291   4.217   0.224   6.424
 7138TIP3    H221292   4.312   0.310   6.344
 7139TIP3   OH221293   0.474   8.993   5.317
 7139TIP3    H121294   0.527   8.921   5.352
 7139TIP3    H221295   0.512   9.010   5.230
 7140TIP3   OH221296   0.568   9.167   5.838
 7140TIP3    H121297   0.641   9.183   5.779
 7140TIP3    H221298   0.599   9.198   5.923
 7141TIP3   OH221299   3.923   0.058   6.064
 7141TIP3    H121300   3.848   0.089   6.115
 7141TIP3    H221301   3.964   0.138   6.030
 7142TIP3   OH221302   8.845   8.950   6.250
 7142TIP3    H121303   8.914   8.968   6.185
 7142TIP3    H221304   8.839   9.031   6.301
 7143TIP3   OH221305   3.471   0.955   5.264
 7143TIP3    H121306   3.526   0.940   5.187
 7143TIP3    H221307   3.518   1.022   5.314
 7144TIP3   OH221308   2.582   0.709   6.622
 7144TIP3    H121309   2.488   0.724   6.630
 7144TIP3    H221310   2.598   0.632   6.677
 7145TIP3   OH221311   2.772   0.776   6.188
 7145TIP3    H121312   2.724   0.854   6.160
 7145TIP3    H221313   2.857   0.783   6.146
 7146TIP3   OH221314   3.176   1.017   6.328
 7146TIP3    H121315   3.211   1.010   6.417
 7146TIP3    H221316   3.238   1.074   6.282
 7147TIP3   OH221317   3.368   1.176   6.207
 7147TIP3    H121318   3.431   1.124   6.159
 7147TIP3    H221319   3.422   1.235   6.261
 7148TIP3   OH221320   2.438   1.025   6.241
 7148TIP3    H121321   2.348   1.048   6.218
 7148TIP3    H221322   2.462   1.088   6.309
 7149TIP3   OH221323   2.672   1.017   6.093
 7149TIP3    H121324   2.588   1.023   6.140
 7149TIP3    H221325   2.650   1.041   6.003
 7150TIP3   OH221326   3.082   1.035   5.887
 7150TIP3    H121327   3.010   1.046   5.825
 7150TIP3    H221328   3.092   1.121   5.928
 7151TIP3   OH221329   3.347   0.972   5.933
 7151TIP3    H121330   3.255   0.991   5.914
 7151TIP3    H221331   3.396   1.039   5.886
 7152TIP3   OH221332   3.549   1.142   5.833
 7152TIP3    H121333   3.548   1.229   5.794
 7152TIP3    H221334   3.580   1.084   5.764
 7153TIP3   OH221335   2.346   0.811   5.952
 7153TIP3    H121336   2.368   0.790   6.043
 7153TIP3    H221337   2.419   0.777   5.901
 7154TIP3   OH221338   2.556   0.694   5.826
 7154TIP3    H121339   2.566   0.607   5.865
 7154TIP3    H221340   2.643   0.731   5.829
 7155TIP3   OH221341   2.824   0.776   5.840
 7155TIP3    H121342   2.841   0.683   5.824
 7155TIP3    H221343   2.878   0.797   5.916
 7156TIP3   OH221344   2.174   0.625   5.359
 7156TIP3    H121345   2.086   0.599   5.333
 7156TIP3    H221346   2.182   0.716   5.332
 7157TIP3   OH221347   2.914   0.752   4.927
 7157TIP3    H121348   2.999   0.777   4.890
 7157TIP3    H221349   2.886   0.677   4.873
 7158TIP3   OH221350   3.623   0.900   5.037
 7158TIP3    H121351   3.615   0.805   5.033
 7158TIP3    H221352   3.579   0.931   4.958
 7159TIP3   OH221353   2.271   0.628   5.027
 7159TIP3    H121354   2.277   0.619   5.122
 7159TIP3    H221355   2.342   0.574   4.992
 7160TIP3   OH221356   3.834   1.037   6.224
 7160TIP3    H121357   3.759   1.008   6.171
 7160TIP3    H221358   3.823   1.132   6.231
 7161TIP3   OH221359   5.124   0.421   4.986
 7161TIP3    H121360   5.097   0.505   4.949
 7161TIP3    H221361   5.043   0.384   5.022
 7162TIP3   OH221362   5.102   0.427   5.374
 7162TIP3    H121363   5.154   0.412   5.453
 7162TIP3    H221364   5.044   0.351   5.369
 7163TIP3   OH221365   4.379   0.359   5.727
 7163TIP3    H121366   4.425   0.302   5.790
 7163TIP3    H221367   4.449   0.392   5.670
 7164TIP3   OH221368   5.376   0.727   5.081
 7164TIP3    H121369   5.368   0.668   5.156
 7164TIP3    H221370   5.400   0.811   5.119
 7165TIP3   OH221371   4.398   0.717   5.411
 7165TIP3    H121372   4.371   0.626   5.413
 7165TIP3    H221373   4.493   0.714   5.408
 7166TIP3   OH221374   0.774   9.200   5.172
 7166TIP3    H121375   0.738   9.282   5.207
 7166TIP3    H221376   0.699   9.154   5.136
 7167TIP3   OH221377   4.141   0.269   5.422
 7167TIP3    H121378   4.189   0.187   5.436
 7167TIP3    H221379   4.209   0.332   5.397
 7168TIP3   OH221380   5.073   1.152   5.092
 7168TIP3    H121381   5.091   1.096   5.017
 7168TIP3    H221382   5.056   1.092   5.164
 7169TIP3   OH221383   4.927   0.655   5.376
 7169TIP3    H121384   4.966   0.569   5.358
 7169TIP3    H221385   5.001   0.709   5.405
 7170TIP3   OH221386   5.426   0.161   5.403
 7170TIP3    H121387   5.447   0.073   5.434
 7170TIP3    H221388   5.387   0.205   5.479
 7171TIP3   OH221389   4.249   0.027   5.499
 7171TIP3    H121390   4.332   0.006   5.541
 7171TIP3    H221391   4.251  -0.021   5.416
 7172TIP3   OH221392   4.692   0.286   5.334
 7172TIP3    H121393   4.782   0.262   5.355
 7172TIP3    H221394   4.645   0.203   5.332
 7173TIP3   OH221395   5.904   0.172   5.557
 7173TIP3    H121396   5.864   0.251   5.593
 7173TIP3    H221397   5.997   0.179   5.580
 7174TIP3   OH221398   5.020   0.633   4.839
 7174TIP3    H121399   4.978   0.612   4.756
 7174TIP3    H221400   4.976   0.712   4.869
 7175TIP3   OH221401   4.765   0.608   5.598
 7175TIP3    H121402   4.704   0.675   5.628
 7175TIP3    H221403   4.803   0.643   5.517
 7176TIP3   OH221404   1.245   9.197   5.542
 7176TIP3    H121405   1.301   9.261   5.586
 7176TIP3    H221406   1.259   9.213   5.449
 7177TIP3   OH221407   4.588   0.784   5.703
 7177TIP3    H121408   4.575   0.876   5.679
 7177TIP3    H221409   4.510   0.762   5.755
 7178TIP3   OH221410   3.969   0.486   4.960
 7178TIP3    H121411   3.936   0.509   4.873
 7178TIP3    H221412   3.995   0.570   4.998
 7179TIP3   OH221413   5.411   0.988   5.196
 7179TIP3    H121414   5.323   0.984   5.234
 7179TIP3    H221415   5.414   1.073   5.151
 7180TIP3   OH221416   5.138   1.025   4.850
 7180TIP3    H121417   5.189   0.945   4.845
 7180TIP3    H221418   5.199   1.095   4.827
 7181TIP3   OH221419   5.259   0.783   4.836
 7181TIP3    H121420   5.190   0.717   4.830
 7181TIP3    H221421   5.309   0.757   4.914
 7182TIP3   OH221422   5.654   0.876   5.560
 7182TIP3    H121423   5.642   0.807   5.496
 7182TIP3    H221424   5.639   0.957   5.511
 7183TIP3   OH221425   4.945   0.294   4.750
 7183TIP3    H121426   4.854   0.320   4.763
 7183TIP3    H221427   4.991   0.375   4.729
 7184TIP3   OH221428   4.900   0.105   4.558
 7184TIP3    H121429   4.926   0.171   4.622
 7184TIP3    H221430   4.912   0.021   4.602
 7185TIP3   OH221431   5.851   0.553   5.371
 7185TIP3    H121432   5.763   0.584   5.392
 7185TIP3    H221433   5.869   0.588   5.284
 7186TIP3   OH221434   5.298   0.341   4.789
 7186TIP3    H121435   5.247   0.379   4.861
 7186TIP3    H221436   5.386   0.332   4.823
 7187TIP3   OH221437   4.495   0.376   5.157
 7187TIP3    H121438   4.457   0.309   5.100
 7187TIP3    H221439   4.565   0.331   5.204
 7188TIP3   OH221440   4.667   0.754   5.320
 7188TIP3    H121441   4.638   0.744   5.230
 7188TIP3    H221442   4.757   0.720   5.320
 7189TIP3   OH221443   4.590   0.405   5.552
 7189TIP3    H121444   4.629   0.372   5.471
 7189TIP3    H221445   4.649   0.475   5.580
 7190TIP3   OH221446   5.174   0.979   5.335
 7190TIP3    H121447   5.177   1.039   5.410
 7190TIP3    H221448   5.168   0.892   5.375
 7191TIP3   OH221449   4.793   0.870   5.870
 7191TIP3    H121450   4.733   0.927   5.918
 7191TIP3    H221451   4.737   0.818   5.813
 7192TIP3   OH221452   5.232   0.142   4.610
 7192TIP3    H121453   5.261   0.213   4.666
 7192TIP3    H221454   5.213   0.184   4.526
 7193TIP3   OH221455   4.544   0.446   6.010
 7193TIP3    H121456   4.553   0.537   6.038
 7193TIP3    H221457   4.449   0.429   6.015
 7194TIP3   OH221458   4.899   0.881   4.865
 7194TIP3    H121459   4.974   0.940   4.865
 7194TIP3    H221460   4.832   0.927   4.815
 7195TIP3   OH221461   4.584   1.026   5.960
 7195TIP3    H121462   4.559   1.041   5.869
 7195TIP3    H221463   4.500   1.013   6.006
 7196TIP3   OH221464   4.376   0.208   4.972
 7196TIP3    H121465   4.300   0.255   4.938
 7196TIP3    H221466   4.346   0.118   4.980
 7197TIP3   OH221467   5.464   0.826   4.217
 7197TIP3    H121468   5.459   0.920   4.198
 7197TIP3    H221469   5.555   0.802   4.197
 7198TIP3   OH221470   4.179   0.591   5.907
 7198TIP3    H121471   4.108   0.573   5.845
 7198TIP3    H221472   4.217   0.505   5.924
 7199TIP3   OH221473   4.027   0.779   5.567
 7199TIP3    H121474   4.118   0.801   5.585
 7199TIP3    H221475   3.978   0.856   5.595
 7200TIP3   OH221476   5.884   1.249   5.609
 7200TIP3    H121477   5.894   1.154   5.618
 7200TIP3    H221478   5.801   1.268   5.653
 7201TIP3   OH221479   4.977   1.021   5.731
 7201TIP3    H121480   4.973   1.109   5.768
 7201TIP3    H221481   4.916   0.970   5.784
 7202TIP3   OH221482   4.772   1.110   4.690
 7202TIP3    H121483   4.726   1.088   4.609
 7202TIP3    H221484   4.731   1.191   4.720
 7203TIP3   OH221485   4.201   0.968   5.068
 7203TIP3    H121486   4.245   0.960   5.153
 7203TIP3    H221487   4.152   0.887   5.059
 7204TIP3   OH221488   4.975   1.045   4.320
 7204TIP3    H121489   5.025   0.972   4.283
 7204TIP3    H221490   5.011   1.057   4.408
 7205TIP3   OH221491   5.027   1.086   4.592
 7205TIP3    H121492   4.938   1.092   4.628
 7205TIP3    H221493   5.079   1.049   4.663
 7206TIP3   OH221494   4.371   0.785   5.875
 7206TIP3    H121495   4.424   0.774   5.954
 7206TIP3    H221496   4.302   0.719   5.882
 7207TIP3   OH221497   5.580   0.355   5.947
 7207TIP3    H121498   5.556   0.264   5.929
 7207TIP3    H221499   5.611   0.389   5.863
 7208TIP3   OH221500   5.194   0.258   4.367
 7208TIP3    H121501   5.108   0.287   4.336
 7208TIP3    H221502   5.257   0.306   4.313
 7209TIP3   OH221503   4.654   0.159   5.660
 7209TIP3    H121504   4.615   0.155   5.747
 7209TIP3    H221505   4.620   0.240   5.622
 7210TIP3   OH221506   4.510   0.088   5.291
 7210TIP3    H121507   4.429   0.038   5.277
 7210TIP3    H221508   4.563   0.071   5.213
 7211TIP3   OH221509   5.114   0.113   4.879
 7211TIP3    H121510   5.042   0.166   4.845
 7211TIP3    H221511   5.193   0.163   4.859
 7212TIP3   OH221512   5.236   0.481   5.894
 7212TIP3    H121513   5.282   0.482   5.978
 7212TIP3    H221514   5.236   0.572   5.865
 7213TIP3   OH221515   5.203   0.203   5.164
 7213TIP3    H121516   5.211   0.286   5.117
 7213TIP3    H221517   5.262   0.144   5.118
 7214TIP3   OH221518   4.525   0.195   5.894
 7214TIP3    H121519   4.542   0.263   5.959
 7214TIP3    H221520   4.479   0.127   5.942
 7215TIP3   OH221521   5.258   0.370   5.593
 7215TIP3    H121522   5.341   0.337   5.629
 7215TIP3    H221523   5.224   0.428   5.662
 7216TIP3   OH221524   1.032   9.161   5.253
 7216TIP3    H121525   0.950   9.187   5.212
 7216TIP3    H221526   1.060   9.084   5.203
 7217TIP3   OH221527   1.386   9.036   4.933
 7217TIP3    H121528   1.338   8.980   4.872
 7217TIP3    H221529   1.363   9.125   4.907
 7218TIP3   OH221530   5.601   1.569   5.711
 7218TIP3    H121531   5.608   1.575   5.615
 7218TIP3    H221532   5.680   1.612   5.743
 7219TIP3   OH221533   4.522   0.707   6.107
 7219TIP3    H121534   4.604   0.723   6.154
 7219TIP3    H221535   4.455   0.713   6.174
 7220TIP3   OH221536   4.941   0.196   5.411
 7220TIP3    H121537   4.927   0.139   5.336
 7220TIP3    H221538   4.927   0.140   5.487
 7221TIP3   OH221539   4.976   0.040   5.641
 7221TIP3    H121540   4.898  -0.015   5.648
 7221TIP3    H221541   5.038   0.000   5.703
 7222TIP3   OH221542   4.694   0.405   4.759
 7222TIP3    H121543   4.611   0.363   4.736
 7222TIP3    H221544   4.676   0.450   4.841
 7223TIP3   OH221545   5.610   0.694   5.368
 7223TIP3    H121546   5.640   0.745   5.293
 7223TIP3    H221547   5.528   0.653   5.338
 7224TIP3   OH221548   5.131   0.741   5.754
 7224TIP3    H121549   5.080   0.660   5.744
 7224TIP3    H221550   5.075   0.798   5.806
 7225TIP3   OH221551   4.362   0.439   5.390
 7225TIP3    H121552   4.399   0.422   5.303
 7225TIP3    H221553   4.432   0.417   5.451
 7226TIP3   OH221554   4.860   0.570   4.621
 7226TIP3    H121555   4.816   0.655   4.616
 7226TIP3    H221556   4.795   0.512   4.663
 7227TIP3   OH221557   4.278   0.362   6.050
 7227TIP3    H121558   4.294   0.334   6.140
 7227TIP3    H221559   4.200   0.314   6.023
 7228TIP3   OH221560   4.996   0.519   6.050
 7228TIP3    H121561   4.932   0.448   6.048
 7228TIP3    H221562   5.062   0.494   5.986
 7229TIP3   OH221563   5.245   1.025   5.649
 7229TIP3    H121564   5.153   1.005   5.667
 7229TIP3    H221565   5.279   1.056   5.733
 7230TIP3   OH221566   2.385   9.224   4.672
 7230TIP3    H121567   2.423   9.146   4.630
 7230TIP3    H221568   2.392   9.293   4.606
 7231TIP3   OH221569   5.907   0.977   5.626
 7231TIP3    H121570   5.818   0.944   5.639
 7231TIP3    H221571   5.937   0.932   5.547
 7232TIP3   OH221572   5.379   0.881   4.481
 7232TIP3    H121573   5.362   0.806   4.538
 7232TIP3    H221574   5.403   0.843   4.397
 7233TIP3   OH221575   5.367   0.552   5.310
 7233TIP3    H121576   5.282   0.508   5.311
 7233TIP3    H221577   5.427   0.487   5.347
 7234TIP3   OH221578   4.521   0.772   5.082
 7234TIP3    H121579   4.511   0.847   5.024
 7234TIP3    H221580   4.433   0.751   5.111
 7235TIP3   OH221581   4.010   0.096   4.720
 7235TIP3    H121582   4.077   0.151   4.760
 7235TIP3    H221583   3.958   0.063   4.794
 7236TIP3   OH221584   4.621   0.539   4.978
 7236TIP3    H121585   4.604   0.629   5.009
 7236TIP3    H221586   4.579   0.483   5.043
 7237TIP3   OH221587   4.803   1.084   5.524
 7237TIP3    H121588   4.847   1.149   5.470
 7237TIP3    H221589   4.872   1.052   5.583
 7238TIP3   OH221590   4.436   0.986   4.927
 7238TIP3    H121591   4.349   0.992   4.965
 7238TIP3    H221592   4.472   1.075   4.934
 7239TIP3   OH221593   5.174   0.744   5.477
 7239TIP3    H121594   5.170   0.744   5.573
 7239TIP3    H221595   5.247   0.685   5.457
 7240TIP3   OH221596   5.157   0.628   4.369
 7240TIP3    H121597   5.201   0.595   4.447
 7240TIP3    H221598   5.067   0.597   4.376
 7241TIP3   OH221599   5.381   1.236   5.536
 7241TIP3    H121600   5.341   1.161   5.581
 7241TIP3    H221601   5.319   1.259   5.468
 7242TIP3   OH221602   5.469   1.098   4.182
 7242TIP3    H121603   5.506   1.168   4.128
 7242TIP3    H221604   5.393   1.139   4.224
 7243TIP3   OH221605   5.303   0.524   4.573
 7243TIP3    H121606   5.296   0.464   4.647
 7243TIP3    H221607   5.396   0.544   4.567
 7244TIP3   OH221608   4.234   0.978   5.697
 7244TIP3    H121609   4.282   0.917   5.753
 7244TIP3    H221610   4.248   1.064   5.736
 7245TIP3   OH221611   4.501   0.609   4.397
 7245TIP3    H121612   4.510   0.518   4.368
 7245TIP3    H221613   4.486   0.603   4.491
 7246TIP3   OH221614   4.439   0.614   4.667
 7246TIP3    H121615   4.493   0.584   4.740
 7246TIP3    H221616   4.443   0.710   4.672
 7247TIP3   OH221617   4.153   0.312   4.847
 7247TIP3    H121618   4.091   0.359   4.903
 7247TIP3    H221619   4.175   0.375   4.778
 7248TIP3   OH221620   4.721   0.800   4.602
 7248TIP3    H121621   4.635   0.822   4.636
 7248TIP3    H221622   4.741   0.871   4.540
 7249TIP3   OH221623   1.712   9.094   5.039
 7249TIP3    H121624   1.632   9.097   4.985
 7249TIP3    H221625   1.712   9.007   5.077
 7250TIP3   OH221626   5.220   0.202   5.876
 7250TIP3    H121627   5.223   0.298   5.866
 7250TIP3    H221628   5.235   0.168   5.788
 7251TIP3   OH221629   4.470   0.885   4.676
 7251TIP3    H121630   4.450   0.956   4.616
 7251TIP3    H221631   4.457   0.923   4.763
 7252TIP3   OH221632   5.523   0.254   5.165
 7252TIP3    H121633   5.480   0.217   5.242
 7252TIP3    H221634   5.576   0.326   5.199
 7253TIP3   OH221635   4.187   0.501   4.643
 7253TIP3    H121636   4.265   0.554   4.656
 7253TIP3    H221637   4.211   0.438   4.575
 7254TIP3   OH221638   5.429   1.257   5.118
 7254TIP3    H121639   5.383   1.329   5.074
 7254TIP3    H221640   5.522   1.281   5.113
 7255TIP3   OH221641   4.025   0.751   5.043
 7255TIP3    H121642   3.979   0.785   5.120
 7255TIP3    H221643   3.980   0.791   4.969
 7256TIP3   OH221644   4.239   1.281   6.115
 7256TIP3    H121645   4.318   1.290   6.168
 7256TIP3    H221646   4.232   1.187   6.098
 7257TIP3   OH221647   4.692   1.189   6.154
 7257TIP3    H121648   4.782   1.158   6.166
 7257TIP3    H221649   4.658   1.136   6.083
 7258TIP3   OH221650   4.658   0.797   4.274
 7258TIP3    H121651   4.610   0.730   4.323
 7258TIP3    H221652   4.731   0.749   4.233
 7259TIP3   OH221653   5.339   1.128   5.880
 7259TIP3    H121654   5.336   1.070   5.957
 7259TIP3    H221655   5.405   1.194   5.903
 7260TIP3   OH221656   5.099   0.835   4.196
 7260TIP3    H121657   5.137   0.773   4.258
 7260TIP3    H221658   5.156   0.830   4.119
 7261TIP3   OH221659   4.323   0.699   6.301
 7261TIP3    H121660   4.348   0.607   6.312
 7261TIP3    H221661   4.236   0.695   6.261
 7262TIP3   OH221662   4.296   0.307   4.485
 7262TIP3    H121663   4.339   0.286   4.567
 7262TIP3    H221664   4.368   0.325   4.424
 7263TIP3   OH221665   4.947   0.788   6.080
 7263TIP3    H121666   4.899   0.806   5.999
 7263TIP3    H221667   4.977   0.698   6.071
 7264TIP3   OH221668   4.899   0.533   4.354
 7264TIP3    H121669   4.876   0.546   4.445
 7264TIP3    H221670   4.896   0.438   4.341
 7265TIP3   OH221671   5.417   0.783   5.676
 7265TIP3    H121672   5.491   0.828   5.635
 7265TIP3    H221673   5.344   0.845   5.671
 7266TIP3   OH221674   4.431   0.442   6.322
 7266TIP3    H121675   4.514   0.411   6.286
 7266TIP3    H221676   4.451   0.467   6.412
 7267TIP3   OH221677   4.454   0.272   4.711
 7267TIP3    H121678   4.437   0.235   4.797
 7267TIP3    H221679   4.507   0.206   4.666
 7268TIP3   OH221680   4.801   0.328   6.011
 7268TIP3    H121681   4.717   0.374   6.009
 7268TIP3    H221682   4.821   0.312   5.918
 7269TIP3   OH221683   4.622   0.126   4.556
 7269TIP3    H121684   4.578   0.099   4.475
 7269TIP3    H221685   4.716   0.122   4.534
 7270TIP3   OH221686   5.310   0.722   6.067
 7270TIP3    H121687   5.391   0.697   6.023
 7270TIP3    H221688   5.313   0.674   6.150
 7271TIP3   OH221689   5.402   0.339   4.198
 7271TIP3    H121690   5.397   0.302   4.110
 7271TIP3    H221691   5.382   0.432   4.186
 7272TIP3   OH221692   4.804   0.004   5.906
 7272TIP3    H121693   4.899  -0.002   5.897
 7272TIP3    H221694   4.790   0.059   5.982
 7273TIP3   OH221695   4.997   0.513   5.703
 7273TIP3    H121696   4.974   0.423   5.727
 7273TIP3    H221697   4.919   0.549   5.662
 7274TIP3   OH221698   5.640   0.289   6.230
 7274TIP3    H121699   5.584   0.329   6.164
 7274TIP3    H221700   5.618   0.335   6.311
 7275TIP3   OH221701   5.527   0.677   5.900
 7275TIP3    H121702   5.470   0.707   5.828
 7275TIP3    H221703   5.614   0.670   5.861
 7276TIP3   OH221704   4.683   0.337   6.310
 7276TIP3    H121705   4.669   0.249   6.345
 7276TIP3    H221706   4.742   0.379   6.372
 7277TIP3   OH221707   5.100   0.238   6.133
 7277TIP3    H121708   5.182   0.229   6.182
 7277TIP3    H221709   5.126   0.232   6.041
 7278TIP3   OH221710   4.468   1.094   4.495
 7278TIP3    H121711   4.556   1.072   4.465
 7278TIP3    H221712   4.426   1.135   4.419
 7279TIP3   OH221713   3.916   0.495   4.677
 7279TIP3    H121714   4.010   0.513   4.669
 7279TIP3    H221715   3.903   0.412   4.632
 7280TIP3   OH221716   3.827   1.054   5.135
 7280TIP3    H121717   3.763   0.999   5.089
 7280TIP3    H221718   3.872   0.994   5.194
 7281TIP3   OH221719   3.972   0.886   5.300
 7281TIP3    H121720   3.964   0.815   5.364
 7281TIP3    H221721   4.026   0.952   5.344
 7282TIP3   OH221722   5.688   1.357   5.110
 7282TIP3    H121723   5.722   1.345   5.199
 7282TIP3    H221724   5.763   1.337   5.054
 7283TIP3   OH221725   5.736   1.318   5.382
 7283TIP3    H121726   5.687   1.236   5.381
 7283TIP3    H221727   5.805   1.303   5.447
 7284TIP3   OH221728   5.769   1.044   5.953
 7284TIP3    H121729   5.700   1.051   6.019
 7284TIP3    H221730   5.820   1.125   5.961
 7285TIP3   OH221731   5.574   0.573   4.552
 7285TIP3    H121732   5.633   0.642   4.523
 7285TIP3    H221733   5.618   0.533   4.627
 7286TIP3   OH221734   5.710   0.455   4.756
 7286TIP3    H121735   5.656   0.410   4.820
 7286TIP3    H221736   5.780   0.494   4.808
 7287TIP3   OH221737   5.767   0.836   5.196
 7287TIP3    H121738   5.814   0.767   5.149
 7287TIP3    H221739   5.777   0.913   5.141
 7288TIP3   OH221740   5.579   1.089   5.398
 7288TIP3    H121741   5.507   1.137   5.439
 7288TIP3    H221742   5.538   1.046   5.323
 7289TIP3   OH221743   5.631   0.408   4.338
 7289TIP3    H121744   5.549   0.386   4.293
 7289TIP3    H221745   5.604   0.469   4.407
 7290TIP3   OH221746   5.567   0.041   4.279
 7290TIP3    H121747   5.481   0.083   4.277
 7290TIP3    H221748   5.548  -0.052   4.271
 7291TIP3   OH221749   5.546   0.279   4.895
 7291TIP3    H121750   5.552   0.188   4.867
 7291TIP3    H221751   5.542   0.274   4.991
 7292TIP3   OH221752   4.118   0.311   5.688
 7292TIP3    H121753   4.112   0.298   5.594
 7292TIP3    H221754   4.211   0.330   5.704
 7293TIP3   OH221755   5.760   0.704   5.756
 7293TIP3    H121756   5.762   0.616   5.719
 7293TIP3    H221757   5.726   0.759   5.686
 7294TIP3   OH221758   6.030   0.498   5.775
 7294TIP3    H121759   5.937   0.481   5.761
 7294TIP3    H221760   6.038   0.517   5.869
 7295TIP3   OH221761   5.405   0.018   4.804
 7295TIP3    H121762   5.416  -0.005   4.896
 7295TIP3    H221763   5.485  -0.014   4.762
 7296TIP3   OH221764   5.741   0.107   5.347
 7296TIP3    H121765   5.759   0.192   5.307
 7296TIP3    H221766   5.792   0.107   5.428
 7297TIP3   OH221767   4.058   0.032   5.698
 7297TIP3    H121768   4.114   0.020   5.622
 7297TIP3    H221769   4.062   0.126   5.717
 7298TIP3   OH221770   5.282   1.237   4.754
 7298TIP3    H121771   5.322   1.197   4.677
 7298TIP3    H221772   5.326   1.322   4.761
 7299TIP3   OH221773   4.355   1.007   6.124
 7299TIP3    H121774   4.264   0.980   6.120
 7299TIP3    H221775   4.379   0.998   6.216
 7300TIP3   OH221776   4.576   1.057   5.679
 7300TIP3    H121777   4.526   1.132   5.648
 7300TIP3    H221778   4.660   1.063   5.632
 7301TIP3   OH221779   4.978   1.282   5.826
 7301TIP3    H121780   5.020   1.267   5.911
 7301TIP3    H221781   5.042   1.333   5.776
 7302TIP3   OH221782   5.167   1.427   5.686
 7302TIP3    H121783   5.231   1.375   5.636
 7302TIP3    H221784   5.221   1.483   5.742
 7303TIP3   OH221785   4.236   1.284   5.729
 7303TIP3    H121786   4.144   1.301   5.708
 7303TIP3    H221787   4.258   1.350   5.794
 7304TIP3   OH221788   4.464   1.284   5.576
 7304TIP3    H121789   4.381   1.286   5.623
 7304TIP3    H221790   4.441   1.305   5.486
 7305TIP3   OH221791   4.898   1.284   5.357
 7305TIP3    H121792   4.820   1.295   5.302
 7305TIP3    H221793   4.904   1.365   5.408
 7306TIP3   OH221794   5.181   1.273   5.354
 7306TIP3    H121795   5.085   1.278   5.358
 7306TIP3    H221796   5.199   1.246   5.264
 7307TIP3   OH221797   4.147   1.063   5.446
 7307TIP3    H121798   4.174   1.038   5.535
 7307TIP3    H221799   4.219   1.032   5.390
 7308TIP3   OH221800   4.350   0.958   5.300
 7308TIP3    H121801   4.360   0.873   5.343
 7308TIP3    H221802   4.438   0.997   5.302
 7309TIP3   OH221803   4.620   1.032   5.324
 7309TIP3    H121804   4.636   0.939   5.310
 7309TIP3    H221805   4.674   1.055   5.399
 7310TIP3   OH221806   3.905   0.863   4.821
 7310TIP3    H121807   3.822   0.829   4.786
 7310TIP3    H221808   3.909   0.953   4.790
 7311TIP3   OH221809   4.720   1.017   4.421
 7311TIP3    H121810   4.804   1.044   4.383
 7311TIP3    H221811   4.690   0.948   4.362
 7312TIP3   OH221812   5.407   1.148   4.524
 7312TIP3    H121813   5.402   1.053   4.514
 7312TIP3    H221814   5.369   1.183   4.443
 7313TIP3   OH221815   4.029   0.858   4.484
 7313TIP3    H121816   4.028   0.858   4.579
 7313TIP3    H221817   4.108   0.810   4.461
 7314TIP3   OH221818   5.623   1.294   5.692
 7314TIP3    H121819   5.544   1.267   5.645
 7314TIP3    H221820   5.608   1.386   5.713
 7315TIP3   OH221821   6.867   0.661   4.460
 7315TIP3    H121822   6.847   0.739   4.408
 7315TIP3    H221823   6.858   0.689   4.551
 7316TIP3   OH221824   6.927   0.619   4.789
 7316TIP3    H121825   6.965   0.634   4.876
 7316TIP3    H221826   6.846   0.571   4.806
 7317TIP3   OH221827   6.172   0.603   5.196
 7317TIP3    H121828   6.208   0.551   5.268
 7317TIP3    H221829   6.249   0.637   5.151
 7318TIP3   OH221830   7.182   0.980   4.558
 7318TIP3    H121831   7.170   0.924   4.635
 7318TIP3    H221832   7.203   1.066   4.595
 7319TIP3   OH221833   6.102   0.944   4.961
 7319TIP3    H121834   6.116   0.856   4.925
 7319TIP3    H221835   6.190   0.976   4.979
 7320TIP3   OH221836   5.859   0.224   4.703
 7320TIP3    H121837   5.832   0.310   4.734
 7320TIP3    H221838   5.795   0.201   4.636
 7321TIP3   OH221839   5.952   0.521   4.869
 7321TIP3    H121840   5.995   0.444   4.904
 7321TIP3    H221841   6.023   0.583   4.852
 7322TIP3   OH221842   6.832   1.420   4.554
 7322TIP3    H121843   6.864   1.353   4.494
 7322TIP3    H221844   6.812   1.373   4.634
 7323TIP3   OH221845   6.716   0.898   4.903
 7323TIP3    H121846   6.705   0.907   4.808
 7323TIP3    H221847   6.806   0.927   4.919
 7324TIP3   OH221848   7.199   0.417   4.884
 7324TIP3    H121849   7.270   0.405   4.947
 7324TIP3    H221850   7.152   0.334   4.885
 7325TIP3   OH221851   6.050   0.299   4.988
 7325TIP3    H121852   6.142   0.275   5.000
 7325TIP3    H221853   6.002   0.218   5.003
 7326TIP3   OH221854   6.499   0.558   4.815
 7326TIP3    H121855   6.588   0.526   4.827
 7326TIP3    H221856   6.447   0.479   4.796
 7327TIP3   OH221857   7.767   0.325   5.071
 7327TIP3    H121858   7.762   0.418   5.048
 7327TIP3    H221859   7.856   0.314   5.105
 7328TIP3   OH221860   6.826   0.882   4.307
 7328TIP3    H121861   6.786   0.856   4.225
 7328TIP3    H221862   6.778   0.961   4.333
 7329TIP3   OH221863   6.558   0.860   5.120
 7329TIP3    H121864   6.493   0.930   5.128
 7329TIP3    H221865   6.607   0.881   5.040
 7330TIP3   OH221866   6.311   0.222   5.014
 7330TIP3    H121867   6.357   0.284   5.071
 7330TIP3    H221868   6.380   0.183   4.960
 7331TIP3   OH221869   6.368   1.044   5.176
 7331TIP3    H121870   6.363   1.138   5.158
 7331TIP3    H221871   6.295   1.027   5.237
 7332TIP3   OH221872   5.762   0.744   4.445
 7332TIP3    H121873   5.735   0.768   4.356
 7332TIP3    H221874   5.788   0.827   4.485
 7333TIP3   OH221875   7.221   1.234   4.682
 7333TIP3    H121876   7.134   1.228   4.723
 7333TIP3    H221877   7.221   1.319   4.638
 7334TIP3   OH221878   6.927   1.265   4.342
 7334TIP3    H121879   6.981   1.186   4.333
 7334TIP3    H221880   6.985   1.336   4.314
 7335TIP3   OH221881   7.066   1.033   4.311
 7335TIP3    H121882   6.999   0.965   4.302
 7335TIP3    H221883   7.116   1.007   4.389
 7336TIP3   OH221884   7.453   1.131   5.051
 7336TIP3    H121885   7.429   1.063   4.989
 7336TIP3    H221886   7.434   1.213   5.005
 7337TIP3   OH221887   6.715   0.334   4.047
 7337TIP3    H121888   6.780   0.404   4.042
 7337TIP3    H221889   6.749   0.267   3.988
 7338TIP3   OH221890   7.634   0.819   4.890
 7338TIP3    H121891   7.542   0.846   4.893
 7338TIP3    H221892   7.661   0.835   4.800
 7339TIP3   OH221893   7.074   0.638   4.270
 7339TIP3    H121894   7.018   0.647   4.346
 7339TIP3    H221895   7.161   0.616   4.305
 7340TIP3   OH221896   7.278   0.712   5.162
 7340TIP3    H121897   7.269   0.807   5.171
 7340TIP3    H221898   7.197   0.683   5.122
 7341TIP3   OH221899   6.310   0.649   4.632
 7341TIP3    H121900   6.271   0.570   4.593
 7341TIP3    H221901   6.382   0.616   4.685
 7342TIP3   OH221902   6.394   0.658   5.042
 7342TIP3    H121903   6.438   0.632   4.961
 7342TIP3    H221904   6.450   0.725   5.080
 7343TIP3   OH221905   6.986   1.229   4.817
 7343TIP3    H121906   6.974   1.302   4.877
 7343TIP3    H221907   6.972   1.151   4.872
 7344TIP3   OH221908   6.584   1.125   5.350
 7344TIP3    H121909   6.524   1.185   5.395
 7344TIP3    H221910   6.528   1.074   5.292
 7345TIP3   OH221911   6.929   0.487   4.091
 7345TIP3    H121912   6.978   0.537   4.156
 7345TIP3    H221913   6.974   0.505   4.008
 7346TIP3   OH221914   6.337   0.704   5.489
 7346TIP3    H121915   6.347   0.796   5.515
 7346TIP3    H221916   6.243   0.686   5.500
 7347TIP3   OH221917   6.694   1.118   4.351
 7347TIP3    H121918   6.766   1.181   4.353
 7347TIP3    H221919   6.621   1.166   4.312
 7348TIP3   OH221920   6.384   1.289   5.443
 7348TIP3    H121921   6.357   1.305   5.352
 7348TIP3    H221922   6.302   1.273   5.490
 7349TIP3   OH221923   6.177   0.462   4.473
 7349TIP3    H121924   6.100   0.513   4.447
 7349TIP3    H221925   6.142   0.375   4.494
 7350TIP3   OH221926   7.259   1.076   3.712
 7350TIP3    H121927   7.252   1.168   3.689
 7350TIP3    H221928   7.349   1.052   3.688
 7351TIP3   OH221929   5.976   0.845   5.398
 7351TIP3    H121930   5.907   0.829   5.334
 7351TIP3    H221931   6.007   0.757   5.422
 7352TIP3   OH221932   5.861   1.043   5.036
 7352TIP3    H121933   5.938   1.000   5.000
 7352TIP3    H221934   5.896   1.111   5.095
 7353TIP3   OH221935   7.685   1.506   5.102
 7353TIP3    H121936   7.692   1.411   5.111
 7353TIP3    H221937   7.604   1.528   5.149
 7354TIP3   OH221938   6.797   1.259   5.237
 7354TIP3    H121939   6.786   1.350   5.263
 7354TIP3    H221940   6.723   1.213   5.275
 7355TIP3   OH221941   6.568   1.367   4.178
 7355TIP3    H121942   6.520   1.345   4.098
 7355TIP3    H221943   6.526   1.448   4.209
 7356TIP3   OH221944   5.969   1.243   4.542
 7356TIP3    H121945   6.050   1.263   4.590
 7356TIP3    H221946   5.955   1.150   4.557
 7357TIP3   OH221947   6.769   1.303   3.808
 7357TIP3    H121948   6.819   1.230   3.771
 7357TIP3    H221949   6.804   1.314   3.896
 7358TIP3   OH221950   6.822   1.340   4.079
 7358TIP3    H121951   6.734   1.346   4.118
 7358TIP3    H221952   6.876   1.303   4.148
 7359TIP3   OH221953   7.583   0.653   5.279
 7359TIP3    H121954   7.526   0.727   5.299
 7359TIP3    H221955   7.528   0.576   5.291
 7360TIP3   OH221956   6.166   1.040   5.361
 7360TIP3    H121957   6.219   1.032   5.440
 7360TIP3    H221958   6.099   0.972   5.370
 7361TIP3   OH221959   7.356   0.529   5.372
 7361TIP3    H121960   7.308   0.447   5.361
 7361TIP3    H221961   7.326   0.584   5.300
 7362TIP3   OH221962   7.044   0.495   3.842
 7362TIP3    H121963   6.977   0.503   3.774
 7362TIP3    H221964   7.118   0.545   3.807
 7363TIP3   OH221965   6.452   0.412   5.154
 7363TIP3    H121966   6.411   0.407   5.240
 7363TIP3    H221967   6.415   0.492   5.115
 7364TIP3   OH221968   6.338   0.358   4.734
 7364TIP3    H121969   6.277   0.286   4.749
 7364TIP3    H221970   6.407   0.320   4.681
 7365TIP3   OH221971   7.040   0.731   5.448
 7365TIP3    H121972   6.968   0.692   5.497
 7365TIP3    H221973   7.119   0.705   5.497
 7366TIP3   OH221974   6.951   0.377   4.621
 7366TIP3    H121975   6.966   0.466   4.653
 7366TIP3    H221976   7.039   0.343   4.605
 7367TIP3   OH221977   6.307   0.450   5.381
 7367TIP3    H121978   6.321   0.525   5.439
 7367TIP3    H221979   6.265   0.384   5.436
 7368TIP3   OH221980   7.057   0.603   5.033
 7368TIP3    H121981   7.109   0.536   4.988
 7368TIP3    H221982   7.029   0.561   5.114
 7369TIP3   OH221983   6.146   0.147   4.757
 7369TIP3    H121984   6.084   0.213   4.788
 7369TIP3    H221985   6.094   0.067   4.750
 7370TIP3   OH221986   6.444   0.113   4.426
 7370TIP3    H121987   6.514   0.049   4.413
 7370TIP3    H221988   6.475   0.192   4.380
 7371TIP3   OH221989   6.196   0.216   4.260
 7371TIP3    H121990   6.108   0.228   4.297
 7371TIP3    H221991   6.247   0.179   4.332
 7372TIP3   OH221992   7.391   1.834   5.191
 7372TIP3    H121993   7.395   1.832   5.095
 7372TIP3    H221994   7.473   1.874   5.217
 7373TIP3   OH221995   6.331   0.966   5.588
 7373TIP3    H121996   6.411   0.981   5.638
 7373TIP3    H221997   6.262   0.961   5.655
 7374TIP3   OH221998   6.734   0.424   4.869
 7374TIP3    H121999   6.699   0.358   4.809
 7374TIP3    H222000   6.726   0.384   4.956
 7375TIP3   OH222001   6.785   0.303   5.120
 7375TIP3    H122002   6.705   0.251   5.129
 7375TIP3    H222003   6.831   0.290   5.203
 7376TIP3   OH222004   6.500   0.629   4.243
 7376TIP3    H122005   6.417   0.601   4.205
 7376TIP3    H222006   6.475   0.693   4.310
 7377TIP3   OH222007   7.392   0.959   4.855
 7377TIP3    H122008   7.431   1.007   4.782
 7377TIP3    H222009   7.313   0.919   4.818
 7378TIP3   OH222010   6.955   1.016   5.229
 7378TIP3    H122011   6.902   0.941   5.257
 7378TIP3    H222012   6.901   1.092   5.251
 7379TIP3   OH222013   6.171   0.691   4.869
 7379TIP3    H122014   6.213   0.688   4.783
 7379TIP3    H222015   6.241   0.671   4.931
 7380TIP3   OH222016   6.653   0.815   4.101
 7380TIP3    H122017   6.601   0.895   4.106
 7380TIP3    H222018   6.603   0.750   4.149
 7381TIP3   OH222019   6.078   0.609   5.523
 7381TIP3    H122020   6.075   0.588   5.617
 7381TIP3    H222021   6.002   0.564   5.487
 7382TIP3   OH222022   6.757   0.788   5.539
 7382TIP3    H122023   6.702   0.710   5.542
 7382TIP3    H222024   6.778   0.798   5.447
 7383TIP3   OH222025   7.058   1.308   5.140
 7383TIP3    H122026   6.967   1.281   5.152
 7383TIP3    H222027   7.088   1.331   5.228
 7384TIP3   OH222028   7.526   0.279   4.122
 7384TIP3    H122029   7.538   0.206   4.061
 7384TIP3    H222030   7.447   0.323   4.092
 7385TIP3   OH222031   7.703   1.234   5.114
 7385TIP3    H122032   7.611   1.207   5.122
 7385TIP3    H222033   7.731   1.197   5.031
 7386TIP3   OH222034   7.183   1.143   3.976
 7386TIP3    H122035   7.158   1.071   4.035
 7386TIP3    H222036   7.204   1.100   3.893
 7387TIP3   OH222037   7.165   0.805   4.784
 7387TIP3    H122038   7.089   0.749   4.765
 7387TIP3    H222039   7.229   0.745   4.822
 7388TIP3   OH222040   6.333   1.039   4.560
 7388TIP3    H122041   6.346   1.128   4.592
 7388TIP3    H222042   6.240   1.021   4.576
 7389TIP3   OH222043   5.877   0.339   4.261
 7389TIP3    H122044   5.934   0.411   4.290
 7389TIP3    H222045   5.788   0.370   4.281
 7390TIP3   OH222046   6.386   0.807   4.420
 7390TIP3    H122047   6.393   0.895   4.456
 7390TIP3    H222048   6.357   0.753   4.493
 7391TIP3   OH222049   6.604   1.328   5.038
 7391TIP3    H122050   6.629   1.387   4.967
 7391TIP3    H222051   6.687   1.303   5.079
 7392TIP3   OH222052   6.176   1.252   4.355
 7392TIP3    H122053   6.086   1.258   4.385
 7392TIP3    H222054   6.229   1.273   4.432
 7393TIP3   OH222055   6.974   0.984   4.955
 7393TIP3    H122056   6.976   0.990   5.050
 7393TIP3    H222057   7.051   0.930   4.933
 7394TIP3   OH222058   6.935   0.886   3.858
 7394TIP3    H122059   6.986   0.861   3.934
 7394TIP3    H222060   6.847   0.851   3.874
 7395TIP3   OH222061   7.215   1.506   5.029
 7395TIP3    H122062   7.148   1.442   5.053
 7395TIP3    H222063   7.174   1.558   4.959
 7396TIP3   OH222064   7.251   1.346   3.660
 7396TIP3    H122065   7.257   1.400   3.581
 7396TIP3    H222066   7.183   1.389   3.713
 7397TIP3   OH222067   7.105   0.808   4.053
 7397TIP3    H122068   7.089   0.755   4.132
 7397TIP3    H222069   7.200   0.822   4.053
 7398TIP3   OH222070   6.017   1.231   5.176
 7398TIP3    H122071   6.068   1.174   5.234
 7398TIP3    H222072   6.032   1.319   5.209
 7399TIP3   OH222073   6.294   0.866   3.897
 7399TIP3    H122074   6.305   0.777   3.863
 7399TIP3    H222075   6.288   0.855   3.992
 7400TIP3   OH222076   6.247   0.857   4.175
 7400TIP3    H122077   6.294   0.843   4.257
 7400TIP3    H222078   6.243   0.953   4.165
 7401TIP3   OH222079   5.969   0.586   4.352
 7401TIP3    H122080   5.899   0.628   4.402
 7401TIP3    H222081   5.984   0.645   4.278
 7402TIP3   OH222082   6.508   1.046   4.091
 7402TIP3    H122083   6.417   1.067   4.112
 7402TIP3    H222084   6.539   1.120   4.039
 7403TIP3   OH222085   6.761   0.123   4.561
 7403TIP3    H122086   6.840   0.140   4.510
 7403TIP3    H222087   6.771   0.032   4.590
 7404TIP3   OH222088   7.004   0.507   5.286
 7404TIP3    H122089   6.999   0.591   5.331
 7404TIP3    H222090   7.072   0.458   5.333
 7405TIP3   OH222091   6.247   1.126   4.128
 7405TIP3    H122092   6.232   1.192   4.060
 7405TIP3    H222093   6.223   1.170   4.210
 7406TIP3   OH222094   7.285   0.514   4.643
 7406TIP3    H122095   7.253   0.485   4.728
 7406TIP3    H222096   7.353   0.579   4.664
 7407TIP3   OH222097   5.991   0.755   4.133
 7407TIP3    H122098   6.067   0.811   4.150
 7407TIP3    H222099   6.021   0.694   4.066
 7408TIP3   OH222100   5.854   0.056   4.244
 7408TIP3    H122101   5.873   0.147   4.265
 7408TIP3    H222102   5.759   0.047   4.256
 7409TIP3   OH222103   7.240   1.504   4.607
 7409TIP3    H122104   7.196   1.555   4.539
 7409TIP3    H222105   7.333   1.514   4.588
 7410TIP3   OH222106   5.823   0.996   4.540
 7410TIP3    H122107   5.792   1.041   4.619
 7410TIP3    H222108   5.786   1.047   4.468
 7411TIP3   OH222109   6.030   1.542   5.599
 7411TIP3    H122110   6.112   1.543   5.649
 7411TIP3    H222111   6.006   1.449   5.595
 7412TIP3   OH222112   6.494   1.451   5.636
 7412TIP3    H122113   6.584   1.421   5.648
 7412TIP3    H222114   6.460   1.396   5.565
 7413TIP3   OH222115   6.454   1.047   3.766
 7413TIP3    H122116   6.403   0.985   3.818
 7413TIP3    H222117   6.527   0.996   3.731
 7414TIP3   OH222118   7.121   1.388   5.394
 7414TIP3    H122119   7.131   1.324   5.464
 7414TIP3    H222120   7.192   1.451   5.409
 7415TIP3   OH222121   6.892   1.093   3.684
 7415TIP3    H122122   6.922   1.028   3.747
 7415TIP3    H222123   6.951   1.083   3.609
 7416TIP3   OH222124   6.130   0.982   5.784
 7416TIP3    H122125   6.159   0.892   5.801
 7416TIP3    H222126   6.045   0.973   5.741
 7417TIP3   OH222127   6.114   0.563   3.984
 7417TIP3    H122128   6.165   0.536   4.060
 7417TIP3    H222129   6.180   0.582   3.917
 7418TIP3   OH222130   6.739   1.059   5.567
 7418TIP3    H122131   6.691   1.076   5.485
 7418TIP3    H222132   6.762   0.967   5.562
 7419TIP3   OH222133   6.667   0.793   3.830
 7419TIP3    H122134   6.653   0.800   3.925
 7419TIP3    H222135   6.657   0.700   3.811
 7420TIP3   OH222136   7.222   0.984   5.181
 7420TIP3    H122137   7.257   1.064   5.143
 7420TIP3    H222138   7.131   1.005   5.204
 7421TIP3   OH222139   6.229   0.729   5.766
 7421TIP3    H122140   6.293   0.673   5.721
 7421TIP3    H222141   6.246   0.713   5.859
 7422TIP3   OH222142   6.261   0.482   4.209
 7422TIP3    H122143   6.236   0.504   4.299
 7422TIP3    H222144   6.242   0.388   4.202
 7423TIP3   OH222145   6.588   0.577   5.468
 7423TIP3    H122146   6.505   0.623   5.476
 7423TIP3    H222147   6.612   0.587   5.375
 7424TIP3   OH222148   6.445   0.270   4.007
 7424TIP3    H122149   6.400   0.302   3.929
 7424TIP3    H222150   6.535   0.301   3.997
 7425TIP3   OH222151   7.104   0.968   5.575
 7425TIP3    H122152   7.074   0.908   5.507
 7425TIP3    H222153   7.104   0.915   5.656
 7426TIP3   OH222154   7.231   0.615   3.682
 7426TIP3    H122155   7.207   0.569   3.602
 7426TIP3    H222156   7.196   0.704   3.670
 7427TIP3   OH222157   6.600   0.296   5.427
 7427TIP3    H122158   6.693   0.291   5.407
 7427TIP3    H222159   6.585   0.388   5.451
 7428TIP3   OH222160   6.779   0.802   5.267
 7428TIP3    H122161   6.780   0.709   5.244
 7428TIP3    H222162   6.701   0.837   5.223
 7429TIP3   OH222163   7.446   0.596   5.731
 7429TIP3    H122164   7.361   0.598   5.686
 7429TIP3    H222165   7.428   0.634   5.817
 7430TIP3   OH222166   7.388   0.904   5.387
 7430TIP3    H122167   7.307   0.925   5.341
 7430TIP3    H222168   7.457   0.928   5.326
 7431TIP3   OH222169   6.484   0.597   5.791
 7431TIP3    H122170   6.422   0.556   5.852
 7431TIP3    H222171   6.493   0.686   5.824
 7432TIP3   OH222172   6.907   0.536   5.586
 7432TIP3    H122173   6.955   0.513   5.665
 7432TIP3    H222174   6.839   0.469   5.579
 7433TIP3   OH222175   6.253   1.335   3.949
 7433TIP3    H122176   6.346   1.322   3.934
 7433TIP3    H222177   6.223   1.386   3.873
 7434TIP3   OH222178   5.720   0.746   4.159
 7434TIP3    H122179   5.814   0.761   4.152
 7434TIP3    H222180   5.707   0.659   4.120
 7435TIP3   OH222181   5.608   1.304   4.633
 7435TIP3    H122182   5.552   1.243   4.584
 7435TIP3    H222183   5.667   1.246   4.683
 7436TIP3   OH222184   5.786   1.148   4.781
 7436TIP3    H122185   5.779   1.093   4.859
 7436TIP3    H222186   5.858   1.208   4.800
 7437TIP3   OH222187   7.513   1.544   4.591
 7437TIP3    H122188   7.538   1.567   4.681
 7437TIP3    H222189   7.573   1.594   4.536
 7438TIP3   OH222190   7.541   1.569   4.870
 7438TIP3    H122191   7.491   1.487   4.868
 7438TIP3    H222192   7.608   1.555   4.937
 7439TIP3   OH222193   7.567   1.306   5.424
 7439TIP3    H122194   7.500   1.310   5.492
 7439TIP3    H222195   7.618   1.387   5.436
 7440TIP3   OH222196   7.379   0.840   4.047
 7440TIP3    H122197   7.442   0.906   4.017
 7440TIP3    H222198   7.421   0.800   4.123
 7441TIP3   OH222199   7.504   0.710   4.253
 7441TIP3    H122200   7.442   0.661   4.308
 7441TIP3    H222201   7.571   0.740   4.314
 7442TIP3   OH222202   7.570   1.079   4.685
 7442TIP3    H122203   7.617   1.008   4.641
 7442TIP3    H222204   7.576   1.153   4.624
 7443TIP3   OH222205   7.385   1.340   4.885
 7443TIP3    H122206   7.316   1.390   4.930
 7443TIP3    H222207   7.340   1.299   4.812
 7444TIP3   OH222208   7.426   0.639   3.869
 7444TIP3    H122209   7.362   0.638   3.798
 7444TIP3    H222210   7.404   0.716   3.921
 7445TIP3   OH222211   7.358   0.257   3.787
 7445TIP3    H122212   7.273   0.255   3.742
 7445TIP3    H222213   7.337   0.237   3.878
 7446TIP3   OH222214   7.314   0.541   4.371
 7446TIP3    H122215   7.286   0.459   4.331
 7446TIP3    H222216   7.304   0.526   4.465
 7447TIP3   OH222217   5.918   0.626   5.117
 7447TIP3    H122218   5.917   0.598   5.026
 7447TIP3    H222219   6.010   0.625   5.142
 7448TIP3   OH222220   7.591   0.956   5.216
 7448TIP3    H122221   7.663   0.918   5.165
 7448TIP3    H222222   7.546   1.014   5.154
 7449TIP3   OH222223   7.823   0.780   5.245
 7449TIP3    H122224   7.743   0.742   5.282
 7449TIP3    H222225   7.864   0.826   5.318
 7450TIP3   OH222226   7.201   0.287   4.289
 7450TIP3    H122227   7.276   0.254   4.339
 7450TIP3    H222228   7.219   0.262   4.199
 7451TIP3   OH222229   7.530   0.426   4.833
 7451TIP3    H122230   7.568   0.479   4.762
 7451TIP3    H222231   7.584   0.446   4.909
 7452TIP3   OH222232   7.664   0.578   5.023
 7452TIP3    H122233   7.644   0.605   5.112
 7452TIP3    H222234   7.656   0.659   4.972
 7453TIP3   OH222235   5.857   0.326   5.217
 7453TIP3    H122236   5.919   0.362   5.154
 7453TIP3    H222237   5.846   0.395   5.282
 7454TIP3   OH222238   7.074   1.465   4.239
 7454TIP3    H122239   7.126   1.450   4.159
 7454TIP3    H222240   7.116   1.540   4.281
 7455TIP3   OH222241   6.162   1.251   5.606
 7455TIP3    H122242   6.067   1.245   5.602
 7455TIP3    H222243   6.187   1.199   5.682
 7456TIP3   OH222244   6.365   1.316   5.165
 7456TIP3    H122245   6.321   1.394   5.131
 7456TIP3    H222246   6.451   1.316   5.123
 7457TIP3   OH222247   6.769   1.529   5.307
 7457TIP3    H122248   6.810   1.524   5.394
 7457TIP3    H222249   6.828   1.585   5.256
 7458TIP3   OH222250   6.951   1.688   5.172
 7458TIP3    H122251   7.004   1.631   5.116
 7458TIP3    H222252   7.014   1.740   5.221
 7459TIP3   OH222253   6.029   1.542   5.215
 7459TIP3    H122254   5.940   1.574   5.200
 7459TIP3    H222255   6.065   1.601   5.281
 7460TIP3   OH222256   6.261   1.546   5.063
 7460TIP3    H122257   6.173   1.546   5.101
 7460TIP3    H222258   6.247   1.567   4.970
 7461TIP3   OH222259   6.680   1.521   4.849
 7461TIP3    H122260   6.605   1.529   4.789
 7461TIP3    H222261   6.686   1.606   4.892
 7462TIP3   OH222262   6.949   1.500   4.904
 7462TIP3    H122263   6.856   1.500   4.882
 7462TIP3    H222264   6.989   1.560   4.841
 7463TIP3   OH222265   7.165   1.679   4.807
 7463TIP3    H122266   7.150   1.762   4.762
 7463TIP3    H222267   7.188   1.618   4.738
 7464TIP3   OH222268   5.999   1.309   4.889
 7464TIP3    H122269   6.022   1.275   4.976
 7464TIP3    H222270   6.082   1.305   4.840
 7465TIP3   OH222271   5.711   1.121   4.321
 7465TIP3    H122272   5.628   1.088   4.289
 7465TIP3    H222273   5.715   1.211   4.289
 7466TIP3   OH222274   6.517   1.269   3.911
 7466TIP3    H122275   6.600   1.297   3.873
 7466TIP3    H222276   6.488   1.197   3.855
 7467TIP3   OH222277   7.216   1.412   4.007
 7467TIP3    H122278   7.209   1.316   4.001
 7467TIP3    H222279   7.171   1.444   3.929
 7468TIP3   OH222280   5.812   1.100   3.969
 7468TIP3    H122281   5.820   1.117   4.062
 7468TIP3    H222282   5.894   1.058   3.945
 7469TIP3   OH222283   7.431   1.559   5.195
 7469TIP3    H122284   7.359   1.528   5.141
 7469TIP3    H222285   7.413   1.653   5.207
 7470TIP3   OH222286   8.713   0.928   3.951
 7470TIP3    H122287   8.690   1.019   3.933
 7470TIP3    H222288   8.646   0.877   3.905
 7471TIP3   OH222289   8.631   0.934   4.328
 7471TIP3    H122290   8.678   0.940   4.411
 7471TIP3    H222291   8.599   0.844   4.325
 7472TIP3   OH222292   7.981   0.854   4.693
 7472TIP3    H122293   8.021   0.802   4.763
 7472TIP3    H222294   8.055   0.884   4.641
 7473TIP3   OH222295   8.948   1.237   4.036
 7473TIP3    H122296   8.928   1.176   4.107
 7473TIP3    H222297   8.977   1.316   4.081
 7474TIP3   OH222298   7.981   1.231   4.397
 7474TIP3    H122299   7.961   1.137   4.393
 7474TIP3    H222300   8.076   1.236   4.386
 7475TIP3   OH222301   7.666   0.512   4.152
 7475TIP3    H122302   7.611   0.587   4.175
 7475TIP3    H222303   7.604   0.439   4.144
 7476TIP3   OH222304   7.751   0.775   4.376
 7476TIP3    H122305   7.801   0.696   4.395
 7476TIP3    H222306   7.818   0.840   4.353
 7477TIP3   OH222307   8.651   1.646   4.057
 7477TIP3    H122308   8.662   1.580   3.988
 7477TIP3    H222309   8.669   1.598   4.138
 7478TIP3   OH222310   8.491   1.172   4.358
 7478TIP3    H122311   8.523   1.086   4.329
 7478TIP3    H222312   8.570   1.223   4.375
 7479TIP3   OH222313   8.971   0.823   4.373
 7479TIP3    H122314   9.045   0.775   4.411
 7479TIP3    H222315   8.951   0.774   4.293
 7480TIP3   OH222316   7.853   0.535   4.489
 7480TIP3    H122317   7.946   0.529   4.510
 7480TIP3    H222318   7.842   0.476   4.414
 7481TIP3   OH222319   8.303   0.781   4.315
 7481TIP3    H122320   8.390   0.742   4.331
 7481TIP3    H222321   8.244   0.706   4.309
 7482TIP3   OH222322   8.616   1.158   3.815
 7482TIP3    H122323   8.576   1.123   3.735
 7482TIP3    H222324   8.558   1.229   3.842
 7483TIP3   OH222325   8.368   1.108   4.598
 7483TIP3    H122326   8.304   1.174   4.622
 7483TIP3    H222327   8.406   1.140   4.516
 7484TIP3   OH222328   8.110   0.459   4.527
 7484TIP3    H122329   8.161   0.526   4.574
 7484TIP3    H222330   8.161   0.442   4.448
 7485TIP3   OH222331   8.185   1.294   4.678
 7485TIP3    H122332   8.174   1.384   4.648
 7485TIP3    H222333   8.106   1.276   4.729
 7486TIP3   OH222334   7.568   1.004   3.930
 7486TIP3    H122335   7.538   1.021   3.841
 7486TIP3    H222336   7.592   1.090   3.964
 7487TIP3   OH222337   8.992   1.483   4.171
 7487TIP3    H122338   8.901   1.483   4.202
 7487TIP3    H222339   9.007   1.571   4.139
 7488TIP3   OH222340   8.718   1.500   3.825
 7488TIP3    H122341   8.781   1.429   3.814
 7488TIP3    H222342   8.767   1.579   3.803
 7489TIP3   OH222343   8.867   1.261   3.774
 7489TIP3    H122344   8.780   1.223   3.788
 7489TIP3    H222345   8.911   1.252   3.858
 7490TIP3   OH222346   8.555   0.785   3.774
 7490TIP3    H122347   8.466   0.820   3.766
 7490TIP3    H222348   8.588   0.783   3.684
 7491TIP3   OH222349   8.472   0.573   3.538
 7491TIP3    H122350   8.543   0.635   3.520
 7491TIP3    H222351   8.514   0.504   3.589
 7492TIP3   OH222352   8.883   0.841   3.745
 7492TIP3    H122353   8.835   0.871   3.822
 7492TIP3    H222354   8.963   0.802   3.781
 7493TIP3   OH222355   9.057   0.944   4.691
 7493TIP3    H122356   9.103   1.014   4.737
 7493TIP3    H222357   8.982   0.988   4.651
 7494TIP3   OH222358   8.117   0.895   4.137
 7494TIP3    H122359   8.081   0.828   4.079
 7494TIP3    H222360   8.188   0.851   4.183
 7495TIP3   OH222361   8.240   1.274   4.298
 7495TIP3    H122362   8.221   1.262   4.205
 7495TIP3    H222363   8.328   1.239   4.310
 7496TIP3   OH222364   8.200   0.902   4.533
 7496TIP3    H122365   8.242   0.871   4.452
 7496TIP3    H222366   8.260   0.969   4.567
 7497TIP3   OH222367   8.740   1.497   4.276
 7497TIP3    H122368   8.734   1.569   4.340
 7497TIP3    H222369   8.734   1.418   4.329
 7498TIP3   OH222370   8.387   1.383   4.847
 7498TIP3    H122371   8.326   1.442   4.891
 7498TIP3    H222372   8.332   1.330   4.789
 7499TIP3   OH222373   8.724   0.710   3.555
 7499TIP3    H122374   8.785   0.747   3.619
 7499TIP3    H222375   8.749   0.751   3.472
 7500TIP3   OH222376   8.143   0.959   4.987
 7500TIP3    H122377   8.152   1.051   5.013
 7500TIP3    H222378   8.049   0.943   4.987
 7501TIP3   OH222379   8.466   1.390   3.842
 7501TIP3    H122380   8.549   1.438   3.842
 7501TIP3    H222381   8.406   1.445   3.790
 7502TIP3   OH222382   8.182   1.545   4.931
 7502TIP3    H122383   8.157   1.556   4.839
 7502TIP3    H222384   8.099   1.530   4.976
 7503TIP3   OH222385   7.998   0.731   3.948
 7503TIP3    H122386   7.922   0.779   3.916
 7503TIP3    H222387   7.966   0.642   3.962
 7504TIP3   OH222388   7.772   1.116   4.880
 7504TIP3    H122389   7.702   1.098   4.817
 7504TIP3    H222390   7.810   1.030   4.898
 7505TIP3   OH222391   7.632   1.295   4.527
 7505TIP3    H122392   7.725   1.314   4.538
 7505TIP3    H222393   7.588   1.374   4.559
 7506TIP3   OH222394   8.579   1.520   4.708
 7506TIP3    H122395   8.569   1.610   4.739
 7506TIP3    H222396   8.514   1.470   4.757
 7507TIP3   OH222397   8.357   1.616   3.670
 7507TIP3    H122398   8.314   1.595   3.587
 7507TIP3    H222399   8.318   1.699   3.697
 7508TIP3   OH222400   7.794   1.483   4.042
 7508TIP3    H122401   7.840   1.473   4.126
 7508TIP3    H222402   7.745   1.401   4.033
 7509TIP3   OH222403   8.565   1.554   3.294
 7509TIP3    H122404   8.612   1.476   3.265
 7509TIP3    H222405   8.598   1.569   3.383
 7510TIP3   OH222406   8.610   1.597   3.564
 7510TIP3    H122407   8.524   1.600   3.607
 7510TIP3    H222408   8.667   1.553   3.628
 7511TIP3   OH222409   7.968   1.306   4.848
 7511TIP3    H122410   8.020   1.294   4.927
 7511TIP3    H222411   7.898   1.241   4.856
 7512TIP3   OH222412   8.820   0.819   3.321
 7512TIP3    H122413   8.767   0.802   3.244
 7512TIP3    H222414   8.836   0.913   3.319
 7513TIP3   OH222415   8.256   0.652   4.648
 7513TIP3    H122416   8.220   0.659   4.737
 7513TIP3    H222417   8.238   0.737   4.608
 7514TIP3   OH222418   8.107   0.600   4.263
 7514TIP3    H122419   8.036   0.536   4.262
 7514TIP3    H222420   8.158   0.580   4.184
 7515TIP3   OH222421   8.744   0.604   3.901
 7515TIP3    H122422   8.690   0.652   3.839
 7515TIP3    H222423   8.781   0.532   3.850
 7516TIP3   OH222424   8.866   0.994   4.909
 7516TIP3    H122425   8.840   0.941   4.983
 7516TIP3    H222426   8.959   0.974   4.896
 7517TIP3   OH222427   8.815   0.743   4.139
 7517TIP3    H122428   8.783   0.823   4.098
 7517TIP3    H222429   8.823   0.681   4.067
 7518TIP3   OH222430   8.121   0.704   4.878
 7518TIP3    H122431   8.138   0.777   4.938
 7518TIP3    H222432   8.072   0.641   4.931
 7519TIP3   OH222433   8.790   0.924   4.551
 7519TIP3    H122434   8.858   0.892   4.493
 7519TIP3    H222435   8.784   0.857   4.620
 7520TIP3   OH222436   7.901   0.413   4.242
 7520TIP3    H122437   7.826   0.461   4.206
 7520TIP3    H222438   7.935   0.363   4.167
 7521TIP3   OH222439   8.209   0.323   3.902
 7521TIP3    H122440   8.296   0.362   3.902
 7521TIP3    H222441   8.159   0.374   3.838
 7522TIP3   OH222442   8.034   0.481   3.753
 7522TIP3    H122443   7.958   0.493   3.810
 7522TIP3    H222444   7.998   0.443   3.673
 7523TIP3   OH222445   9.161   2.064   4.658
 7523TIP3    H122446   9.136   2.086   4.568
 7523TIP3    H222447   9.253   2.090   4.664
 7524TIP3   OH222448   8.122   1.223   5.081
 7524TIP3    H122449   8.204   1.236   5.128
 7524TIP3    H222450   8.054   1.230   5.148
 7525TIP3   OH222451   8.547   0.660   4.372
 7525TIP3    H122452   8.507   0.577   4.347
 7525TIP3    H222453   8.577   0.647   4.462
 7526TIP3   OH222454   8.602   0.562   4.622
 7526TIP3    H122455   8.527   0.507   4.645
 7526TIP3    H222456   8.658   0.559   4.700
 7527TIP3   OH222457   8.305   0.900   3.728
 7527TIP3    H122458   8.229   0.853   3.696
 7527TIP3    H222459   8.272   0.952   3.801
 7528TIP3   OH222460   8.763   1.298   4.698
 7528TIP3    H122461   8.716   1.221   4.730
 7528TIP3    H222462   8.703   1.371   4.714
 7529TIP3   OH222463   7.972   0.949   4.366
 7529TIP3    H122464   8.014   0.938   4.281
 7529TIP3    H222465   8.040   0.929   4.430
 7530TIP3   OH222466   8.460   1.085   3.599
 7530TIP3    H122467   8.407   1.164   3.594
 7530TIP3    H222468   8.402   1.020   3.638
 7531TIP3   OH222469   7.878   0.883   5.000
 7531TIP3    H122470   7.880   0.850   5.090
 7531TIP3    H222471   7.805   0.838   4.959
 7532TIP3   OH222472   8.582   1.027   5.011
 7532TIP3    H122473   8.516   0.957   5.006
 7532TIP3    H222474   8.610   1.039   4.920
 7533TIP3   OH222475   8.842   1.590   4.631
 7533TIP3    H122476   8.751   1.559   4.633
 7533TIP3    H222477   8.865   1.601   4.724
 7534TIP3   OH222478   8.908   1.388   3.519
 7534TIP3    H122479   8.904   1.345   3.604
 7534TIP3    H222480   8.896   1.318   3.455
 7535TIP3   OH222481   8.877   1.067   4.257
 7535TIP3    H122482   8.790   1.027   4.249
 7535TIP3    H222483   8.932   0.996   4.291
 7536TIP3   OH222484   8.118   1.284   4.048
 7536TIP3    H122485   8.110   1.362   3.993
 7536TIP3    H222486   8.027   1.259   4.066
 7537TIP3   OH222487   7.667   0.586   3.762
 7537TIP3    H122488   7.723   0.660   3.783
 7537TIP3    H222489   7.584   0.606   3.806
 7538TIP3   OH222490   8.194   1.052   3.922
 7538TIP3    H122491   8.193   1.141   3.958
 7538TIP3    H222492   8.169   0.997   3.996
 7539TIP3   OH222493   8.399   1.598   4.501
 7539TIP3    H122494   8.434   1.672   4.452
 7539TIP3    H222495   8.474   1.564   4.550
 7540TIP3   OH222496   8.027   1.500   3.898
 7540TIP3    H122497   7.940   1.506   3.937
 7540TIP3    H222498   8.062   1.589   3.904
 7541TIP3   OH222499   8.745   1.263   4.421
 7541TIP3    H122500   8.768   1.268   4.514
 7541TIP3    H222501   8.810   1.205   4.383
 7542TIP3   OH222502   8.761   1.109   3.335
 7542TIP3    H122503   8.796   1.093   3.423
 7542TIP3    H222504   8.669   1.085   3.341
 7543TIP3   OH222505   9.025   1.728   4.490
 7543TIP3    H122506   8.952   1.679   4.527
 7543TIP3    H222507   8.985   1.784   4.423
 7544TIP3   OH222508   8.877   1.062   3.576
 7544TIP3    H122509   8.886   0.978   3.621
 7544TIP3    H222510   8.893   1.128   3.644
 7545TIP3   OH222511   7.827   1.498   4.670
 7545TIP3    H122512   7.878   1.437   4.724
 7545TIP3    H222513   7.842   1.584   4.710
 7546TIP3   OH222514   8.088   1.128   3.378
 7546TIP3    H122515   8.100   1.039   3.345
 7546TIP3    H222516   8.079   1.117   3.473
 7547TIP3   OH222517   8.035   1.124   3.653
 7547TIP3    H122518   8.091   1.098   3.726
 7547TIP3    H222519   8.038   1.220   3.654
 7548TIP3   OH222520   7.771   0.836   3.838
 7548TIP3    H122521   7.703   0.881   3.889
 7548TIP3    H222522   7.785   0.893   3.762
 7549TIP3   OH222523   8.307   1.306   3.572
 7549TIP3    H122524   8.221   1.330   3.606
 7549TIP3    H222525   8.329   1.377   3.511
 7550TIP3   OH222526   8.493   0.339   3.970
 7550TIP3    H122527   8.510   0.420   4.019
 7550TIP3    H222528   8.534   0.270   4.023
 7551TIP3   OH222529   8.765   0.770   4.775
 7551TIP3    H122530   8.790   0.850   4.821
 7551TIP3    H222531   8.837   0.709   4.791
 7552TIP3   OH222532   8.058   1.397   3.648
 7552TIP3    H122533   8.038   1.468   3.587
 7552TIP3    H222534   8.046   1.435   3.735
 7553TIP3   OH222535   7.786   1.007   3.619
 7553TIP3    H122536   7.861   1.064   3.634
 7553TIP3    H222537   7.814   0.945   3.552
 7554TIP3   OH222538   7.635   0.304   3.756
 7554TIP3    H122539   7.654   0.397   3.763
 7554TIP3    H222540   7.541   0.297   3.771
 7555TIP3   OH222541   9.040   1.747   4.083
 7555TIP3    H122542   8.994   1.804   4.021
 7555TIP3    H222543   9.127   1.737   4.046
 7556TIP3   OH222544   7.617   1.267   4.014
 7556TIP3    H122545   7.574   1.301   4.092
 7556TIP3    H222546   7.572   1.308   3.941
 7557TIP3   OH222547   7.826   1.797   5.089
 7557TIP3    H122548   7.909   1.800   5.136
 7557TIP3    H222549   7.806   1.704   5.079
 7558TIP3   OH222550   8.291   1.698   5.131
 7558TIP3    H122551   8.381   1.669   5.141
 7558TIP3    H222552   8.258   1.647   5.056
 7559TIP3   OH222553   8.245   1.313   3.249
 7559TIP3    H122554   8.197   1.246   3.299
 7559TIP3    H222555   8.317   1.265   3.209
 7560TIP3   OH222556   8.907   1.653   4.890
 7560TIP3    H122557   8.929   1.590   4.958
 7560TIP3    H222558   8.990   1.699   4.873
 7561TIP3   OH222559   8.687   1.333   3.192
 7561TIP3    H122560   8.729   1.258   3.233
 7561TIP3    H222561   8.728   1.340   3.106
 7562TIP3   OH222562   7.923   1.223   5.277
 7562TIP3    H122563   7.947   1.131   5.285
 7562TIP3    H222564   7.839   1.223   5.231
 7563TIP3   OH222565   7.901   0.819   3.461
 7563TIP3    H122566   7.952   0.789   3.537
 7563TIP3    H222567   7.968   0.840   3.396
 7564TIP3   OH222568   8.542   1.299   5.055
 7564TIP3    H122569   8.498   1.321   4.973
 7564TIP3    H222570   8.573   1.209   5.043
 7565TIP3   OH222571   8.491   1.042   3.331
 7565TIP3    H122572   8.473   1.059   3.423
 7565TIP3    H222573   8.484   0.947   3.322
 7566TIP3   OH222574   9.037   1.309   4.655
 7566TIP3    H122575   9.060   1.362   4.579
 7566TIP3    H222576   8.943   1.323   4.668
 7567TIP3   OH222577   8.034   0.973   5.291
 7567TIP3    H122578   8.106   0.929   5.247
 7567TIP3    H222579   8.068   0.994   5.378
 7568TIP3   OH222580   8.077   0.752   3.667
 7568TIP3    H122581   8.058   0.730   3.758
 7568TIP3    H222582   8.105   0.670   3.628
 7569TIP3   OH222583   8.392   0.830   4.975
 7569TIP3    H122584   8.310   0.879   4.982
 7569TIP3    H222585   8.410   0.829   4.881
 7570TIP3   OH222586   8.203   0.543   3.518
 7570TIP3    H122587   8.176   0.564   3.428
 7570TIP3    H222588   8.298   0.553   3.516
 7571TIP3   OH222589   8.903   1.219   5.068
 7571TIP3    H122590   8.883   1.166   4.991
 7571TIP3    H222591   8.897   1.159   5.142
 7572TIP3   OH222592   8.434   0.530   4.885
 7572TIP3    H122593   8.528   0.519   4.894
 7572TIP3    H222594   8.412   0.601   4.946
 7573TIP3   OH222595   8.611   1.074   4.735
 7573TIP3    H122596   8.664   1.022   4.675
 7573TIP3    H222597   8.522   1.067   4.700
 7574TIP3   OH222598   9.151   0.855   5.286
 7574TIP3    H122599   9.138   0.859   5.192
 7574TIP3    H222600   9.206   0.931   5.306
 7575TIP3   OH222601   9.173   1.156   4.827
 7575TIP3    H122602   9.118   1.215   4.776
 7575TIP3    H222603   9.261   1.171   4.794
 7576TIP3   OH222604   8.277   0.841   5.279
 7576TIP3    H122605   8.260   0.756   5.320
 7576TIP3    H222606   8.332   0.888   5.342
 7577TIP3   OH222607   8.825   0.785   5.079
 7577TIP3    H122608   8.840   0.750   5.167
 7577TIP3    H222609   8.757   0.729   5.042
 7578TIP3   OH222610   8.057   1.609   3.468
 7578TIP3    H122611   8.145   1.586   3.440
 7578TIP3    H222612   8.017   1.649   3.391
 7579TIP3   OH222613   7.515   0.995   3.646
 7579TIP3    H122614   7.609   1.009   3.638
 7579TIP3    H222615   7.500   0.909   3.607
 7580TIP3   OH222616   7.418   1.567   4.105
 7580TIP3    H122617   7.355   1.513   4.058
 7580TIP3    H222618   7.464   1.507   4.163
 7581TIP3   OH222619   7.566   1.401   4.268
 7581TIP3    H122620   7.560   1.331   4.332
 7581TIP3    H222621   7.619   1.468   4.311
 7582TIP3   OH222622   9.098   1.462   4.434
 7582TIP3    H122623   9.091   1.556   4.453
 7582TIP3    H222624   9.077   1.455   4.341
 7583TIP3   OH222625   7.720   0.857   4.632
 7583TIP3    H122626   7.720   0.840   4.538
 7583TIP3    H222627   7.813   0.861   4.656
 7584TIP3   OH222628   7.618   0.593   4.625
 7584TIP3    H122629   7.697   0.576   4.574
 7584TIP3    H222630   7.623   0.686   4.647
 7585TIP3   OH222631   8.833   1.729   3.742
 7585TIP3    H122632   8.883   1.712   3.662
 7585TIP3    H222633   8.887   1.792   3.791
 7586TIP3   OH222634   7.960   1.520   5.097
 7586TIP3    H122635   7.866   1.503   5.093
 7586TIP3    H222636   7.984   1.506   5.189
 7587TIP3   OH222637   8.170   1.569   4.651
 7587TIP3    H122638   8.121   1.644   4.619
 7587TIP3    H222639   8.255   1.575   4.607
 7588TIP3   OH222640   8.557   1.785   4.792
 7588TIP3    H122641   8.597   1.779   4.879
 7588TIP3    H222642   8.618   1.838   4.741
 7589TIP3   OH222643   8.747   1.938   4.664
 7589TIP3    H122644   8.804   1.877   4.618
 7589TIP3    H222645   8.807   1.990   4.719
 7590TIP3   OH222646   7.824   1.800   4.701
 7590TIP3    H122647   7.732   1.819   4.682
 7590TIP3    H222648   7.848   1.865   4.768
 7591TIP3   OH222649   8.056   1.797   4.551
 7591TIP3    H122650   7.972   1.799   4.597
 7591TIP3    H222651   8.034   1.816   4.460
 7592TIP3   OH222652   8.460   1.816   4.341
 7592TIP3    H122653   8.386   1.827   4.281
 7592TIP3    H222654   8.470   1.902   4.382
 7593TIP3   OH222655   8.716   1.741   4.397
 7593TIP3    H122656   8.629   1.769   4.369
 7593TIP3    H222657   8.776   1.802   4.354
 7594TIP3   OH222658   8.920   1.890   4.288
 7594TIP3    H122659   8.914   1.980   4.254
 7594TIP3    H222660   8.959   1.840   4.216
 7595TIP3   OH222661   7.742   1.579   4.420
 7595TIP3    H122662   7.771   1.557   4.508
 7595TIP3    H222663   7.812   1.548   4.362
 7596TIP3   OH222664   7.942   1.471   4.274
 7596TIP3    H122665   7.951   1.386   4.318
 7596TIP3    H222666   8.030   1.509   4.278
 7597TIP3   OH222667   8.211   1.552   4.301
 7597TIP3    H122668   8.225   1.458   4.287
 7597TIP3    H222669   8.269   1.574   4.373
 7598TIP3   OH222670   7.496   1.379   3.795
 7598TIP3    H122671   7.413   1.348   3.758
 7598TIP3    H222672   7.502   1.470   3.765
 7599TIP3   OH222673   8.310   1.530   3.397
 7599TIP3    H122674   8.394   1.556   3.360
 7599TIP3    H222675   8.278   1.462   3.338
 7600TIP3   OH222676   8.970   1.660   3.517
 7600TIP3    H122677   8.958   1.565   3.509
 7600TIP3    H222678   8.953   1.694   3.430
 7601TIP3   OH222679   7.614   1.365   3.455
 7601TIP3    H122680   7.617   1.373   3.550
 7601TIP3    H222681   7.695   1.320   3.432
 7602TIP3   OH222682   9.136   1.797   4.736
 7602TIP3    H122683   9.113   1.754   4.654
 7602TIP3    H222684   9.156   1.887   4.712
 7603TIP3   OH222685   1.150   1.732   5.650
 7603TIP3    H122686   1.122   1.815   5.611
 7603TIP3    H222687   1.091   1.667   5.612
 7604TIP3   OH222688   1.161   1.709   5.983
 7604TIP3    H122689   1.136   1.628   6.027
 7604TIP3    H222690   1.150   1.690   5.890
 7605TIP3   OH222691   0.603   1.729   6.435
 7605TIP3    H122692   0.546   1.678   6.493
 7605TIP3    H222693   0.641   1.665   6.376
 7606TIP3   OH222694   1.424   2.026   5.723
 7606TIP3    H122695   1.420   1.958   5.790
 7606TIP3    H222696   1.446   2.106   5.772
 7607TIP3   OH222697   0.489   2.027   6.134
 7607TIP3    H122698   0.468   1.934   6.123
 7607TIP3    H222699   0.567   2.040   6.081
 7608TIP3   OH222700   1.097   2.442   5.748
 7608TIP3    H122701   1.116   2.384   5.674
 7608TIP3    H222702   1.115   2.389   5.825
 7609TIP3   OH222703   0.994   1.913   6.076
 7609TIP3    H122704   1.040   1.841   6.034
 7609TIP3    H222705   1.063   1.975   6.099
 7610TIP3   OH222706   1.993   1.262   6.068
 7610TIP3    H122707   2.014   1.344   6.113
 7610TIP3    H222708   2.018   1.278   5.977
 7611TIP3   OH222709   1.436   1.197   5.682
 7611TIP3    H122710   1.489   1.202   5.762
 7611TIP3    H222711   1.491   1.237   5.615
 7612TIP3   OH222712   0.786   1.491   5.991
 7612TIP3    H122713   0.878   1.471   6.009
 7612TIP3    H222714   0.745   1.405   5.981
 7613TIP3   OH222715   2.058   1.479   6.233
 7613TIP3    H122716   1.970   1.515   6.231
 7613TIP3    H222717   2.096   1.514   6.314
 7614TIP3   OH222718   1.056   1.941   5.486
 7614TIP3    H122719   1.022   1.913   5.402
 7614TIP3    H222720   1.001   2.017   5.509
 7615TIP3   OH222721   0.772   1.906   6.233
 7615TIP3    H122722   0.728   1.947   6.158
 7615TIP3    H222723   0.865   1.904   6.208
 7616TIP3   OH222724   1.580   1.230   5.913
 7616TIP3    H122725   1.554   1.204   6.001
 7616TIP3    H222726   1.646   1.299   5.927
 7617TIP3   OH222727   0.598   2.075   6.444
 7617TIP3    H122728   0.589   2.159   6.399
 7617TIP3    H222729   0.529   2.076   6.511
 7618TIP3   OH222730   0.048   1.804   5.614
 7618TIP3    H122731  -0.017   1.827   5.547
 7618TIP3    H222732   0.070   1.888   5.656
 7619TIP3   OH222733   1.454   2.274   5.866
 7619TIP3    H122734   1.364   2.268   5.899
 7619TIP3    H222735   1.456   2.356   5.818
 7620TIP3   OH222736   1.785   1.167   6.239
 7620TIP3    H122737   1.696   1.180   6.204
 7620TIP3    H222738   1.843   1.194   6.168
 7621TIP3   OH222739   1.168   2.306   5.516
 7621TIP3    H122740   1.220   2.227   5.505
 7621TIP3    H222741   1.225   2.377   5.488
 7622TIP3   OH222742   1.304   2.075   5.480
 7622TIP3    H122743   1.232   2.012   5.477
 7622TIP3    H222744   1.355   2.051   5.556
 7623TIP3   OH222745   1.687   2.163   6.205
 7623TIP3    H122746   1.675   2.089   6.146
 7623TIP3    H222747   1.674   2.240   6.149
 7624TIP3   OH222748   0.986   1.571   5.497
 7624TIP3    H122749   0.907   1.616   5.465
 7624TIP3    H222750   1.040   1.560   5.418
 7625TIP3   OH222751   0.974   1.414   5.197
 7625TIP3    H122752   1.053   1.449   5.239
 7625TIP3    H222753   0.998   1.324   5.173
 7626TIP3   OH222754   1.878   1.825   6.080
 7626TIP3    H122755   1.793   1.870   6.078
 7626TIP3    H222756   1.914   1.837   5.992
 7627TIP3   OH222757   1.355   1.689   5.459
 7627TIP3    H122758   1.301   1.710   5.536
 7627TIP3    H222759   1.437   1.656   5.496
 7628TIP3   OH222760   1.585   1.683   6.381
 7628TIP3    H122761   1.580   1.768   6.426
 7628TIP3    H222762   1.501   1.676   6.335
 7629TIP3   OH222763   0.594   1.650   5.856
 7629TIP3    H122764   0.549   1.598   5.790
 7629TIP3    H222765   0.666   1.594   5.886
 7630TIP3   OH222766   0.723   2.028   5.989
 7630TIP3    H122767   0.686   2.032   5.901
 7630TIP3    H222768   0.815   2.003   5.976
 7631TIP3   OH222769   0.736   1.612   6.227
 7631TIP3    H122770   0.747   1.561   6.147
 7631TIP3    H222771   0.757   1.702   6.202
 7632TIP3   OH222772   1.207   2.268   5.986
 7632TIP3    H122773   1.201   2.348   6.038
 7632TIP3    H222774   1.201   2.197   6.051
 7633TIP3   OH222775   0.842   2.178   6.553
 7633TIP3    H122776   0.811   2.239   6.619
 7633TIP3    H222777   0.763   2.147   6.510
 7634TIP3   OH222778   1.197   1.533   5.301
 7634TIP3    H122779   1.253   1.590   5.354
 7634TIP3    H222780   1.213   1.560   5.211
 7635TIP3   OH222781   0.920   2.184   5.527
 7635TIP3    H122782   1.002   2.232   5.531
 7635TIP3    H222783   0.862   2.241   5.475
 7636TIP3   OH222784   0.616   2.330   6.638
 7636TIP3    H122785   0.587   2.353   6.550
 7636TIP3    H222786   0.535   2.315   6.687
 7637TIP3   OH222787   1.700   0.754   5.341
 7637TIP3    H122788   1.614   0.768   5.382
 7637TIP3    H222789   1.713   0.832   5.287
 7638TIP3   OH222790   0.462   1.503   5.660
 7638TIP3    H122791   0.377   1.536   5.633
 7638TIP3    H222792   0.449   1.409   5.673
 7639TIP3   OH222793   1.512   2.120   4.890
 7639TIP3    H122794   1.506   2.213   4.868
 7639TIP3    H222795   1.602   2.095   4.866
 7640TIP3   OH222796   0.096   2.095   6.181
 7640TIP3    H122797   0.128   2.007   6.201
 7640TIP3    H222798   0.139   2.152   6.246
 7641TIP3   OH222799   1.920   2.511   6.279
 7641TIP3    H122800   1.924   2.417   6.297
 7641TIP3    H222801   1.842   2.541   6.326
 7642TIP3   OH222802   1.030   2.310   6.400
 7642TIP3    H122803   1.024   2.402   6.428
 7642TIP3    H222804   0.966   2.265   6.455
 7643TIP3   OH222805   0.815   2.402   5.357
 7643TIP3    H122806   0.772   2.386   5.273
 7643TIP3    H222807   0.780   2.487   5.385
 7644TIP3   OH222808   0.261   2.264   5.742
 7644TIP3    H122809   0.295   2.249   5.830
 7644TIP3    H222810   0.200   2.192   5.727
 7645TIP3   OH222811   1.017   2.343   4.980
 7645TIP3    H122812   1.065   2.267   4.945
 7645TIP3    H222813   1.053   2.355   5.068
 7646TIP3   OH222814   1.068   2.384   5.250
 7646TIP3    H122815   0.982   2.386   5.293
 7646TIP3    H222816   1.126   2.345   5.314
 7647TIP3   OH222817   1.819   1.634   6.547
 7647TIP3    H122818   1.736   1.641   6.500
 7647TIP3    H222819   1.835   1.540   6.555
 7648TIP3   OH222820   0.402   2.058   6.628
 7648TIP3    H122821   0.406   2.124   6.697
 7648TIP3    H222822   0.316   2.017   6.639
 7649TIP3   OH222823   1.321   1.028   6.543
 7649TIP3    H122824   1.308   0.958   6.480
 7649TIP3    H222825   1.264   1.099   6.514
 7650TIP3   OH222826   1.553   1.415   6.456
 7650TIP3    H122827   1.461   1.391   6.459
 7650TIP3    H222828   1.554   1.507   6.429
 7651TIP3   OH222829   1.235   1.590   5.040
 7651TIP3    H122830   1.236   1.502   5.001
 7651TIP3    H222831   1.318   1.630   5.012
 7652TIP3   OH222832   0.960   1.019   5.338
 7652TIP3    H122833   0.877   1.052   5.373
 7652TIP3    H222834   0.971   0.933   5.379
 7653TIP3   OH222835   0.875   1.427   6.386
 7653TIP3    H122836   0.818   1.351   6.395
 7653TIP3    H222837   0.826   1.488   6.331
 7654TIP3   OH222838   0.642   1.260   5.965
 7654TIP3    H122839   0.555   1.223   5.977
 7654TIP3    H222840   0.657   1.258   5.871
 7655TIP3   OH222841   1.318   1.618   6.749
 7655TIP3    H122842   1.298   1.552   6.815
 7655TIP3    H222843   1.413   1.630   6.754
 7656TIP3   OH222844   1.336   1.592   6.285
 7656TIP3    H122845   1.300   1.568   6.200
 7656TIP3    H222846   1.324   1.515   6.340
 7657TIP3   OH222847   1.046   1.163   5.949
 7657TIP3    H122848   0.957   1.146   5.979
 7657TIP3    H222849   1.072   1.243   5.995
 7658TIP3   OH222850   0.691   1.255   5.701
 7658TIP3    H122851   0.784   1.250   5.679
 7658TIP3    H222852   0.650   1.185   5.651
 7659TIP3   OH222853   1.503   1.181   6.178
 7659TIP3    H122854   1.464   1.243   6.239
 7659TIP3    H222855   1.433   1.118   6.160
 7660TIP3   OH222856   0.390   1.201   5.366
 7660TIP3    H122857   0.420   1.120   5.324
 7660TIP3    H222858   0.445   1.270   5.328
 7661TIP3   OH222859   1.642   2.867   6.366
 7661TIP3    H122860   1.639   2.884   6.272
 7661TIP3    H222861   1.721   2.912   6.396
 7662TIP3   OH222862   0.754   1.723   5.427
 7662TIP3    H122863   0.672   1.680   5.402
 7662TIP3    H222864   0.736   1.762   5.512
 7663TIP3   OH222865   1.642   1.959   6.026
 7663TIP3    H122866   1.681   2.007   5.953
 7663TIP3    H222867   1.566   1.915   5.988
 7664TIP3   OH222868   1.237   1.026   5.330
 7664TIP3    H122869   1.142   1.023   5.335
 7664TIP3    H222870   1.259   1.119   5.340
 7665TIP3   OH222871   1.154   2.035   6.445
 7665TIP3    H122872   1.217   2.021   6.516
 7665TIP3    H222873   1.131   2.127   6.451
 7666TIP3   OH222874   1.305   1.282   5.375
 7666TIP3    H122875   1.395   1.299   5.403
 7666TIP3    H222876   1.273   1.367   5.346
 7667TIP3   OH222877   0.505   1.756   6.095
 7667TIP3    H122878   0.525   1.736   6.004
 7667TIP3    H222879   0.504   1.671   6.138
 7668TIP3   OH222880   0.909   1.863   5.254
 7668TIP3    H122881   0.863   1.947   5.249
 7668TIP3    H222882   0.854   1.809   5.312
 7669TIP3   OH222883   1.100   1.776   6.690
 7669TIP3    H122884   1.067   1.733   6.611
 7669TIP3    H222885   1.184   1.733   6.707
 7670TIP3   OH222886   1.300   2.326   6.326
 7670TIP3    H122887   1.205   2.320   6.330
 7670TIP3    H222888   1.324   2.370   6.407
 7671TIP3   OH222889   1.707   1.383   5.221
 7671TIP3    H122890   1.656   1.336   5.155
 7671TIP3    H222891   1.705   1.474   5.191
 7672TIP3   OH222892   1.934   2.225   6.303
 7672TIP3    H122893   1.840   2.216   6.288
 7672TIP3    H222894   1.973   2.206   6.218
 7673TIP3   OH222895   1.425   2.184   5.153
 7673TIP3    H122896   1.399   2.112   5.210
 7673TIP3    H222897   1.447   2.143   5.070
 7674TIP3   OH222898   1.422   1.818   5.919
 7674TIP3    H122899   1.333   1.800   5.949
 7674TIP3    H222900   1.454   1.735   5.885
 7675TIP3   OH222901   0.573   2.070   5.761
 7675TIP3    H122902   0.576   2.144   5.699
 7675TIP3    H222903   0.480   2.049   5.769
 7676TIP3   OH222904   0.670   1.831   5.658
 7676TIP3    H122905   0.647   1.919   5.690
 7676TIP3    H222906   0.645   1.773   5.730
 7677TIP3   OH222907   0.842   2.364   6.193
 7677TIP3    H122908   0.872   2.442   6.147
 7677TIP3    H222909   0.916   2.337   6.247
 7678TIP3   OH222910   0.494   2.282   5.599
 7678TIP3    H122911   0.407   2.287   5.639
 7678TIP3    H222912   0.526   2.373   5.600
 7679TIP3   OH222913   1.214   2.048   6.171
 7679TIP3    H122914   1.196   2.043   6.265
 7679TIP3    H222915   1.305   2.020   6.162
 7680TIP3   OH222916   1.196   1.917   5.032
 7680TIP3    H122917   1.250   1.894   5.108
 7680TIP3    H222918   1.120   1.859   5.039
 7681TIP3   OH222919   1.452   2.545   6.207
 7681TIP3    H122920   1.379   2.485   6.220
 7681TIP3    H222921   1.424   2.601   6.134
 7682TIP3   OH222922   1.507   2.391   4.843
 7682TIP3    H122923   1.527   2.452   4.772
 7682TIP3    H222924   1.436   2.433   4.891
 7683TIP3   OH222925   1.378   1.851   5.229
 7683TIP3    H122926   1.361   1.804   5.311
 7683TIP3    H222927   1.473   1.856   5.224
 7684TIP3   OH222928   0.264   2.279   6.323
 7684TIP3    H122929   0.356   2.253   6.316
 7684TIP3    H222930   0.267   2.361   6.373
 7685TIP3   OH222931   0.540   1.918   5.062
 7685TIP3    H122932   0.550   1.827   5.032
 7685TIP3    H222933   0.531   1.911   5.157
 7686TIP3   OH222934   0.499   1.914   5.335
 7686TIP3    H122935   0.571   1.889   5.394
 7686TIP3    H222936   0.497   2.009   5.340
 7687TIP3   OH222937   0.235   1.610   5.555
 7687TIP3    H122938   0.165   1.663   5.595
 7687TIP3    H222939   0.256   1.656   5.474
 7688TIP3   OH222940   1.291   0.983   5.605
 7688TIP3    H122941   1.264   1.001   5.515
 7688TIP3    H222942   1.337   1.062   5.633
 7689TIP3   OH222943   0.764   2.093   5.255
 7689TIP3    H122944   0.681   2.119   5.295
 7689TIP3    H222945   0.788   2.167   5.199
 7690TIP3   OH222946   0.967   1.219   5.675
 7690TIP3    H122947   1.015   1.288   5.630
 7690TIP3    H222948   1.009   1.212   5.760
 7691TIP3   OH222949   1.106   0.920   5.796
 7691TIP3    H122950   1.094   1.001   5.847
 7691TIP3    H222951   1.174   0.942   5.733
 7692TIP3   OH222952   0.519   2.185   5.343
 7692TIP3    H122953   0.496   2.256   5.283
 7692TIP3    H222954   0.509   2.223   5.430
 7693TIP3   OH222955   1.817   1.348   6.463
 7693TIP3    H122956   1.723   1.366   6.470
 7693TIP3    H222957   1.825   1.291   6.386
 7694TIP3   OH222958   1.502   1.551   5.850
 7694TIP3    H122959   1.440   1.479   5.863
 7694TIP3    H222960   1.581   1.524   5.896
 7695TIP3   OH222961   0.257   1.779   5.329
 7695TIP3    H122962   0.333   1.836   5.340
 7695TIP3    H222963   0.282   1.719   5.259
 7696TIP3   OH222964   1.483   2.536   5.776
 7696TIP3    H122965   1.444   2.591   5.708
 7696TIP3    H222966   1.578   2.548   5.764
 7697TIP3   OH222967   0.062   2.077   5.689
 7697TIP3    H122968   0.002   2.115   5.754
 7697TIP3    H222969   0.022   2.097   5.605
 7698TIP3   OH222970   0.289   2.587   6.723
 7698TIP3    H122971   0.357   2.583   6.789
 7698TIP3    H222972   0.207   2.574   6.771
 7699TIP3   OH222973   0.732   2.497   6.824
 7699TIP3    H122974   0.824   2.475   6.835
 7699TIP3    H222975   0.701   2.439   6.755
 7700TIP3   OH222976   0.702   2.102   4.940
 7700TIP3    H122977   0.653   2.036   4.988
 7700TIP3    H222978   0.775   2.053   4.900
 7701TIP3   OH222979   1.353   2.438   6.569
 7701TIP3    H122980   1.354   2.363   6.629
 7701TIP3    H222981   1.431   2.488   6.591
 7702TIP3   OH222982   1.140   2.126   4.865
 7702TIP3    H122983   1.173   2.061   4.927
 7702TIP3    H222984   1.200   2.120   4.790
 7703TIP3   OH222985   0.362   1.591   5.162
 7703TIP3    H122986   0.414   1.580   5.242
 7703TIP3    H222987   0.427   1.613   5.095
 7704TIP3   OH222988   0.999   2.043   6.745
 7704TIP3    H122989   0.962   2.073   6.661
 7704TIP3    H222990   1.047   1.964   6.723
 7705TIP3   OH222991   0.936   1.786   4.990
 7705TIP3    H122992   0.919   1.800   5.083
 7705TIP3    H222993   0.918   1.693   4.976
 7706TIP3   OH222994   1.463   2.100   6.350
 7706TIP3    H122995   1.543   2.126   6.305
 7706TIP3    H222996   1.405   2.175   6.342
 7707TIP3   OH222997   0.517   1.575   5.392
 7707TIP3    H122998   0.508   1.549   5.484
 7707TIP3    H222999   0.587   1.520   5.358
 7708TIP3   OH223000   0.711   1.445   5.261
 7708TIP3    H123001   0.669   1.390   5.195
 7708TIP3    H223002   0.802   1.451   5.233
 7709TIP3   OH223003   1.360   1.973   6.703
 7709TIP3    H123004   1.436   1.943   6.653
 7709TIP3    H223005   1.363   1.922   6.784
 7710TIP3   OH223006   1.477   1.645   4.909
 7710TIP3    H123007   1.461   1.592   4.831
 7710TIP3    H223008   1.455   1.734   4.883
 7711TIP3   OH223009   1.085   1.653   6.392
 7711TIP3    H123010   1.178   1.663   6.372
 7711TIP3    H223011   1.046   1.736   6.365
 7712TIP3   OH223012   1.587   1.659   6.812
 7712TIP3    H123013   1.644   1.582   6.820
 7712TIP3    H223014   1.646   1.732   6.796
 7713TIP3   OH223015   1.596   1.931   6.520
 7713TIP3    H123016   1.542   1.991   6.468
 7713TIP3    H223017   1.685   1.947   6.490
 7714TIP3   OH223018   1.469   1.258   6.708
 7714TIP3    H123019   1.413   1.323   6.665
 7714TIP3    H223020   1.537   1.309   6.751
 7715TIP3   OH223021   1.697   1.344   6.859
 7715TIP3    H123022   1.723   1.253   6.872
 7715TIP3    H223023   1.691   1.381   6.947
 7716TIP3   OH223024   0.508   2.394   5.160
 7716TIP3    H123025   0.597   2.374   5.131
 7716TIP3    H223026   0.467   2.438   5.086
 7717TIP3   OH223027  -0.014   1.771   5.298
 7717TIP3    H123028   0.079   1.786   5.315
 7717TIP3    H223029  -0.034   1.688   5.342
 7718TIP3   OH223030   9.695   2.339   5.733
 7718TIP3    H123031   9.602   2.358   5.726
 7718TIP3    H223032   9.708   2.313   5.824
 7719TIP3   OH223033   9.760   2.221   5.970
 7719TIP3    H123034   9.775   2.152   6.035
 7719TIP3    H223035   9.819   2.292   5.997
 7720TIP3   OH223036   1.756   2.583   5.772
 7720TIP3    H123037   1.776   2.613   5.861
 7720TIP3    H223038   1.810   2.639   5.716
 7721TIP3   OH223039   1.771   2.621   6.054
 7721TIP3    H123040   1.724   2.538   6.049
 7721TIP3    H223041   1.841   2.605   6.118
 7722TIP3   OH223042   1.815   2.321   6.641
 7722TIP3    H123043   1.746   2.333   6.707
 7722TIP3    H223044   1.864   2.404   6.643
 7723TIP3   OH223045   1.656   1.847   5.237
 7723TIP3    H123046   1.715   1.916   5.207
 7723TIP3    H223047   1.702   1.808   5.312
 7724TIP3   OH223048   1.782   1.701   5.439
 7724TIP3    H123049   1.715   1.664   5.496
 7724TIP3    H223050   1.848   1.737   5.499
 7725TIP3   OH223051   1.824   2.096   5.868
 7725TIP3    H123052   1.877   2.029   5.827
 7725TIP3    H223053   1.828   2.170   5.808
 7726TIP3   OH223054   1.625   2.385   6.057
 7726TIP3    H123055   1.559   2.431   6.109
 7726TIP3    H223056   1.575   2.345   5.986
 7727TIP3   OH223057   1.683   1.620   5.087
 7727TIP3    H123058   1.611   1.618   5.024
 7727TIP3    H223059   1.669   1.700   5.138
 7728TIP3   OH223060   1.563   1.278   5.019
 7728TIP3    H123061   1.472   1.308   5.020
 7728TIP3    H223062   1.556   1.183   5.012
 7729TIP3   OH223063   1.577   1.563   5.578
 7729TIP3    H123064   1.584   1.471   5.553
 7729TIP3    H223065   1.555   1.561   5.671
 7730TIP3   OH223066   1.857   1.976   6.434
 7730TIP3    H123067   1.921   1.906   6.417
 7730TIP3    H223068   1.886   2.048   6.378
 7731TIP3   OH223069   2.029   1.759   6.423
 7731TIP3    H123070   1.955   1.716   6.466
 7731TIP3    H223071   2.104   1.704   6.442
 7732TIP3   OH223072   1.541   1.008   5.043
 7732TIP3    H123073   1.625   0.990   5.086
 7732TIP3    H223074   1.478   0.954   5.091
 7733TIP3   OH223075   1.586   1.294   5.461
 7733TIP3    H123076   1.627   1.209   5.473
 7733TIP3    H223077   1.627   1.329   5.382
 7734TIP3   OH223078   1.727   1.455   5.980
 7734TIP3    H123079   1.808   1.470   5.932
 7734TIP3    H223080   1.745   1.490   6.068
 7735TIP3   OH223081   1.801   1.595   6.211
 7735TIP3    H123082   1.730   1.623   6.269
 7735TIP3    H223083   1.832   1.676   6.169
 7736TIP3   OH223084   2.256   1.204   6.732
 7736TIP3    H123085   2.320   1.142   6.699
 7736TIP3    H223086   2.221   1.247   6.654
 7737TIP3   OH223087   1.689   1.038   5.510
 7737TIP3    H123088   1.734   1.024   5.593
 7737TIP3    H223089   1.629   0.964   5.502
 7738TIP3   OH223090   2.096   1.308   6.534
 7738TIP3    H123091   2.013   1.345   6.566
 7738TIP3    H223092   2.070   1.231   6.483
 7739TIP3   OH223093   1.775   0.957   5.173
 7739TIP3    H123094   1.827   0.900   5.116
 7739TIP3    H223095   1.822   1.041   5.171
 7740TIP3   OH223096   1.309   2.510   5.414
 7740TIP3    H123097   1.364   2.497   5.337
 7740TIP3    H223098   1.353   2.579   5.464
 7741TIP3   OH223099   0.400   2.264   6.811
 7741TIP3    H123100   0.311   2.294   6.830
 7741TIP3    H223101   0.443   2.261   6.897
 7742TIP3   OH223102   0.606   2.327   6.339
 7742TIP3    H123103   0.565   2.410   6.314
 7742TIP3    H223104   0.691   2.328   6.295
 7743TIP3   OH223105   1.020   2.576   6.480
 7743TIP3    H123106   1.055   2.568   6.568
 7743TIP3    H223107   1.084   2.630   6.433
 7744TIP3   OH223108   1.215   2.730   6.359
 7744TIP3    H123109   1.280   2.678   6.313
 7744TIP3    H223110   1.266   2.791   6.413
 7745TIP3   OH223111   2.021   1.050   6.441
 7745TIP3    H123112   1.933   1.032   6.408
 7745TIP3    H223113   2.066   0.966   6.435
 7746TIP3   OH223114   0.300   2.532   6.440
 7746TIP3    H123115   0.221   2.583   6.421
 7746TIP3    H223116   0.313   2.542   6.534
 7747TIP3   OH223117   0.514   2.570   6.252
 7747TIP3    H123118   0.433   2.577   6.302
 7747TIP3    H223119   0.490   2.596   6.163
 7748TIP3   OH223120   0.920   2.585   6.044
 7748TIP3    H123121   0.857   2.601   5.974
 7748TIP3    H223122   0.935   2.671   6.083
 7749TIP3   OH223123   1.187   2.524   6.083
 7749TIP3    H123124   1.095   2.544   6.067
 7749TIP3    H223125   1.236   2.592   6.037
 7750TIP3   OH223126   1.387   2.695   5.980
 7750TIP3    H123127   1.391   2.784   5.943
 7750TIP3    H223128   1.417   2.638   5.909
 7751TIP3   OH223129   0.172   2.377   6.073
 7751TIP3    H123130   0.168   2.353   6.166
 7751TIP3    H223131   0.248   2.330   6.039
 7752TIP3   OH223132   0.395   2.244   5.986
 7752TIP3    H123133   0.412   2.169   6.044
 7752TIP3    H223134   0.480   2.288   5.979
 7753TIP3   OH223135   0.664   2.333   5.978
 7753TIP3    H123136   0.699   2.253   5.938
 7753TIP3    H223137   0.717   2.346   6.057
 7754TIP3   OH223138   1.291   1.011   6.113
 7754TIP3    H123139   1.215   1.049   6.070
 7754TIP3    H223140   1.336   0.963   6.044
 7755TIP3   OH223141   1.718   0.900   5.966
 7755TIP3    H123142   1.756   0.950   5.894
 7755TIP3    H223143   1.623   0.915   5.958
 7756TIP3   OH223144   1.841   0.982   5.736
 7756TIP3    H123145   1.912   0.922   5.710
 7756TIP3    H223146   1.878   1.069   5.724
 7757TIP3   OH223147   1.437   0.860   5.939
 7757TIP3    H123148   1.422   0.828   5.850
 7757TIP3    H223149   1.433   0.781   5.993
 7758TIP3   OH223150   1.509   0.822   5.548
 7758TIP3    H123151   1.432   0.875   5.569
 7758TIP3    H223152   1.499   0.743   5.602
 7759TIP3   OH223153   9.726   2.132   5.446
 7759TIP3    H123154   9.648   2.098   5.403
 7759TIP3    H223155   9.724   2.226   5.431
 7760TIP3   OH223156   0.874   0.956   5.639
 7760TIP3    H123157   0.951   0.910   5.672
 7760TIP3    H223158   0.899   1.048   5.638
 7761TIP3   OH223159   0.763   2.322   5.086
 7761TIP3    H123160   0.847   2.349   5.048
 7761TIP3    H223161   0.732   2.252   5.028
 7762TIP3   OH223162   1.460   2.454   5.188
 7762TIP3    H123163   1.452   2.359   5.180
 7762TIP3    H223164   1.419   2.488   5.108
 7763TIP3   OH223165   0.064   2.160   5.139
 7763TIP3    H123166   0.048   2.140   5.232
 7763TIP3    H223167   0.144   2.113   5.117
 7764TIP3   OH223168   1.786   1.083   6.885
 7764TIP3    H123169   1.798   1.046   6.972
 7764TIP3    H223170   1.871   1.074   6.843
 7765TIP3   OH223171   1.673   2.592   6.376
 7765TIP3    H123172   1.598   2.565   6.323
 7765TIP3    H223173   1.665   2.687   6.384
 7766TIP3   OH223174   2.902   2.009   5.140
 7766TIP3    H123175   2.837   2.040   5.202
 7766TIP3    H223176   2.859   1.938   5.092
 7767TIP3   OH223177   2.960   1.965   5.531
 7767TIP3    H123178   3.008   1.957   5.613
 7767TIP3    H223179   2.914   1.881   5.523
 7768TIP3   OH223180   2.252   1.832   5.882
 7768TIP3    H123181   2.292   1.782   5.953
 7768TIP3    H223182   2.325   1.858   5.826
 7769TIP3   OH223183   3.135   2.214   5.188
 7769TIP3    H123184   3.167   2.161   5.261
 7769TIP3    H223185   3.135   2.303   5.222
 7770TIP3   OH223186   2.247   2.258   5.556
 7770TIP3    H123187   2.227   2.165   5.566
 7770TIP3    H223188   2.343   2.262   5.555
 7771TIP3   OH223189   1.935   1.478   5.357
 7771TIP3    H123190   1.895   1.562   5.382
 7771TIP3    H223191   1.865   1.429   5.315
 7772TIP3   OH223192   2.011   1.784   5.578
 7772TIP3    H123193   2.062   1.706   5.601
 7772TIP3    H223194   2.077   1.849   5.554
 7773TIP3   OH223195   2.838   2.724   5.241
 7773TIP3    H123196   2.880   2.659   5.185
 7773TIP3    H223197   2.857   2.694   5.330
 7774TIP3   OH223198   2.775   2.189   5.539
 7774TIP3    H123199   2.822   2.107   5.522
 7774TIP3    H223200   2.842   2.249   5.572
 7775TIP3   OH223201   3.796   1.514   5.558
 7775TIP3    H123202   3.813   1.598   5.601
 7775TIP3    H223203   3.818   1.529   5.466
 7776TIP3   OH223204   3.166   1.680   5.574
 7776TIP3    H123205   3.198   1.596   5.606
 7776TIP3    H223206   3.126   1.660   5.489
 7777TIP3   OH223207   2.527   1.342   5.531
 7777TIP3    H123208   2.504   1.414   5.474
 7777TIP3    H223209   2.471   1.269   5.504
 7778TIP3   OH223210   3.224   1.440   5.167
 7778TIP3    H123211   3.286   1.436   5.240
 7778TIP3    H223212   3.276   1.471   5.093
 7779TIP3   OH223213   2.151   1.560   5.663
 7779TIP3    H123214   2.234   1.540   5.707
 7779TIP3    H223215   2.153   1.507   5.583
 7780TIP3   OH223216   2.566   1.757   5.479
 7780TIP3    H123217   2.659   1.740   5.489
 7780TIP3    H223218   2.529   1.675   5.447
 7781TIP3   OH223219   3.852   1.738   5.716
 7781TIP3    H123220   3.761   1.768   5.717
 7781TIP3    H223221   3.889   1.772   5.798
 7782TIP3   OH223222   2.506   1.347   5.985
 7782TIP3    H123223   2.455   1.382   5.911
 7782TIP3    H223224   2.451   1.363   6.062
 7783TIP3   OH223225   2.908   2.219   4.936
 7783TIP3    H123226   2.850   2.181   4.870
 7783TIP3    H223227   2.862   2.299   4.965
 7784TIP3   OH223228   2.593   2.123   5.742
 7784TIP3    H123229   2.542   2.196   5.778
 7784TIP3    H223230   2.645   2.163   5.672
 7785TIP3   OH223231   3.372   1.472   5.393
 7785TIP3    H123232   3.332   1.446   5.476
 7785TIP3    H223233   3.431   1.544   5.417
 7786TIP3   OH223234   2.398   1.454   5.753
 7786TIP3    H123235   2.453   1.529   5.776
 7786TIP3    H223236   2.446   1.411   5.681
 7787TIP3   OH223237   2.443   2.328   5.853
 7787TIP3    H123238   2.433   2.419   5.826
 7787TIP3    H223239   2.366   2.310   5.906
 7788TIP3   OH223240   1.825   2.032   5.114
 7788TIP3    H123241   1.788   2.051   5.027
 7788TIP3    H223242   1.847   2.119   5.149
 7789TIP3   OH223243   3.595   1.404   5.725
 7789TIP3    H123244   3.511   1.422   5.682
 7789TIP3    H223245   3.661   1.430   5.660
 7790TIP3   OH223246   2.848   1.036   5.722
 7790TIP3    H123247   2.841   0.944   5.746
 7790TIP3    H223248   2.771   1.077   5.760
 7791TIP3   OH223249   2.983   2.561   5.073
 7791TIP3    H123250   3.051   2.540   5.137
 7791TIP3    H223251   3.025   2.621   5.012
 7792TIP3   OH223252   3.506   2.392   5.696
 7792TIP3    H123253   3.480   2.318   5.642
 7792TIP3    H223254   3.481   2.469   5.646
 7793TIP3   OH223255   2.797   1.826   4.964
 7793TIP3    H123256   2.710   1.859   4.943
 7793TIP3    H223257   2.841   1.819   4.879
 7794TIP3   OH223258   2.767   1.627   4.647
 7794TIP3    H123259   2.831   1.673   4.701
 7794TIP3    H223260   2.817   1.563   4.597
 7795TIP3   OH223261   3.682   2.074   5.562
 7795TIP3    H123262   3.594   2.112   5.560
 7795TIP3    H223263   3.715   2.085   5.472
 7796TIP3   OH223264   3.138   1.969   4.980
 7796TIP3    H123265   3.103   1.896   5.031
 7796TIP3    H223266   3.232   1.950   4.972
 7797TIP3   OH223267   3.374   1.937   5.874
 7797TIP3    H123268   3.369   2.020   5.921
 7797TIP3    H223269   3.293   1.933   5.823
 7798TIP3   OH223270   2.369   1.889   5.323
 7798TIP3    H123271   2.331   1.828   5.260
 7798TIP3    H223272   2.439   1.839   5.366
 7799TIP3   OH223273   2.515   2.309   5.470
 7799TIP3    H123274   2.489   2.298   5.378
 7799TIP3    H223275   2.603   2.272   5.474
 7800TIP3   OH223276   2.462   1.886   5.703
 7800TIP3    H123277   2.502   1.849   5.624
 7800TIP3    H223278   2.509   1.968   5.718
 7801TIP3   OH223279   3.025   2.463   5.432
 7801TIP3    H123280   3.022   2.554   5.462
 7801TIP3    H223281   3.011   2.411   5.511
 7802TIP3   OH223282   2.640   2.421   6.029
 7802TIP3    H123283   2.578   2.477   6.076
 7802TIP3    H223284   2.585   2.370   5.969
 7803TIP3   OH223285   2.991   1.787   4.763
 7803TIP3    H123286   3.045   1.858   4.798
 7803TIP3    H223287   3.009   1.788   4.669
 7804TIP3   OH223288   2.397   1.967   6.173
 7804TIP3    H123289   2.401   2.062   6.190
 7804TIP3    H223290   2.303   1.949   6.165
 7805TIP3   OH223291   2.749   2.433   4.999
 7805TIP3    H123292   2.817   2.492   5.032
 7805TIP3    H223293   2.682   2.492   4.963
 7806TIP3   OH223294   2.427   2.577   6.114
 7806TIP3    H123295   2.405   2.592   6.021
 7806TIP3    H223296   2.342   2.568   6.157
 7807TIP3   OH223297   3.482   0.998   4.818
 7807TIP3    H123298   3.405   1.017   4.872
 7807TIP3    H223299   3.490   1.073   4.760
 7808TIP3   OH223300   2.243   1.729   5.125
 7808TIP3    H123301   2.165   1.777   5.096
 7808TIP3    H223302   2.211   1.641   5.143
 7809TIP3   OH223303   3.314   2.396   4.353
 7809TIP3    H123304   3.314   2.490   4.334
 7809TIP3    H223305   3.401   2.366   4.329
 7810TIP3   OH223306   2.027   2.140   6.062
 7810TIP3    H123307   1.958   2.121   5.999
 7810TIP3    H223308   2.062   2.054   6.086
 7811TIP3   OH223309   1.871   2.331   5.718
 7811TIP3    H123310   1.962   2.356   5.733
 7811TIP3    H223311   1.821   2.408   5.746
 7812TIP3   OH223312   3.728   2.785   5.775
 7812TIP3    H123313   3.729   2.690   5.787
 7812TIP3    H223314   3.645   2.814   5.814
 7813TIP3   OH223315   2.828   2.567   5.891
 7813TIP3    H123316   2.821   2.658   5.918
 7813TIP3    H223317   2.760   2.521   5.940
 7814TIP3   OH223318   2.619   2.657   4.847
 7814TIP3    H123319   2.573   2.641   4.765
 7814TIP3    H223320   2.587   2.742   4.877
 7815TIP3   OH223321   2.046   2.521   5.218
 7815TIP3    H123322   2.090   2.514   5.302
 7815TIP3    H223323   1.997   2.440   5.209
 7816TIP3   OH223324   2.805   2.591   4.467
 7816TIP3    H123325   2.857   2.521   4.429
 7816TIP3    H223326   2.845   2.607   4.552
 7817TIP3   OH223327   2.873   2.621   4.741
 7817TIP3    H123328   2.791   2.624   4.790
 7817TIP3    H223329   2.941   2.636   4.807
 7818TIP3   OH223330   3.622   1.882   6.022
 7818TIP3    H123331   3.535   1.895   5.983
 7818TIP3    H223332   3.637   1.788   6.016
 7819TIP3   OH223333   2.229   2.326   6.027
 7819TIP3    H123334   2.279   2.312   6.107
 7819TIP3    H223335   2.155   2.266   6.035
 7820TIP3   OH223336   2.611   1.128   5.847
 7820TIP3    H123337   2.528   1.095   5.814
 7820TIP3    H223338   2.588   1.209   5.892
 7821TIP3   OH223339   3.149   1.254   6.047
 7821TIP3    H123340   3.218   1.230   6.109
 7821TIP3    H223341   3.067   1.239   6.095
 7822TIP3   OH223342   3.370   1.672   5.964
 7822TIP3    H123343   3.331   1.666   6.051
 7822TIP3    H223344   3.356   1.762   5.937
 7823TIP3   OH223345   3.053   1.793   4.501
 7823TIP3    H123346   3.008   1.779   4.418
 7823TIP3    H223347   3.139   1.827   4.477
 7824TIP3   OH223348   2.754   1.170   4.813
 7824TIP3    H123349   2.724   1.180   4.904
 7824TIP3    H223350   2.720   1.085   4.786
 7825TIP3   OH223351   2.547   1.666   5.852
 7825TIP3    H123352   2.502   1.671   5.936
 7825TIP3    H223353   2.523   1.747   5.807
 7826TIP3   OH223354   2.428   1.542   5.372
 7826TIP3    H123355   2.340   1.517   5.399
 7826TIP3    H223356   2.436   1.509   5.283
 7827TIP3   OH223357   2.911   1.615   5.099
 7827TIP3    H123358   2.863   1.686   5.057
 7827TIP3    H223359   2.967   1.579   5.030
 7828TIP3   OH223360   3.093   1.881   6.174
 7828TIP3    H123361   3.066   1.813   6.236
 7828TIP3    H223362   3.185   1.898   6.195
 7829TIP3   OH223363   3.074   1.618   5.323
 7829TIP3    H123364   3.005   1.633   5.259
 7829TIP3    H223365   3.125   1.546   5.287
 7830TIP3   OH223366   2.389   1.679   6.076
 7830TIP3    H123367   2.401   1.743   6.146
 7830TIP3    H223368   2.370   1.597   6.121
 7831TIP3   OH223369   2.409   1.157   4.756
 7831TIP3    H123370   2.398   1.158   4.851
 7831TIP3    H223371   2.335   1.209   4.723
 7832TIP3   OH223372   1.970   1.205   5.659
 7832TIP3    H123373   2.047   1.237   5.706
 7832TIP3    H223374   2.003   1.179   5.573
 7833TIP3   OH223375   1.908   1.198   5.171
 7833TIP3    H123376   1.949   1.227   5.090
 7833TIP3    H223377   1.840   1.263   5.189
 7834TIP3   OH223378   3.126   1.884   5.747
 7834TIP3    H123379   3.147   1.815   5.685
 7834TIP3    H223380   3.079   1.839   5.818
 7835TIP3   OH223381   2.796   1.333   5.426
 7835TIP3    H123382   2.717   1.331   5.480
 7835TIP3    H223383   2.867   1.319   5.488
 7836TIP3   OH223384   2.192   1.417   5.434
 7836TIP3    H123385   2.104   1.424   5.398
 7836TIP3    H223386   2.217   1.325   5.419
 7837TIP3   OH223387   2.442   1.421   5.125
 7837TIP3    H123388   2.537   1.429   5.117
 7837TIP3    H223389   2.409   1.440   5.038
 7838TIP3   OH223390   3.234   1.417   5.631
 7838TIP3    H123391   3.218   1.433   5.724
 7838TIP3    H223392   3.167   1.354   5.605
 7839TIP3   OH223393   2.340   1.452   4.873
 7839TIP3    H123394   2.269   1.410   4.824
 7839TIP3    H223395   2.395   1.492   4.805
 7840TIP3   OH223396   3.438   3.130   5.852
 7840TIP3    H123397   3.430   3.148   5.759
 7840TIP3    H223398   3.518   3.176   5.878
 7841TIP3   OH223399   2.378   2.235   6.261
 7841TIP3    H123400   2.458   2.257   6.308
 7841TIP3    H223401   2.308   2.245   6.326
 7842TIP3   OH223402   2.838   1.703   5.531
 7842TIP3    H123403   2.900   1.646   5.486
 7842TIP3    H223404   2.833   1.668   5.620
 7843TIP3   OH223405   2.334   1.168   5.420
 7843TIP3    H123406   2.305   1.093   5.473
 7843TIP3    H223407   2.353   1.131   5.334
 7844TIP3   OH223408   2.813   1.614   5.794
 7844TIP3    H123409   2.726   1.644   5.821
 7844TIP3    H223410   2.874   1.664   5.849
 7845TIP3   OH223411   2.556   1.949   4.911
 7845TIP3    H123412   2.480   1.897   4.883
 7845TIP3    H223413   2.527   1.994   4.990
 7846TIP3   OH223414   3.434   2.189   5.522
 7846TIP3    H123415   3.469   2.242   5.450
 7846TIP3    H223416   3.353   2.151   5.486
 7847TIP3   OH223417   3.009   1.273   4.825
 7847TIP3    H123418   2.916   1.251   4.818
 7847TIP3    H223419   3.011   1.368   4.830
 7848TIP3   OH223420   2.945   2.296   5.935
 7848TIP3    H123421   2.997   2.285   6.015
 7848TIP3    H223422   2.910   2.385   5.941
 7849TIP3   OH223423   3.071   1.543   4.881
 7849TIP3    H123424   3.166   1.535   4.890
 7849TIP3    H223425   3.058   1.621   4.828
 7850TIP3   OH223426   2.233   1.967   5.553
 7850TIP3    H123427   2.271   1.951   5.466
 7850TIP3    H223428   2.300   1.939   5.615
 7851TIP3   OH223429   2.715   2.119   4.764
 7851TIP3    H123430   2.665   2.200   4.757
 7851TIP3    H223431   2.657   2.060   4.812
 7852TIP3   OH223432   2.121   1.908   6.195
 7852TIP3    H123433   2.127   1.884   6.288
 7852TIP3    H223434   2.045   1.860   6.163
 7853TIP3   OH223435   2.863   2.041   6.212
 7853TIP3    H123436   2.793   1.980   6.187
 7853TIP3    H223437   2.944   1.997   6.185
 7854TIP3   OH223438   3.103   2.577   5.824
 7854TIP3    H123439   3.008   2.569   5.821
 7854TIP3    H223440   3.122   2.618   5.908
 7855TIP3   OH223441   3.483   1.628   4.700
 7855TIP3    H123442   3.423   1.590   4.636
 7855TIP3    H223443   3.497   1.718   4.669
 7856TIP3   OH223444   3.744   2.506   5.777
 7856TIP3    H123445   3.652   2.481   5.775
 7856TIP3    H223446   3.778   2.479   5.691
 7857TIP3   OH223447   3.206   2.442   4.606
 7857TIP3    H123448   3.117   2.408   4.598
 7857TIP3    H223449   3.247   2.420   4.522
 7858TIP3   OH223450   3.207   2.057   5.403
 7858TIP3    H123451   3.125   2.037   5.448
 7858TIP3    H223452   3.242   1.971   5.379
 7859TIP3   OH223453   2.366   2.313   5.228
 7859TIP3    H123454   2.360   2.389   5.170
 7859TIP3    H223455   2.281   2.308   5.271
 7860TIP3   OH223456   1.916   1.600   4.944
 7860TIP3    H123457   1.960   1.682   4.965
 7860TIP3    H223458   1.836   1.601   4.996
 7861TIP3   OH223459   2.460   2.071   5.133
 7861TIP3    H123460   2.436   2.160   5.160
 7861TIP3    H223461   2.427   2.015   5.203
 7862TIP3   OH223462   2.654   2.641   5.676
 7862TIP3    H123463   2.693   2.712   5.626
 7862TIP3    H223464   2.727   2.607   5.730
 7863TIP3   OH223465   2.285   2.535   5.077
 7863TIP3    H123466   2.197   2.545   5.114
 7863TIP3    H223467   2.322   2.623   5.080
 7864TIP3   OH223468   3.005   2.296   5.665
 7864TIP3    H123469   2.972   2.293   5.755
 7864TIP3    H223470   3.100   2.284   5.673
 7865TIP3   OH223471   2.995   2.177   4.520
 7865TIP3    H123472   3.009   2.162   4.614
 7865TIP3    H223473   2.911   2.136   4.501
 7866TIP3   OH223474   3.242   2.798   5.713
 7866TIP3    H123475   3.181   2.725   5.722
 7866TIP3    H223476   3.237   2.821   5.620
 7867TIP3   OH223477   3.327   2.672   4.335
 7867TIP3    H123478   3.365   2.750   4.293
 7867TIP3    H223479   3.247   2.705   4.376
 7868TIP3   OH223480   2.334   1.424   6.191
 7868TIP3    H123481   2.239   1.432   6.194
 7868TIP3    H223482   2.357   1.371   6.268
 7869TIP3   OH223483   2.075   2.542   5.842
 7869TIP3    H123484   2.127   2.485   5.899
 7869TIP3    H223485   2.088   2.630   5.877
 7870TIP3   OH223486   2.346   2.147   4.540
 7870TIP3    H123487   2.356   2.055   4.513
 7870TIP3    H223488   2.329   2.142   4.635
 7871TIP3   OH223489   2.282   2.160   4.811
 7871TIP3    H123490   2.339   2.135   4.884
 7871TIP3    H223491   2.280   2.256   4.813
 7872TIP3   OH223492   2.016   1.851   5.020
 7872TIP3    H123493   1.953   1.900   5.073
 7872TIP3    H223494   2.033   1.907   4.945
 7873TIP3   OH223495   3.182   1.480   5.892
 7873TIP3    H123496   3.257   1.528   5.927
 7873TIP3    H223497   3.172   1.405   5.951
 7874TIP3   OH223498   3.071   1.222   5.090
 7874TIP3    H123499   3.050   1.239   4.998
 7874TIP3    H223500   3.118   1.300   5.119
 7875TIP3   OH223501   2.559   2.341   4.744
 7875TIP3    H123502   2.474   2.363   4.783
 7875TIP3    H223503   2.583   2.417   4.692
 7876TIP3   OH223504   2.722   1.427   5.176
 7876TIP3    H123505   2.786   1.494   5.151
 7876TIP3    H223506   2.745   1.405   5.266
 7877TIP3   OH223507   3.022   1.722   5.946
 7877TIP3    H123508   3.044   1.766   6.028
 7877TIP3    H223509   3.070   1.640   5.948
 7878TIP3   OH223510   2.882   1.119   5.263
 7878TIP3    H123511   2.860   1.197   5.314
 7878TIP3    H223512   2.953   1.147   5.205
 7879TIP3   OH223513   2.309   2.430   4.824
 7879TIP3    H123514   2.287   2.500   4.763
 7879TIP3    H223515   2.299   2.470   4.911
 7880TIP3   OH223516   2.400   1.151   5.037
 7880TIP3    H123517   2.384   1.238   5.074
 7880TIP3    H223518   2.494   1.136   5.049
 7881TIP3   OH223519   3.631   1.604   5.928
 7881TIP3    H123520   3.538   1.620   5.944
 7881TIP3    H223521   3.632   1.538   5.859
 7882TIP3   OH223522   3.299   1.804   5.320
 7882TIP3    H123523   3.227   1.743   5.338
 7882TIP3    H223524   3.371   1.771   5.375
 7883TIP3   OH223525   2.039   2.024   4.801
 7883TIP3    H123526   2.109   2.089   4.809
 7883TIP3    H223527   2.071   1.962   4.736
 7884TIP3   OH223528   1.964   1.326   4.937
 7884TIP3    H123529   1.955   1.421   4.939
 7884TIP3    H223530   1.902   1.297   4.871
 7885TIP3   OH223531   2.350   1.046   5.802
 7885TIP3    H123532   2.322   1.014   5.717
 7885TIP3    H223533   2.338   0.971   5.861
 7886TIP3   OH223534   1.870   2.300   5.198
 7886TIP3    H123535   1.829   2.336   5.277
 7886TIP3    H223536   1.824   2.343   5.125
 7887TIP3   OH223537   2.084   2.841   6.269
 7887TIP3    H123538   2.163   2.853   6.322
 7887TIP3    H223539   2.082   2.747   6.251
 7888TIP3   OH223540   2.539   2.739   6.308
 7888TIP3    H123541   2.628   2.708   6.322
 7888TIP3    H223542   2.506   2.684   6.237
 7889TIP3   OH223543   2.490   2.351   4.426
 7889TIP3    H123544   2.444   2.281   4.473
 7889TIP3    H223545   2.564   2.308   4.383
 7890TIP3   OH223546   3.153   2.684   6.071
 7890TIP3    H123547   3.170   2.615   6.135
 7890TIP3    H223548   3.225   2.746   6.082
 7891TIP3   OH223549   2.937   2.383   4.344
 7891TIP3    H123550   2.977   2.314   4.396
 7891TIP3    H223551   2.987   2.386   4.263
 7892TIP3   OH223552   2.171   2.234   6.449
 7892TIP3    H123553   2.193   2.142   6.462
 7892TIP3    H223554   2.082   2.233   6.412
 7893TIP3   OH223555   2.167   1.839   4.647
 7893TIP3    H123556   2.217   1.814   4.725
 7893TIP3    H223557   2.232   1.854   4.579
 7894TIP3   OH223558   2.797   2.319   6.233
 7894TIP3    H123559   2.752   2.342   6.152
 7894TIP3    H223560   2.832   2.231   6.218
 7895TIP3   OH223561   2.747   2.065   4.491
 7895TIP3    H123562   2.719   2.074   4.582
 7895TIP3    H223563   2.727   1.974   4.469
 7896TIP3   OH223564   3.260   2.347   5.824
 7896TIP3    H123565   3.342   2.378   5.787
 7896TIP3    H223566   3.204   2.424   5.826
 7897TIP3   OH223567   2.287   1.980   6.461
 7897TIP3    H123568   2.364   1.967   6.405
 7897TIP3    H223569   2.322   2.000   6.547
 7898TIP3   OH223570   2.343   1.778   4.858
 7898TIP3    H123571   2.317   1.746   4.945
 7898TIP3    H223572   2.387   1.704   4.817
 7899TIP3   OH223573   2.657   1.864   6.118
 7899TIP3    H123574   2.571   1.905   6.131
 7899TIP3    H223575   2.685   1.895   6.032
 7900TIP3   OH223576   2.487   1.599   4.693
 7900TIP3    H123577   2.456   1.606   4.602
 7900TIP3    H223578   2.582   1.605   4.686
 7901TIP3   OH223579   3.144   2.235   6.192
 7901TIP3    H123580   3.216   2.198   6.140
 7901TIP3    H223581   3.142   2.182   6.272
 7902TIP3   OH223582   3.292   1.896   4.404
 7902TIP3    H123583   3.281   1.849   4.321
 7902TIP3    H223584   3.270   1.987   4.383
 7903TIP3   OH223585   2.755   1.630   6.225
 7903TIP3    H123586   2.758   1.561   6.159
 7903TIP3    H223587   2.722   1.707   6.178
 7904TIP3   OH223588   2.764   1.434   6.020
 7904TIP3    H123589   2.791   1.472   5.936
 7904TIP3    H223590   2.674   1.407   6.006
 7905TIP3   OH223591   2.765   1.968   5.891
 7905TIP3    H123592   2.848   2.016   5.894
 7905TIP3    H223593   2.707   2.024   5.839
 7906TIP3   OH223594   3.360   1.924   6.273
 7906TIP3    H123595   3.412   1.844   6.284
 7906TIP3    H223596   3.424   1.995   6.271
 7907TIP3   OH223597   3.383   2.185   6.009
 7907TIP3    H123598   3.329   2.241   5.954
 7907TIP3    H223599   3.473   2.201   5.979
 7908TIP3   OH223600   2.639   1.707   6.469
 7908TIP3    H123601   2.570   1.644   6.489
 7908TIP3    H223602   2.668   1.683   6.381
 7909TIP3   OH223603   2.884   1.203   6.126
 7909TIP3    H123604   2.843   1.283   6.092
 7909TIP3    H223605   2.818   1.135   6.114
 7910TIP3   OH223606   3.010   1.671   6.331
 7910TIP3    H123607   3.000   1.658   6.425
 7910TIP3    H223608   2.924   1.649   6.295
 7911TIP3   OH223609   3.256   1.624   6.203
 7911TIP3    H123610   3.177   1.625   6.258
 7911TIP3    H223611   3.327   1.605   6.264
 7912TIP3   OH223612   3.495   1.595   6.349
 7912TIP3    H123613   3.508   1.501   6.356
 7912TIP3    H223614   3.490   1.626   6.440
 7913TIP3   OH223615   2.469   1.489   6.534
 7913TIP3    H123616   2.476   1.400   6.499
 7913TIP3    H223617   2.508   1.484   6.622
 7914TIP3   OH223618   2.950   1.177   6.391
 7914TIP3    H123619   3.016   1.108   6.385
 7914TIP3    H223620   2.920   1.190   6.301
 7915TIP3   OH223621   3.049   1.391   6.536
 7915TIP3    H123622   3.017   1.318   6.482
 7915TIP3    H223623   2.975   1.452   6.539
 7916TIP3   OH223624   2.295   2.635   4.640
 7916TIP3    H123625   2.387   2.621   4.617
 7916TIP3    H223626   2.259   2.684   4.566
 7917TIP3   OH223627   1.766   2.032   4.823
 7917TIP3    H123628   1.861   2.041   4.818
 7917TIP3    H223629   1.748   1.947   4.781
 7918TIP3   OH223630   1.670   2.604   5.282
 7918TIP3    H123631   1.605   2.551   5.236
 7918TIP3    H223632   1.715   2.543   5.340
 7919TIP3   OH223633   1.815   2.435   5.449
 7919TIP3    H123634   1.808   2.367   5.516
 7919TIP3    H223635   1.867   2.504   5.490
 7920TIP3   OH223636   3.513   2.881   5.195
 7920TIP3    H123637   3.436   2.859   5.247
 7920TIP3    H223638   3.544   2.964   5.232
 7921TIP3   OH223639   3.552   2.915   5.545
 7921TIP3    H123640   3.478   2.876   5.499
 7921TIP3    H223641   3.593   2.842   5.590
 7922TIP3   OH223642   3.629   2.577   6.104
 7922TIP3    H123643   3.556   2.586   6.165
 7922TIP3    H223644   3.676   2.660   6.111
 7923TIP3   OH223645   3.559   1.932   4.909
 7923TIP3    H123646   3.490   1.895   4.965
 7923TIP3    H223647   3.618   1.975   4.971
 7924TIP3   OH223648   3.608   2.333   5.360
 7924TIP3    H123649   3.666   2.266   5.326
 7924TIP3    H223650   3.598   2.395   5.288
 7925TIP3   OH223651   3.419   2.618   5.572
 7925TIP3    H123652   3.376   2.669   5.642
 7925TIP3    H223653   3.385   2.655   5.491
 7926TIP3   OH223654   3.503   1.876   4.583
 7926TIP3    H123655   3.429   1.887   4.523
 7926TIP3    H223656   3.497   1.952   4.642
 7927TIP3   OH223657   3.320   1.526   4.507
 7927TIP3    H123658   3.282   1.557   4.424
 7927TIP3    H223659   3.313   1.431   4.502
 7928TIP3   OH223660   3.356   1.801   5.049
 7928TIP3    H123661   3.366   1.708   5.027
 7928TIP3    H223662   3.346   1.802   5.144
 7929TIP3   OH223663   1.989   1.873   5.835
 7929TIP3    H123664   1.979   1.843   5.745
 7929TIP3    H223665   2.083   1.869   5.852
 7930TIP3   OH223666   3.642   2.224   5.917
 7930TIP3    H123667   3.712   2.160   5.900
 7930TIP3    H223668   3.641   2.280   5.840
 7931TIP3   OH223669   3.827   2.018   5.903
 7931TIP3    H123670   3.755   1.973   5.946
 7931TIP3    H223671   3.904   1.964   5.922
 7932TIP3   OH223672   3.288   1.256   4.484
 7932TIP3    H123673   3.358   1.223   4.539
 7932TIP3    H223674   3.210   1.209   4.513
 7933TIP3   OH223675   3.362   1.529   4.934
 7933TIP3    H123676   3.407   1.446   4.949
 7933TIP3    H223677   3.404   1.567   4.857
 7934TIP3   OH223678   3.516   1.700   5.465
 7934TIP3    H123679   3.598   1.716   5.419
 7934TIP3    H223680   3.529   1.739   5.552
 7935TIP3   OH223681   3.589   1.847   5.693
 7935TIP3    H123682   3.520   1.876   5.752
 7935TIP3    H223683   3.624   1.927   5.655
 7936TIP3   OH223684   2.207   1.552   6.467
 7936TIP3    H123685   2.300   1.547   6.489
 7936TIP3    H223686   2.170   1.471   6.503
 7937TIP3   OH223687   4.054   1.445   6.231
 7937TIP3    H123688   4.120   1.389   6.190
 7937TIP3    H223689   4.017   1.496   6.158
 7938TIP3   OH223690   3.477   1.283   4.994
 7938TIP3    H123691   3.523   1.269   5.077
 7938TIP3    H223692   3.416   1.210   4.988
 7939TIP3   OH223693   2.189   1.271   5.818
 7939TIP3    H123694   2.241   1.191   5.825
 7939TIP3    H223695   2.252   1.340   5.799
 7940TIP3   OH223696   1.968   1.535   5.877
 7940TIP3    H123697   2.018   1.523   5.797
 7940TIP3    H223698   2.000   1.619   5.912
 7941TIP3   OH223699   3.901   1.574   6.043
 7941TIP3    H123700   3.833   1.612   6.098
 7941TIP3    H223701   3.854   1.514   5.985
 7942TIP3   OH223702   3.519   1.195   4.629
 7942TIP3    H123703   3.567   1.134   4.573
 7942TIP3    H223704   3.574   1.273   4.633
 7943TIP3   OH223705   1.967   1.065   5.402
 7943TIP3    H123706   1.878   1.043   5.430
 7943TIP3    H223707   1.954   1.120   5.324
 7944TIP3   OH223708   3.097   2.734   4.899
 7944TIP3    H123709   3.160   2.733   4.827
 7944TIP3    H223710   3.109   2.820   4.939
 7945TIP3   OH223711   2.178   1.106   6.209
 7945TIP3    H123712   2.125   1.095   6.288
 7945TIP3    H223713   2.119   1.151   6.148
 7946TIP3   OH223714   2.192   2.564   6.275
 7946TIP3    H123715   2.101   2.536   6.271
 7946TIP3    H223716   2.217   2.554   6.367
 7947TIP3   OH223717   2.426   2.605   5.829
 7947TIP3    H123718   2.374   2.679   5.798
 7947TIP3    H223719   2.511   2.615   5.785
 7948TIP3   OH223720   2.816   2.835   5.963
 7948TIP3    H123721   2.851   2.828   6.052
 7948TIP3    H223722   2.881   2.885   5.915
 7949TIP3   OH223723   3.014   2.979   5.833
 7949TIP3    H123724   3.081   2.929   5.786
 7949TIP3    H223725   3.064   3.039   5.889
 7950TIP3   OH223726   3.812   1.314   5.931
 7950TIP3    H123727   3.725   1.304   5.892
 7950TIP3    H223728   3.850   1.226   5.925
 7951TIP3   OH223729   2.081   2.833   5.883
 7951TIP3    H123730   1.991   2.851   5.859
 7951TIP3    H223731   2.104   2.901   5.946
 7952TIP3   OH223732   2.310   2.833   5.729
 7952TIP3    H123733   2.227   2.836   5.776
 7952TIP3    H223734   2.287   2.857   5.639
 7953TIP3   OH223735   2.745   2.848   5.515
 7953TIP3    H123736   2.677   2.861   5.448
 7953TIP3    H223737   2.754   2.934   5.557
 7954TIP3   OH223738   3.002   2.728   5.509
 7954TIP3    H123739   2.928   2.789   5.512
 7954TIP3    H223740   3.072   2.777   5.468
 7955TIP3   OH223741   1.987   2.617   5.589
 7955TIP3    H123742   2.014   2.597   5.679
 7955TIP3    H223743   2.059   2.586   5.535
 7956TIP3   OH223744   2.193   2.504   5.452
 7956TIP3    H123745   2.205   2.419   5.494
 7956TIP3    H223746   2.279   2.546   5.458
 7957TIP3   OH223747   2.461   2.586   5.482
 7957TIP3    H123748   2.482   2.494   5.469
 7957TIP3    H223749   2.518   2.614   5.554
 7958TIP3   OH223750   3.020   1.233   5.564
 7958TIP3    H123751   2.982   1.162   5.615
 7958TIP3    H223752   3.089   1.190   5.512
 7959TIP3   OH223753   3.523   1.161   5.457
 7959TIP3    H123754   3.557   1.210   5.382
 7959TIP3    H223755   3.429   1.176   5.455
 7960TIP3   OH223756   3.635   1.236   5.217
 7960TIP3    H123757   3.703   1.174   5.192
 7960TIP3    H223758   3.674   1.322   5.203
 7961TIP3   OH223759   2.266   0.941   5.562
 7961TIP3    H123760   2.178   0.908   5.576
 7961TIP3    H223761   2.320   0.862   5.556
 7962TIP3   OH223762   2.099   0.864   5.238
 7962TIP3    H123763   2.109   0.903   5.151
 7962TIP3    H223764   2.062   0.934   5.292
 7963TIP3   OH223765   2.742   0.976   5.462
 7963TIP3    H123766   2.790   1.023   5.393
 7963TIP3    H223767   2.783   1.004   5.544
 7964TIP3   OH223768   3.238   1.117   5.433
 7964TIP3    H123769   3.253   1.079   5.346
 7964TIP3    H223770   3.244   1.042   5.493
 7965TIP3   OH223771   3.292   1.073   5.003
 7965TIP3    H123772   3.212   1.118   5.030
 7965TIP3    H223773   3.282   0.985   5.040
 7966TIP3   OH223774   1.748   2.420   4.984
 7966TIP3    H123775   1.665   2.388   4.949
 7966TIP3    H223776   1.756   2.509   4.948
 7967TIP3   OH223777   2.186   0.983   4.973
 7967TIP3    H123778   2.228   0.915   4.920
 7967TIP3    H223779   2.259   1.038   5.002
 7968TIP3   OH223780   2.674   1.178   5.074
 7968TIP3    H123781   2.726   1.120   5.130
 7968TIP3    H223782   2.690   1.265   5.109
 7969TIP3   OH223783   2.555   2.569   4.577
 7969TIP3    H123784   2.637   2.598   4.537
 7969TIP3    H223785   2.522   2.501   4.519
 7970TIP3   OH223786   3.258   2.704   4.675
 7970TIP3    H123787   3.247   2.611   4.657
 7970TIP3    H223788   3.214   2.748   4.602
 7971TIP3   OH223789   2.488   1.217   6.448
 7971TIP3    H123790   2.454   1.150   6.507
 7971TIP3    H223791   2.580   1.227   6.473
 7972TIP3   OH223792   2.735   1.229   6.569
 7972TIP3    H123793   2.813   1.206   6.518
 7972TIP3    H223794   2.728   1.159   6.634
 7973TIP3   OH223795   1.864   2.414   4.627
 7973TIP3    H123796   1.866   2.432   4.721
 7973TIP3    H223797   1.945   2.366   4.610
 7974TIP3   OH223798   3.558   1.323   6.353
 7974TIP3    H123799   3.575   1.294   6.443
 7974TIP3    H223800   3.644   1.318   6.310
 7975TIP3   OH223801   3.472   2.856   5.861
 7975TIP3    H123802   3.392   2.829   5.816
 7975TIP3    H223803   3.466   2.951   5.866
 7976TIP3   OH223804   4.756   2.239   4.596
 7976TIP3    H123805   4.725   2.326   4.570
 7976TIP3    H223806   4.685   2.180   4.568
 7977TIP3   OH223807   4.752   2.234   5.019
 7977TIP3    H123808   4.804   2.216   5.097
 7977TIP3    H223809   4.704   2.152   5.003
 7978TIP3   OH223810   4.042   2.081   5.364
 7978TIP3    H123811   4.082   2.034   5.438
 7978TIP3    H223812   4.116   2.105   5.308
 7979TIP3   OH223813   5.020   2.541   4.696
 7979TIP3    H123814   5.007   2.476   4.765
 7979TIP3    H223815   5.039   2.622   4.744
 7980TIP3   OH223816   4.071   2.549   5.142
 7980TIP3    H123817   4.044   2.460   5.121
 7980TIP3    H223818   4.147   2.565   5.086
 7981TIP3   OH223819   3.725   1.723   4.834
 7981TIP3    H123820   3.680   1.804   4.857
 7981TIP3    H223821   3.657   1.668   4.794
 7982TIP3   OH223822   3.782   2.017   5.059
 7982TIP3    H123823   3.833   1.942   5.089
 7982TIP3    H223824   3.839   2.061   4.996
 7983TIP3   OH223825   4.689   2.959   4.715
 7983TIP3    H123826   4.710   2.899   4.644
 7983TIP3    H223827   4.700   2.907   4.794
 7984TIP3   OH223828   4.552   2.459   5.021
 7984TIP3    H123829   4.598   2.382   4.987
 7984TIP3    H223830   4.622   2.514   5.057
 7985TIP3   OH223831   5.589   1.761   5.029
 7985TIP3    H123832   5.613   1.840   5.077
 7985TIP3    H223833   5.642   1.765   4.949
 7986TIP3   OH223834   4.981   1.944   5.051
 7986TIP3    H123835   5.004   1.859   5.088
 7986TIP3    H223836   4.932   1.923   4.972
 7987TIP3   OH223837   4.323   1.596   5.018
 7987TIP3    H123838   4.300   1.669   4.960
 7987TIP3    H223839   4.267   1.524   4.988
 7988TIP3   OH223840   5.005   1.703   4.647
 7988TIP3    H123841   5.066   1.705   4.722
 7988TIP3    H223842   5.057   1.737   4.574
 7989TIP3   OH223843   3.941   1.811   5.152
 7989TIP3    H123844   4.025   1.796   5.195
 7989TIP3    H223845   3.945   1.759   5.072
 7990TIP3   OH223846   4.356   2.015   4.968
 7990TIP3    H123847   4.450   2.002   4.973
 7990TIP3    H223848   4.322   1.933   4.932
 7991TIP3   OH223849   5.608   1.969   5.218
 7991TIP3    H123850   5.543   2.039   5.207
 7991TIP3    H223851   5.677   2.010   5.272
 7992TIP3   OH223852   4.301   1.603   5.470
 7992TIP3    H123853   4.250   1.638   5.397
 7992TIP3    H223854   4.246   1.617   5.547
 7993TIP3   OH223855   4.651   2.458   4.461
 7993TIP3    H123856   4.611   2.427   4.380
 7993TIP3    H223857   4.598   2.534   4.486
 7994TIP3   OH223858   4.403   2.363   5.231
 7994TIP3    H123859   4.362   2.436   5.277
 7994TIP3    H223860   4.450   2.404   5.158
 7995TIP3   OH223861   5.143   1.746   4.876
 7995TIP3    H123862   5.108   1.713   4.959
 7995TIP3    H223863   5.208   1.812   4.901
 7996TIP3   OH223864   4.193   1.710   5.238
 7996TIP3    H123865   4.248   1.784   5.262
 7996TIP3    H223866   4.240   1.667   5.166
 7997TIP3   OH223867   4.279   2.567   5.363
 7997TIP3    H123868   4.260   2.653   5.325
 7997TIP3    H223869   4.197   2.541   5.405
 7998TIP3   OH223870   3.636   2.286   4.588
 7998TIP3    H123871   3.586   2.309   4.510
 7998TIP3    H223872   3.649   2.369   4.634
 7999TIP3   OH223873   5.049   2.787   4.837
 7999TIP3    H123874   4.961   2.780   4.874
 7999TIP3    H223875   5.048   2.871   4.790
 8000TIP3   OH223876   4.648   1.293   5.210
 8000TIP3    H123877   4.638   1.200   5.234
 8000TIP3    H223878   4.571   1.335   5.247
 8001TIP3   OH223879   4.764   2.817   4.488
 8001TIP3    H123880   4.816   2.738   4.477
 8001TIP3    H223881   4.822   2.888   4.460
 8002TIP3   OH223882   4.901   2.586   4.451
 8002TIP3    H123883   4.827   2.525   4.451
 8002TIP3    H223884   4.951   2.562   4.529
 8003TIP3   OH223885   5.284   2.678   5.177
 8003TIP3    H123886   5.267   2.604   5.119
 8003TIP3    H223887   5.269   2.755   5.121
 8004TIP3   OH223888   4.577   2.082   4.450
 8004TIP3    H123889   4.494   2.125   4.433
 8004TIP3    H223890   4.622   2.081   4.365
 8005TIP3   OH223891   4.548   1.887   4.138
 8005TIP3    H123892   4.615   1.936   4.186
 8005TIP3    H223893   4.597   1.819   4.091
 8006TIP3   OH223894   5.467   2.345   5.053
 8006TIP3    H123895   5.384   2.391   5.049
 8006TIP3    H223896   5.505   2.356   4.966
 8007TIP3   OH223897   4.943   2.167   4.408
 8007TIP3    H123898   4.888   2.196   4.481
 8007TIP3    H223899   5.026   2.142   4.449
 8008TIP3   OH223900   5.162   2.199   5.354
 8008TIP3    H123901   5.157   2.284   5.398
 8008TIP3    H223902   5.079   2.190   5.309
 8009TIP3   OH223903   4.153   2.152   4.825
 8009TIP3    H123904   4.118   2.092   4.759
 8009TIP3    H223905   4.226   2.105   4.865
 8010TIP3   OH223906   4.290   2.580   4.966
 8010TIP3    H123907   4.259   2.556   4.878
 8010TIP3    H223908   4.377   2.540   4.971
 8011TIP3   OH223909   4.256   2.137   5.194
 8011TIP3    H123910   4.291   2.099   5.113
 8011TIP3    H223911   4.309   2.216   5.208
 8012TIP3   OH223912   4.808   2.780   4.964
 8012TIP3    H123913   4.796   2.862   5.013
 8012TIP3    H223914   4.792   2.711   5.029
 8013TIP3   OH223915   4.448   2.691   5.534
 8013TIP3    H123916   4.379   2.741   5.576
 8013TIP3    H223917   4.402   2.628   5.478
 8014TIP3   OH223918   4.768   2.030   4.242
 8014TIP3    H123919   4.829   2.088   4.289
 8014TIP3    H223920   4.798   2.033   4.151
 8015TIP3   OH223921   4.194   2.229   5.650
 8015TIP3    H123922   4.200   2.322   5.673
 8015TIP3    H223923   4.100   2.211   5.647
 8016TIP3   OH223924   4.515   2.698   4.500
 8016TIP3    H123925   4.597   2.748   4.504
 8016TIP3    H223926   4.455   2.754   4.451
 8017TIP3   OH223927   4.215   2.826   5.607
 8017TIP3    H123928   4.172   2.882   5.542
 8017TIP3    H223929   4.147   2.808   5.671
 8018TIP3   OH223930   5.275   1.254   4.303
 8018TIP3    H123931   5.200   1.276   4.357
 8018TIP3    H223932   5.285   1.329   4.244
 8019TIP3   OH223933   4.040   1.989   4.622
 8019TIP3    H123934   3.965   2.035   4.585
 8019TIP3    H223935   4.011   1.899   4.632
 8020TIP3   OH223936   5.110   2.641   3.854
 8020TIP3    H123937   5.109   2.733   3.830
 8020TIP3    H223938   5.201   2.613   3.839
 8021TIP3   OH223939   3.829   2.400   5.534
 8021TIP3    H123940   3.750   2.373   5.487
 8021TIP3    H223941   3.863   2.319   5.573
 8022TIP3   OH223942   5.517   3.032   5.251
 8022TIP3    H123943   5.521   2.937   5.266
 8022TIP3    H223944   5.438   3.060   5.297
 8023TIP3   OH223945   4.624   2.830   5.378
 8023TIP3    H123946   4.617   2.922   5.404
 8023TIP3    H223947   4.563   2.784   5.436
 8024TIP3   OH223948   4.408   2.917   4.328
 8024TIP3    H123949   4.362   2.897   4.246
 8024TIP3    H223950   4.369   2.999   4.358
 8025TIP3   OH223951   3.837   2.779   4.700
 8025TIP3    H123952   3.875   2.780   4.788
 8025TIP3    H223953   3.779   2.703   4.700
 8026TIP3   OH223954   4.608   2.858   3.953
 8026TIP3    H123955   4.657   2.784   3.919
 8026TIP3    H223956   4.642   2.871   4.041
 8027TIP3   OH223957   4.662   2.897   4.223
 8027TIP3    H123958   4.575   2.901   4.263
 8027TIP3    H223959   4.718   2.860   4.292
 8028TIP3   OH223960   5.407   2.172   5.536
 8028TIP3    H123961   5.323   2.201   5.500
 8028TIP3    H223962   5.396   2.078   5.549
 8029TIP3   OH223963   4.017   2.594   5.457
 8029TIP3    H123964   4.057   2.611   5.542
 8029TIP3    H223965   3.949   2.528   5.474
 8030TIP3   OH223966   4.406   1.386   5.327
 8030TIP3    H123967   4.322   1.351   5.296
 8030TIP3    H223968   4.382   1.467   5.372
 8031TIP3   OH223969   4.939   1.492   5.529
 8031TIP3    H123970   5.009   1.472   5.591
 8031TIP3    H223971   4.858   1.481   5.580
 8032TIP3   OH223972   5.243   1.942   5.439
 8032TIP3    H123973   5.184   1.917   5.510
 8032TIP3    H223974   5.207   2.024   5.406
 8033TIP3   OH223975   4.850   2.005   3.981
 8033TIP3    H123976   4.800   2.010   3.900
 8033TIP3    H223977   4.932   2.051   3.962
 8034TIP3   OH223978   4.556   1.425   4.301
 8034TIP3    H123979   4.517   1.433   4.388
 8034TIP3    H223980   4.520   1.344   4.266
 8035TIP3   OH223981   4.344   1.919   5.341
 8035TIP3    H123982   4.299   1.925   5.425
 8035TIP3    H223983   4.321   2.000   5.295
 8036TIP3   OH223984   4.222   1.798   4.860
 8036TIP3    H123985   4.133   1.772   4.886
 8036TIP3    H223986   4.231   1.767   4.770
 8037TIP3   OH223987   4.696   1.873   4.584
 8037TIP3    H123988   4.650   1.946   4.543
 8037TIP3    H223989   4.755   1.840   4.515
 8038TIP3   OH223990   4.893   2.135   5.658
 8038TIP3    H123991   4.869   2.065   5.719
 8038TIP3    H223992   4.985   2.155   5.680
 8039TIP3   OH223993   4.857   1.885   4.809
 8039TIP3    H123994   4.789   1.903   4.744
 8039TIP3    H223995   4.908   1.813   4.772
 8040TIP3   OH223996   4.181   1.935   5.562
 8040TIP3    H123997   4.195   1.998   5.632
 8040TIP3    H223998   4.163   1.852   5.607
 8041TIP3   OH223999   4.224   1.407   4.278
 8041TIP3    H124000   4.214   1.412   4.373
 8041TIP3    H224001   4.145   1.449   4.243
 8042TIP3   OH224002   3.769   1.455   5.137
 8042TIP3    H124003   3.843   1.489   5.187
 8042TIP3    H224004   3.806   1.432   5.052
 8043TIP3   OH224005   3.669   1.430   4.642
 8043TIP3    H124006   3.715   1.466   4.567
 8043TIP3    H224007   3.603   1.496   4.664
 8044TIP3   OH224008   4.915   2.139   5.230
 8044TIP3    H124009   4.943   2.073   5.166
 8044TIP3    H224010   4.874   2.088   5.300
 8045TIP3   OH224011   4.595   1.587   4.914
 8045TIP3    H124012   4.516   1.585   4.968
 8045TIP3    H224013   4.667   1.578   4.977
 8046TIP3   OH224014   3.983   1.674   4.919
 8046TIP3    H124015   3.895   1.678   4.881
 8046TIP3    H224016   4.011   1.584   4.904
 8047TIP3   OH224017   4.235   1.679   4.613
 8047TIP3    H124018   4.330   1.686   4.604
 8047TIP3    H224019   4.201   1.694   4.525
 8048TIP3   OH224020   5.036   1.685   5.129
 8048TIP3    H124021   5.033   1.698   5.224
 8048TIP3    H224022   4.966   1.621   5.112
 8049TIP3   OH224023   4.126   1.699   4.363
 8049TIP3    H124024   4.064   1.648   4.310
 8049TIP3    H224025   4.180   1.745   4.298
 8050TIP3   OH224026   5.235   3.381   5.340
 8050TIP3    H124027   5.232   3.397   5.245
 8050TIP3    H224028   5.315   3.425   5.369
 8051TIP3   OH224029   4.182   2.494   5.741
 8051TIP3    H124030   4.260   2.513   5.793
 8051TIP3    H224031   4.109   2.508   5.801
 8052TIP3   OH224032   4.632   1.967   5.017
 8052TIP3    H124033   4.693   1.914   4.966
 8052TIP3    H224034   4.630   1.926   5.103
 8053TIP3   OH224035   4.124   1.425   4.905
 8053TIP3    H124036   4.096   1.350   4.958
 8053TIP3    H224037   4.141   1.388   4.819
 8054TIP3   OH224038   4.612   1.870   5.281
 8054TIP3    H124039   4.525   1.900   5.307
 8054TIP3    H224040   4.671   1.921   5.336
 8055TIP3   OH224041   4.335   2.215   4.402
 8055TIP3    H124042   4.261   2.160   4.377
 8055TIP3    H224043   4.307   2.256   4.484
 8056TIP3   OH224044   5.230   2.475   4.998
 8056TIP3    H124045   5.268   2.523   4.924
 8056TIP3    H224046   5.151   2.434   4.962
 8057TIP3   OH224047   4.807   1.530   4.306
 8057TIP3    H124048   4.714   1.508   4.300
 8057TIP3    H224049   4.808   1.625   4.315
 8058TIP3   OH224050   4.753   2.556   5.423
 8058TIP3    H124051   4.808   2.541   5.500
 8058TIP3    H224052   4.720   2.646   5.435
 8059TIP3   OH224053   4.862   1.798   4.368
 8059TIP3    H124054   4.958   1.802   4.376
 8059TIP3    H224055   4.840   1.876   4.317
 8060TIP3   OH224056   4.055   2.284   5.055
 8060TIP3    H124057   4.075   2.250   4.967
 8060TIP3    H224058   4.107   2.230   5.114
 8061TIP3   OH224059   4.492   2.372   4.244
 8061TIP3    H124060   4.446   2.455   4.238
 8061TIP3    H224061   4.435   2.316   4.297
 8062TIP3   OH224062   3.918   2.174   5.679
 8062TIP3    H124063   3.927   2.153   5.772
 8062TIP3    H224064   3.846   2.120   5.649
 8063TIP3   OH224065   4.661   2.293   5.700
 8063TIP3    H124066   4.591   2.233   5.674
 8063TIP3    H224067   4.742   2.250   5.671
 8064TIP3   OH224068   4.894   2.844   5.300
 8064TIP3    H124069   4.799   2.834   5.304
 8064TIP3    H224070   4.917   2.881   5.386
 8065TIP3   OH224071   5.278   1.883   4.185
 8065TIP3    H124072   5.222   1.838   4.122
 8065TIP3    H224073   5.284   1.973   4.152
 8066TIP3   OH224074   5.530   2.748   5.272
 8066TIP3    H124075   5.435   2.736   5.261
 8066TIP3    H224076   5.567   2.725   5.187
 8067TIP3   OH224077   5.026   2.701   4.124
 8067TIP3    H124078   4.996   2.633   4.184
 8067TIP3    H224079   5.041   2.656   4.041
 8068TIP3   OH224080   5.000   2.339   4.894
 8068TIP3    H124081   4.911   2.319   4.924
 8068TIP3    H224082   5.030   2.260   4.850
 8069TIP3   OH224083   4.126   2.573   4.731
 8069TIP3    H124084   4.133   2.648   4.673
 8069TIP3    H224085   4.046   2.528   4.702
 8070TIP3   OH224086   3.729   1.854   4.425
 8070TIP3    H124087   3.772   1.937   4.442
 8070TIP3    H224088   3.651   1.855   4.481
 8071TIP3   OH224089   4.236   2.332   4.627
 8071TIP3    H124090   4.225   2.420   4.662
 8071TIP3    H224091   4.209   2.275   4.699
 8072TIP3   OH224092   4.434   2.884   5.173
 8072TIP3    H124093   4.466   2.963   5.131
 8072TIP3    H224094   4.506   2.855   5.229
 8073TIP3   OH224095   4.079   2.790   4.568
 8073TIP3    H124096   3.989   2.804   4.598
 8073TIP3    H224097   4.119   2.877   4.571
 8074TIP3   OH224098   4.782   2.562   5.146
 8074TIP3    H124099   4.769   2.559   5.241
 8074TIP3    H224100   4.864   2.516   5.131
 8075TIP3   OH224101   4.798   2.435   4.001
 8075TIP3    H124102   4.847   2.406   4.077
 8075TIP3    H224103   4.714   2.389   4.007
 8076TIP3   OH224104   5.045   3.055   5.181
 8076TIP3    H124105   4.976   2.992   5.201
 8076TIP3    H224106   5.010   3.107   5.109
 8077TIP3   OH224107   5.125   2.918   3.799
 8077TIP3    H124108   5.175   3.000   3.789
 8077TIP3    H224109   5.042   2.946   3.836
 8078TIP3   OH224110   4.129   1.681   5.676
 8078TIP3    H124111   4.033   1.689   5.681
 8078TIP3    H224112   4.153   1.632   5.755
 8079TIP3   OH224113   4.969   2.347   4.196
 8079TIP3    H124114   4.953   2.294   4.274
 8079TIP3    H224115   5.064   2.356   4.193
 8080TIP3   OH224116   4.140   2.398   4.023
 8080TIP3    H124117   4.150   2.307   3.995
 8080TIP3    H224118   4.124   2.393   4.117
 8081TIP3   OH224119   4.079   2.417   4.293
 8081TIP3    H124120   4.148   2.393   4.355
 8081TIP3    H224121   4.075   2.513   4.297
 8082TIP3   OH224122   3.822   2.106   4.499
 8082TIP3    H124123   3.757   2.155   4.549
 8082TIP3    H224124   3.841   2.161   4.423
 8083TIP3   OH224125   4.993   1.729   5.403
 8083TIP3    H124126   5.032   1.772   5.480
 8083TIP3    H224127   4.968   1.642   5.434
 8084TIP3   OH224128   4.865   1.479   4.571
 8084TIP3    H124129   4.843   1.494   4.479
 8084TIP3    H224130   4.907   1.560   4.600
 8085TIP3   OH224131   4.348   2.601   4.235
 8085TIP3    H124132   4.264   2.627   4.271
 8085TIP3    H224133   4.373   2.674   4.178
 8086TIP3   OH224134   4.515   1.680   4.663
 8086TIP3    H124135   4.576   1.749   4.634
 8086TIP3    H224136   4.542   1.661   4.752
 8087TIP3   OH224137   4.823   1.978   5.433
 8087TIP3    H124138   4.844   2.028   5.512
 8087TIP3    H224139   4.874   1.897   5.441
 8088TIP3   OH224140   4.680   1.377   4.748
 8088TIP3    H124141   4.657   1.455   4.799
 8088TIP3    H224142   4.748   1.406   4.688
 8089TIP3   OH224143   4.100   2.689   4.313
 8089TIP3    H124144   4.081   2.760   4.252
 8089TIP3    H224145   4.090   2.728   4.400
 8090TIP3   OH224146   4.190   1.404   4.557
 8090TIP3    H124147   4.178   1.495   4.584
 8090TIP3    H224148   4.284   1.389   4.564
 8091TIP3   OH224149   5.396   1.790   5.255
 8091TIP3    H124150   5.333   1.824   5.318
 8091TIP3    H224151   5.472   1.847   5.263
 8092TIP3   OH224152   5.073   2.075   4.808
 8092TIP3    H124153   4.991   2.027   4.794
 8092TIP3    H224154   5.102   2.050   4.895
 8093TIP3   OH224155   3.835   2.282   4.283
 8093TIP3    H124156   3.905   2.347   4.291
 8093TIP3    H224157   3.867   2.220   4.217
 8094TIP3   OH224158   3.746   1.576   4.425
 8094TIP3    H124159   3.758   1.670   4.431
 8094TIP3    H224160   3.709   1.562   4.337
 8095TIP3   OH224161   5.073   3.052   4.750
 8095TIP3    H124162   5.031   3.104   4.681
 8095TIP3    H224163   5.166   3.065   4.737
 8096TIP3   OH224164   4.144   1.298   5.291
 8096TIP3    H124165   4.113   1.265   5.207
 8096TIP3    H224166   4.134   1.224   5.351
 8097TIP3   OH224167   3.663   2.551   4.689
 8097TIP3    H124168   3.597   2.589   4.747
 8097TIP3    H224169   3.640   2.582   4.602
 8098TIP3   OH224170   3.862   3.088   5.746
 8098TIP3    H124171   3.944   3.083   5.796
 8098TIP3    H224172   3.830   2.998   5.744
 8099TIP3   OH224173   4.335   2.993   5.797
 8099TIP3    H124174   4.427   2.969   5.810
 8099TIP3    H224175   4.304   2.934   5.728
 8100TIP3   OH224176   4.291   2.601   3.913
 8100TIP3    H124177   4.243   2.531   3.957
 8100TIP3    H224178   4.366   2.557   3.872
 8101TIP3   OH224179   4.951   2.942   5.550
 8101TIP3    H124180   4.966   2.872   5.614
 8101TIP3    H224181   5.025   3.002   5.563
 8102TIP3   OH224182   4.733   2.645   3.837
 8102TIP3    H124183   4.770   2.579   3.896
 8102TIP3    H224184   4.787   2.640   3.758
 8103TIP3   OH224185   3.975   2.493   5.931
 8103TIP3    H124186   3.992   2.400   5.944
 8103TIP3    H224187   3.887   2.496   5.893
 8104TIP3   OH224188   3.958   2.091   4.132
 8104TIP3    H124189   4.010   2.068   4.210
 8104TIP3    H224190   4.024   2.105   4.064
 8105TIP3   OH224191   4.604   2.572   5.727
 8105TIP3    H124192   4.561   2.599   5.647
 8105TIP3    H224193   4.637   2.484   5.709
 8106TIP3   OH224194   4.549   2.313   3.981
 8106TIP3    H124195   4.521   2.324   4.072
 8106TIP3    H224196   4.525   2.223   3.960
 8107TIP3   OH224197   5.062   2.619   5.330
 8107TIP3    H124198   5.140   2.647   5.282
 8107TIP3    H224199   4.999   2.690   5.317
 8108TIP3   OH224200   4.085   2.235   5.945
 8108TIP3    H124201   4.165   2.218   5.895
 8108TIP3    H224202   4.115   2.255   6.033
 8109TIP3   OH224203   4.132   2.035   4.347
 8109TIP3    H124204   4.112   2.001   4.435
 8109TIP3    H224205   4.181   1.965   4.305
 8110TIP3   OH224206   4.452   2.120   5.608
 8110TIP3    H124207   4.366   2.162   5.616
 8110TIP3    H224208   4.483   2.146   5.521
 8111TIP3   OH224209   4.277   1.855   4.193
 8111TIP3    H124210   4.246   1.858   4.102
 8111TIP3    H224211   4.372   1.863   4.187
 8112TIP3   OH224212   4.938   2.495   5.674
 8112TIP3    H124213   5.013   2.458   5.627
 8112TIP3    H224214   4.935   2.445   5.756
 8113TIP3   OH224215   5.066   2.139   3.864
 8113TIP3    H124216   5.050   2.100   3.778
 8113TIP3    H224217   5.047   2.232   3.853
 8114TIP3   OH224218   4.558   1.888   5.711
 8114TIP3    H124219   4.557   1.818   5.646
 8114TIP3    H224220   4.522   1.964   5.666
 8115TIP3   OH224221   4.559   1.692   5.507
 8115TIP3    H124222   4.585   1.728   5.423
 8115TIP3    H224223   4.468   1.663   5.493
 8116TIP3   OH224224   4.570   2.206   5.379
 8116TIP3    H124225   4.658   2.244   5.372
 8116TIP3    H224226   4.515   2.262   5.324
 8117TIP3   OH224227   5.150   2.182   5.767
 8117TIP3    H124228   5.183   2.118   5.829
 8117TIP3    H224229   5.219   2.249   5.763
 8118TIP3   OH224230   5.191   2.443   5.493
 8118TIP3    H124231   5.136   2.505   5.445
 8118TIP3    H224232   5.280   2.461   5.463
 8119TIP3   OH224233   4.441   1.967   5.956
 8119TIP3    H124234   4.370   1.906   5.977
 8119TIP3    H224235   4.469   1.942   5.868
 8120TIP3   OH224236   4.676   1.461   5.619
 8120TIP3    H124237   4.638   1.542   5.585
 8120TIP3    H224238   4.609   1.395   5.605
 8121TIP3   OH224239   4.822   1.914   5.802
 8121TIP3    H124240   4.815   1.903   5.896
 8121TIP3    H224241   4.733   1.897   5.769
 8122TIP3   OH224242   5.057   1.860   5.638
 8122TIP3    H124243   4.982   1.869   5.698
 8122TIP3    H224244   5.132   1.848   5.695
 8123TIP3   OH224245   5.285   1.834   5.792
 8123TIP3    H124246   5.298   1.744   5.822
 8123TIP3    H224247   5.267   1.884   5.872
 8124TIP3   OH224248   4.268   1.750   6.018
 8124TIP3    H124249   4.275   1.661   5.983
 8124TIP3    H224250   4.306   1.745   6.105
 8125TIP3   OH224251   4.750   1.436   5.883
 8125TIP3    H124252   4.820   1.371   5.876
 8125TIP3    H224253   4.718   1.447   5.793
 8126TIP3   OH224254   4.852   1.651   6.023
 8126TIP3    H124255   4.819   1.578   5.971
 8126TIP3    H224256   4.780   1.715   6.024
 8127TIP3   OH224257   4.101   2.897   4.131
 8127TIP3    H124258   4.189   2.877   4.100
 8127TIP3    H224259   4.060   2.943   4.058
 8128TIP3   OH224260   3.560   2.289   4.289
 8128TIP3    H124261   3.656   2.297   4.293
 8128TIP3    H224262   3.545   2.201   4.255
 8129TIP3   OH224263   3.512   2.810   4.699
 8129TIP3    H124264   3.419   2.787   4.692
 8129TIP3    H224265   3.531   2.805   4.793
 8130TIP3   OH224266   3.590   2.761   4.960
 8130TIP3    H124267   3.545   2.804   5.033
 8130TIP3    H224268   3.662   2.714   5.002
 8131TIP3   OH224269   5.345   3.103   4.747
 8131TIP3    H124270   5.363   3.128   4.838
 8131TIP3    H224271   5.394   3.166   4.694
 8132TIP3   OH224272   5.363   3.134   5.027
 8132TIP3    H124273   5.315   3.052   5.022
 8132TIP3    H224274   5.433   3.118   5.090
 8133TIP3   OH224275   5.422   2.832   5.599
 8133TIP3    H124276   5.349   2.842   5.660
 8133TIP3    H224277   5.470   2.915   5.605
 8134TIP3   OH224278   5.249   2.349   4.202
 8134TIP3    H124279   5.308   2.419   4.174
 8134TIP3    H224280   5.294   2.310   4.277
 8135TIP3   OH224281   5.376   2.204   4.405
 8135TIP3    H124282   5.308   2.168   4.463
 8135TIP3    H224283   5.441   2.242   4.465
 8136TIP3   OH224284   5.419   2.610   4.840
 8136TIP3    H124285   5.470   2.542   4.795
 8136TIP3    H224286   5.421   2.685   4.781
 8137TIP3   OH224287   5.218   2.899   5.028
 8137TIP3    H124288   5.151   2.943   5.081
 8137TIP3    H224289   5.169   2.858   4.957
 8138TIP3   OH224290   5.272   2.123   4.048
 8138TIP3    H124291   5.201   2.122   3.984
 8138TIP3    H224292   5.258   2.202   4.100
 8139TIP3   OH224293   5.126   1.774   3.986
 8139TIP3    H124294   5.081   1.809   3.909
 8139TIP3    H224295   5.118   1.679   3.977
 8140TIP3   OH224296   5.170   2.067   4.543
 8140TIP3    H124297   5.173   1.974   4.526
 8140TIP3    H224298   5.148   2.074   4.637
 8141TIP3   OH224299   3.781   2.130   5.309
 8141TIP3    H124300   3.771   2.092   5.222
 8141TIP3    H224301   3.875   2.121   5.328
 8142TIP3   OH224302   5.450   2.489   5.403
 8142TIP3    H124303   5.512   2.419   5.383
 8142TIP3    H224304   5.476   2.561   5.346
 8143TIP3   OH224305   5.616   2.268   5.386
 8143TIP3    H124306   5.546   2.233   5.441
 8143TIP3    H224307   5.691   2.211   5.403
 8144TIP3   OH224308   5.088   1.504   3.961
 8144TIP3    H124309   5.154   1.476   4.024
 8144TIP3    H224310   5.006   1.463   3.991
 8145TIP3   OH224311   5.160   1.791   4.428
 8145TIP3    H124312   5.208   1.710   4.444
 8145TIP3    H224313   5.199   1.827   4.349
 8146TIP3   OH224314   5.342   1.904   4.991
 8146TIP3    H124315   5.401   1.943   4.927
 8146TIP3    H224316   5.332   1.971   5.059
 8147TIP3   OH224317   5.371   2.117   5.175
 8147TIP3    H124318   5.303   2.147   5.236
 8147TIP3    H224319   5.405   2.197   5.136
 8148TIP3   OH224320   4.006   1.811   5.949
 8148TIP3    H124321   4.100   1.808   5.971
 8148TIP3    H224322   3.970   1.732   5.989
 8149TIP3   OH224323   5.844   1.716   5.705
 8149TIP3    H124324   5.913   1.655   5.678
 8149TIP3    H224325   5.817   1.759   5.625
 8150TIP3   OH224326   5.280   1.543   4.494
 8150TIP3    H124327   5.320   1.525   4.579
 8150TIP3    H224328   5.217   1.472   4.483
 8151TIP3   OH224329   3.983   1.525   5.302
 8151TIP3    H124330   4.036   1.445   5.310
 8151TIP3    H224331   4.047   1.594   5.283
 8152TIP3   OH224332   3.763   1.781   5.371
 8152TIP3    H124333   3.812   1.776   5.289
 8152TIP3    H224334   3.806   1.850   5.421
 8153TIP3   OH224335   5.686   1.830   5.508
 8153TIP3    H124336   5.624   1.863   5.573
 8153TIP3    H224337   5.645   1.750   5.474
 8154TIP3   OH224338   5.313   1.455   4.120
 8154TIP3    H124339   5.358   1.395   4.060
 8154TIP3    H224340   5.370   1.531   4.125
 8155TIP3   OH224341   3.749   1.307   4.873
 8155TIP3    H124342   3.664   1.288   4.913
 8155TIP3    H224343   3.728   1.357   4.794
 8156TIP3   OH224344   4.911   3.016   4.385
 8156TIP3    H124345   4.966   3.009   4.307
 8156TIP3    H224346   4.948   3.090   4.434
 8157TIP3   OH224347   3.973   1.352   5.699
 8157TIP3    H124348   3.924   1.349   5.781
 8157TIP3    H224349   3.916   1.401   5.639
 8158TIP3   OH224350   4.004   2.792   5.778
 8158TIP3    H124351   3.909   2.787   5.766
 8158TIP3    H224352   4.017   2.787   5.872
 8159TIP3   OH224353   4.180   2.815   5.262
 8159TIP3    H124354   4.142   2.902   5.251
 8159TIP3    H224355   4.271   2.824   5.232
 8160TIP3   OH224356   4.609   3.096   5.455
 8160TIP3    H124357   4.646   3.086   5.543
 8160TIP3    H224358   4.673   3.149   5.408
 8161TIP3   OH224359   4.805   3.246   5.332
 8161TIP3    H124360   4.869   3.194   5.284
 8161TIP3    H224361   4.858   3.306   5.386
 8162TIP3   OH224362   5.613   1.563   5.426
 8162TIP3    H124363   5.523   1.545   5.398
 8162TIP3    H224364   5.659   1.480   5.415
 8163TIP3   OH224365   3.862   3.089   5.331
 8163TIP3    H124366   3.769   3.100   5.313
 8163TIP3    H224367   3.879   3.148   5.405
 8164TIP3   OH224368   4.108   3.079   5.207
 8164TIP3    H124369   4.024   3.092   5.253
 8164TIP3    H224370   4.092   3.111   5.119
 8165TIP3   OH224371   4.508   3.104   5.021
 8165TIP3    H124372   4.444   3.122   4.952
 8165TIP3    H224373   4.524   3.190   5.061
 8166TIP3   OH224374   4.775   3.038   5.054
 8166TIP3    H124375   4.683   3.059   5.039
 8166TIP3    H224376   4.824   3.107   5.009
 8167TIP3   OH224377   4.977   3.209   4.955
 8167TIP3    H124378   4.980   3.297   4.918
 8167TIP3    H224379   5.007   3.152   4.884
 8168TIP3   OH224380   3.899   2.825   5.196
 8168TIP3    H124381   3.863   2.905   5.234
 8168TIP3    H224382   3.899   2.840   5.102
 8169TIP3   OH224383   4.004   2.770   4.923
 8169TIP3    H124384   4.039   2.689   4.887
 8169TIP3    H224385   4.080   2.828   4.929
 8170TIP3   OH224386   4.269   2.862   4.949
 8170TIP3    H124387   4.285   2.769   4.933
 8170TIP3    H224388   4.324   2.884   5.024
 8171TIP3   OH224389   4.828   1.495   5.056
 8171TIP3    H124390   4.787   1.423   5.105
 8171TIP3    H224391   4.900   1.454   5.009
 8172TIP3   OH224392   5.333   1.554   4.996
 8172TIP3    H124393   5.369   1.524   4.912
 8172TIP3    H224394   5.244   1.518   4.997
 8173TIP3   OH224395   5.427   1.478   4.740
 8173TIP3    H124396   5.493   1.415   4.709
 8173TIP3    H224397   5.464   1.564   4.717
 8174TIP3   OH224398   4.051   1.199   5.050
 8174TIP3    H124399   3.963   1.165   5.061
 8174TIP3    H224400   4.106   1.121   5.040
 8175TIP3   OH224401   3.878   1.111   4.707
 8175TIP3    H124402   3.903   1.158   4.627
 8175TIP3    H224403   3.842   1.179   4.764
 8176TIP3   OH224404   4.539   1.238   4.950
 8176TIP3    H124405   4.586   1.283   4.881
 8176TIP3    H224406   4.581   1.266   5.031
 8177TIP3   OH224407   5.066   1.385   4.945
 8177TIP3    H124408   5.086   1.352   4.857
 8177TIP3    H224409   5.068   1.308   5.001
 8178TIP3   OH224410   5.091   1.335   4.493
 8178TIP3    H124411   5.010   1.381   4.515
 8178TIP3    H224412   5.081   1.248   4.530
 8179TIP3   OH224413   3.574   2.663   4.457
 8179TIP3    H124414   3.491   2.655   4.410
 8179TIP3    H224415   3.565   2.745   4.507
 8180TIP3   OH224416   3.981   1.236   4.464
 8180TIP3    H124417   4.027   1.173   4.409
 8180TIP3    H224418   4.051   1.291   4.500
 8181TIP3   OH224419   4.465   1.430   4.564
 8181TIP3    H124420   4.523   1.375   4.616
 8181TIP3    H224421   4.482   1.519   4.594
 8182TIP3   OH224422   4.356   2.822   4.058
 8182TIP3    H124423   4.437   2.852   4.019
 8182TIP3    H224424   4.325   2.753   4.001
 8183TIP3   OH224425   5.060   2.971   4.153
 8183TIP3    H124426   5.051   2.875   4.149
 8183TIP3    H224427   5.015   3.002   4.074
 8184TIP3   OH224428   4.287   1.481   5.931
 8184TIP3    H124429   4.252   1.415   5.991
 8184TIP3    H224430   4.379   1.489   5.955
 8185TIP3   OH224431   4.533   1.486   6.057
 8185TIP3    H124432   4.611   1.464   6.006
 8185TIP3    H224433   4.528   1.417   6.123
 8186TIP3   OH224434   3.663   2.672   4.118
 8186TIP3    H124435   3.661   2.684   4.213
 8186TIP3    H224436   3.744   2.623   4.102
 8187TIP3   OH224437   5.353   1.570   5.839
 8187TIP3    H124438   5.367   1.544   5.930
 8187TIP3    H224439   5.441   1.568   5.800
 8188TIP3   OH224440   5.268   3.107   5.345
 8188TIP3    H124441   5.193   3.078   5.293
 8188TIP3    H224442   5.256   3.201   5.353
 8189TIP3   OH224443   6.551   2.496   4.080
 8189TIP3    H124444   6.512   2.582   4.063
 8189TIP3    H224445   6.482   2.433   4.058
 8190TIP3   OH224446   6.537   2.486   4.503
 8190TIP3    H124447   6.592   2.468   4.579
 8190TIP3    H224448   6.495   2.402   4.484
 8191TIP3   OH224449   5.842   2.337   4.860
 8191TIP3    H124450   5.882   2.285   4.930
 8191TIP3    H224451   5.916   2.363   4.805
 8192TIP3   OH224452   6.821   2.796   4.180
 8192TIP3    H124453   6.806   2.729   4.246
 8192TIP3    H224454   6.838   2.876   4.229
 8193TIP3   OH224455   5.843   2.769   4.526
 8193TIP3    H124456   5.823   2.676   4.537
 8193TIP3    H224457   5.939   2.773   4.522
 8194TIP3   OH224458   5.521   1.974   4.324
 8194TIP3    H124459   5.484   2.059   4.348
 8194TIP3    H224460   5.448   1.928   4.281
 8195TIP3   OH224461   5.603   2.291   4.550
 8195TIP3    H124462   5.651   2.211   4.572
 8195TIP3    H224463   5.671   2.353   4.525
 8196TIP3   OH224464   6.483   3.212   4.202
 8196TIP3    H124465   6.503   3.150   4.132
 8196TIP3    H224466   6.497   3.164   4.283
 8197TIP3   OH224467   6.356   2.708   4.513
 8197TIP3    H124468   6.401   2.627   4.487
 8197TIP3    H224469   6.426   2.766   4.543
 8198TIP3   OH224470   7.382   2.020   4.520
 8198TIP3    H124471   7.400   2.103   4.564
 8198TIP3    H224472   7.416   2.032   4.431
 8199TIP3   OH224473   6.762   2.192   4.548
 8199TIP3    H124474   6.796   2.108   4.577
 8199TIP3    H224475   6.724   2.175   4.462
 8200TIP3   OH224476   6.125   1.870   4.525
 8200TIP3    H124477   6.101   1.937   4.460
 8200TIP3    H224478   6.082   1.790   4.494
 8201TIP3   OH224479   6.817   1.958   4.144
 8201TIP3    H124480   6.880   1.955   4.216
 8201TIP3    H224481   6.867   1.992   4.070
 8202TIP3   OH224482   5.728   2.058   4.638
 8202TIP3    H124483   5.811   2.044   4.683
 8202TIP3    H224484   5.735   2.007   4.558
 8203TIP3   OH224485   6.154   2.270   4.459
 8203TIP3    H124486   6.249   2.255   4.462
 8203TIP3    H224487   6.117   2.188   4.426
 8204TIP3   OH224488   7.438   2.227   4.700
 8204TIP3    H124489   7.360   2.282   4.692
 8204TIP3    H224490   7.490   2.269   4.769
 8205TIP3   OH224491   6.093   1.858   4.961
 8205TIP3    H124492   6.037   1.896   4.893
 8205TIP3    H224493   6.043   1.868   5.042
 8206TIP3   OH224494   6.402   2.701   3.972
 8206TIP3    H124495   6.385   2.683   3.879
 8206TIP3    H224496   6.364   2.787   3.987
 8207TIP3   OH224497   6.185   2.634   4.719
 8207TIP3    H124498   6.134   2.707   4.753
 8207TIP3    H224499   6.236   2.671   4.647
 8208TIP3   OH224500   6.969   1.991   4.369
 8208TIP3    H124501   6.932   1.962   4.453
 8208TIP3    H224502   7.026   2.064   4.392
 8209TIP3   OH224503   5.976   1.969   4.736
 8209TIP3    H124504   6.031   2.043   4.761
 8209TIP3    H224505   6.025   1.926   4.666
 8210TIP3   OH224506   6.035   2.840   4.827
 8210TIP3    H124507   6.023   2.931   4.798
 8210TIP3    H224508   5.958   2.821   4.880
 8211TIP3   OH224509   5.427   2.536   4.086
 8211TIP3    H124510   5.394   2.555   3.998
 8211TIP3    H224511   5.443   2.623   4.124
 8212TIP3   OH224512   6.847   3.041   4.325
 8212TIP3    H124513   6.758   3.036   4.360
 8212TIP3    H224514   6.848   3.124   4.276
 8213TIP3   OH224515   7.160   1.929   4.683
 8213TIP3    H124516   7.074   1.938   4.642
 8213TIP3    H224517   7.223   1.951   4.614
 8214TIP3   OH224518   6.454   1.572   4.693
 8214TIP3    H124519   6.417   1.486   4.671
 8214TIP3    H224520   6.382   1.619   4.736
 8215TIP3   OH224521   6.556   3.064   3.978
 8215TIP3    H124522   6.609   2.985   3.965
 8215TIP3    H224523   6.614   3.136   3.951
 8216TIP3   OH224524   6.716   2.851   3.929
 8216TIP3    H124525   6.728   2.775   3.872
 8216TIP3    H224526   6.755   2.824   4.012
 8217TIP3   OH224527   7.084   2.930   4.668
 8217TIP3    H124528   7.067   2.856   4.609
 8217TIP3    H224529   7.071   3.007   4.613
 8218TIP3   OH224530   6.375   2.329   3.939
 8218TIP3    H124531   6.294   2.376   3.919
 8218TIP3    H224532   6.423   2.328   3.856
 8219TIP3   OH224533   6.345   2.144   3.621
 8219TIP3    H124534   6.411   2.192   3.672
 8219TIP3    H224535   6.395   2.076   3.576
 8220TIP3   OH224536   7.263   2.596   4.556
 8220TIP3    H124537   7.179   2.640   4.545
 8220TIP3    H224538   7.304   2.602   4.470
 8221TIP3   OH224539   6.737   2.429   3.893
 8221TIP3    H124540   6.682   2.455   3.966
 8221TIP3    H224541   6.819   2.400   3.934
 8222TIP3   OH224542   6.953   2.458   4.821
 8222TIP3    H124543   6.949   2.542   4.867
 8222TIP3    H224544   6.870   2.453   4.775
 8223TIP3   OH224545   5.964   2.400   4.296
 8223TIP3    H124546   5.930   2.334   4.236
 8223TIP3    H224547   6.037   2.357   4.341
 8224TIP3   OH224548   6.108   2.824   4.440
 8224TIP3    H124549   6.087   2.810   4.348
 8224TIP3    H224550   6.195   2.786   4.451
 8225TIP3   OH224551   6.053   2.396   4.683
 8225TIP3    H124552   6.093   2.358   4.605
 8225TIP3    H224553   6.100   2.478   4.696
 8226TIP3   OH224554   6.602   3.040   4.447
 8226TIP3    H124555   6.592   3.120   4.500
 8226TIP3    H224556   6.590   2.969   4.509
 8227TIP3   OH224557   6.231   2.935   5.002
 8227TIP3    H124558   6.168   2.990   5.048
 8227TIP3    H224559   6.177   2.884   4.941
 8228TIP3   OH224560   6.564   2.286   3.731
 8228TIP3    H124561   6.625   2.343   3.779
 8228TIP3    H224562   6.593   2.291   3.640
 8229TIP3   OH224563   5.987   2.484   5.143
 8229TIP3    H124564   5.991   2.578   5.162
 8229TIP3    H224565   5.893   2.465   5.135
 8230TIP3   OH224566   6.301   2.961   3.975
 8230TIP3    H124567   6.389   2.998   3.985
 8230TIP3    H224568   6.251   3.030   3.933
 8231TIP3   OH224569   6.019   3.090   5.089
 8231TIP3    H124570   5.994   3.103   4.997
 8231TIP3    H224571   5.936   3.077   5.135
 8232TIP3   OH224572   7.073   1.510   3.791
 8232TIP3    H124573   6.997   1.531   3.845
 8232TIP3    H224574   7.083   1.586   3.733
 8233TIP3   OH224575   5.848   2.224   4.108
 8233TIP3    H124576   5.760   2.255   4.089
 8233TIP3    H224577   5.839   2.129   4.118
 8234TIP3   OH224578   6.901   2.886   3.347
 8234TIP3    H124579   6.894   2.979   3.322
 8234TIP3    H224580   6.990   2.861   3.321
 8235TIP3   OH224581   5.620   2.656   5.032
 8235TIP3    H124582   5.550   2.636   4.970
 8235TIP3    H224583   5.654   2.571   5.058
 8236TIP3   OH224584   5.459   2.851   4.698
 8236TIP3    H124585   5.548   2.879   4.721
 8236TIP3    H224586   5.404   2.926   4.720
 8237TIP3   OH224587   7.314   3.294   4.738
 8237TIP3    H124588   7.319   3.199   4.751
 8237TIP3    H224589   7.235   3.321   4.784
 8238TIP3   OH224590   6.420   3.081   4.866
 8238TIP3    H124591   6.412   3.172   4.894
 8238TIP3    H224592   6.352   3.035   4.915
 8239TIP3   OH224593   6.200   3.173   3.812
 8239TIP3    H124594   6.161   3.159   3.726
 8239TIP3    H224595   6.167   3.259   3.840
 8240TIP3   OH224596   5.638   3.032   4.195
 8240TIP3    H124597   5.683   3.026   4.279
 8240TIP3    H224598   5.590   2.950   4.187
 8241TIP3   OH224599   6.397   3.105   3.441
 8241TIP3    H124600   6.448   3.033   3.407
 8241TIP3    H224601   6.435   3.124   3.527
 8242TIP3   OH224602   6.457   3.154   3.709
 8242TIP3    H124603   6.373   3.154   3.755
 8242TIP3    H224604   6.520   3.122   3.773
 8243TIP3   OH224605   5.819   2.843   5.000
 8243TIP3    H124606   5.869   2.830   5.080
 8243TIP3    H224607   5.746   2.782   5.007
 8244TIP3   OH224608   6.216   1.657   4.815
 8244TIP3    H124609   6.149   1.609   4.767
 8244TIP3    H224610   6.168   1.728   4.858
 8245TIP3   OH224611   6.728   1.744   5.006
 8245TIP3    H124612   6.797   1.724   5.069
 8245TIP3    H224613   6.647   1.734   5.055
 8246TIP3   OH224614   6.993   2.258   5.005
 8246TIP3    H124615   6.909   2.221   5.034
 8246TIP3    H224616   6.969   2.326   4.943
 8247TIP3   OH224617   6.644   2.279   3.471
 8247TIP3    H124618   6.596   2.274   3.389
 8247TIP3    H224619   6.728   2.319   3.448
 8248TIP3   OH224620   6.351   1.687   3.788
 8248TIP3    H124621   6.314   1.691   3.876
 8248TIP3    H224622   6.314   1.608   3.749
 8249TIP3   OH224623   6.136   2.175   4.833
 8249TIP3    H124624   6.093   2.181   4.918
 8249TIP3    H224625   6.114   2.257   4.789
 8250TIP3   OH224626   6.015   2.055   4.353
 8250TIP3    H124627   5.928   2.023   4.378
 8250TIP3    H224628   6.027   2.024   4.263
 8251TIP3   OH224629   6.496   2.125   4.076
 8251TIP3    H124630   6.448   2.197   4.036
 8251TIP3    H224631   6.554   2.093   4.007
 8252TIP3   OH224632   6.673   2.394   5.147
 8252TIP3    H124633   6.647   2.325   5.207
 8252TIP3    H224634   6.736   2.447   5.197
 8253TIP3   OH224635   6.670   2.143   4.294
 8253TIP3    H124636   6.599   2.161   4.232
 8253TIP3    H224637   6.717   2.070   4.255
 8254TIP3   OH224638   5.977   2.181   5.060
 8254TIP3    H124639   5.990   2.247   5.128
 8254TIP3    H224640   5.959   2.100   5.109
 8255TIP3   OH224641   6.019   1.666   3.757
 8255TIP3    H124642   6.011   1.667   3.853
 8255TIP3    H224643   5.939   1.709   3.726
 8256TIP3   OH224644   5.561   1.692   4.647
 8256TIP3    H124645   5.636   1.732   4.691
 8256TIP3    H224646   5.592   1.674   4.558
 8257TIP3   OH224647   5.467   1.685   4.135
 8257TIP3    H124648   5.514   1.718   4.059
 8257TIP3    H224649   5.403   1.753   4.156
 8258TIP3   OH224650   6.701   2.397   4.713
 8258TIP3    H124651   6.728   2.330   4.651
 8258TIP3    H224652   6.658   2.349   4.784
 8259TIP3   OH224653   6.394   1.844   4.404
 8259TIP3    H124654   6.316   1.838   4.459
 8259TIP3    H224655   6.468   1.835   4.465
 8260TIP3   OH224656   5.782   1.916   4.408
 8260TIP3    H124657   5.696   1.919   4.367
 8260TIP3    H224658   5.815   1.829   4.389
 8261TIP3   OH224659   6.026   1.944   4.103
 8261TIP3    H124660   6.122   1.943   4.095
 8261TIP3    H224661   5.995   1.949   4.013
 8262TIP3   OH224662   6.850   1.939   4.623
 8262TIP3    H124663   6.835   1.957   4.716
 8262TIP3    H224664   6.781   1.878   4.599
 8263TIP3   OH224665   5.920   1.959   3.849
 8263TIP3    H124666   5.859   1.907   3.798
 8263TIP3    H224667   5.975   2.002   3.785
 8264TIP3   OH224668   7.030   3.639   4.825
 8264TIP3    H124669   7.027   3.657   4.731
 8264TIP3    H224670   7.109   3.684   4.855
 8265TIP3   OH224671   5.970   2.750   5.235
 8265TIP3    H124672   6.050   2.771   5.283
 8265TIP3    H224673   5.900   2.761   5.299
 8266TIP3   OH224674   6.428   2.217   4.500
 8266TIP3    H124675   6.489   2.162   4.450
 8266TIP3    H224676   6.424   2.176   4.586
 8267TIP3   OH224677   5.956   1.674   4.411
 8267TIP3    H124678   5.901   1.606   4.449
 8267TIP3    H224679   6.041   1.631   4.398
 8268TIP3   OH224680   6.400   2.123   4.763
 8268TIP3    H124681   6.312   2.148   4.790
 8268TIP3    H224682   6.458   2.175   4.818
 8269TIP3   OH224683   6.139   2.466   3.878
 8269TIP3    H124684   6.067   2.407   3.857
 8269TIP3    H224685   6.109   2.512   3.957
 8270TIP3   OH224686   7.029   2.727   4.487
 8270TIP3    H124687   7.068   2.775   4.414
 8270TIP3    H224688   6.951   2.686   4.451
 8271TIP3   OH224689   6.605   1.787   3.798
 8271TIP3    H124690   6.512   1.765   3.792
 8271TIP3    H224691   6.607   1.882   3.807
 8272TIP3   OH224692   6.544   2.818   4.898
 8272TIP3    H124693   6.596   2.811   4.978
 8272TIP3    H224694   6.504   2.904   4.903
 8273TIP3   OH224695   6.661   2.054   3.860
 8273TIP3    H124696   6.756   2.057   3.869
 8273TIP3    H224697   6.639   2.131   3.807
 8274TIP3   OH224698   5.827   2.476   4.526
 8274TIP3    H124699   5.866   2.460   4.440
 8274TIP3    H224700   5.894   2.449   4.589
 8275TIP3   OH224701   6.294   2.624   3.718
 8275TIP3    H124702   6.243   2.705   3.716
 8275TIP3    H224703   6.244   2.565   3.774
 8276TIP3   OH224704   5.713   2.427   5.167
 8276TIP3    H124705   5.721   2.404   5.260
 8276TIP3    H224706   5.636   2.378   5.137
 8277TIP3   OH224707   6.442   2.553   5.186
 8277TIP3    H124708   6.369   2.497   5.161
 8277TIP3    H224709   6.519   2.511   5.147
 8278TIP3   OH224710   6.692   3.103   4.790
 8278TIP3    H124711   6.597   3.091   4.793
 8278TIP3    H224712   6.714   3.138   4.876
 8279TIP3   OH224713   7.074   2.142   3.671
 8279TIP3    H124714   7.016   2.098   3.609
 8279TIP3    H224715   7.081   2.231   3.637
 8280TIP3   OH224716   7.330   3.014   4.762
 8280TIP3    H124717   7.237   2.993   4.758
 8280TIP3    H224718   7.364   2.988   4.677
 8281TIP3   OH224719   6.816   2.958   3.605
 8281TIP3    H124720   6.793   2.884   3.661
 8281TIP3    H224721   6.841   2.919   3.522
 8282TIP3   OH224722   6.800   2.592   4.380
 8282TIP3    H124723   6.709   2.572   4.402
 8282TIP3    H224724   6.834   2.510   4.343
 8283TIP3   OH224725   5.957   2.831   4.200
 8283TIP3    H124726   5.951   2.905   4.140
 8283TIP3    H224727   5.876   2.835   4.251
 8284TIP3   OH224728   5.515   2.109   3.918
 8284TIP3    H124729   5.560   2.190   3.944
 8284TIP3    H224730   5.433   2.111   3.967
 8285TIP3   OH224731   6.007   2.584   4.086
 8285TIP3    H124732   6.002   2.672   4.122
 8285TIP3    H224733   5.995   2.526   4.161
 8286TIP3   OH224734   6.240   3.152   4.656
 8286TIP3    H124735   6.275   3.226   4.607
 8286TIP3    H224736   6.315   3.120   4.707
 8287TIP3   OH224737   5.869   3.051   4.045
 8287TIP3    H124738   5.784   3.058   4.088
 8287TIP3    H224739   5.907   3.138   4.054
 8288TIP3   OH224740   6.587   2.821   4.624
 8288TIP3    H124741   6.572   2.817   4.719
 8288TIP3    H224742   6.668   2.772   4.611
 8289TIP3   OH224743   6.588   2.696   3.518
 8289TIP3    H124744   6.642   2.683   3.596
 8289TIP3    H224745   6.502   2.659   3.541
 8290TIP3   OH224746   6.845   3.308   4.668
 8290TIP3    H124747   6.775   3.247   4.690
 8290TIP3    H224748   6.810   3.361   4.596
 8291TIP3   OH224749   6.890   3.158   3.299
 8291TIP3    H124750   6.900   3.213   3.221
 8291TIP3    H224751   6.823   3.202   3.351
 8292TIP3   OH224752   5.950   1.898   5.194
 8292TIP3    H124753   5.874   1.840   5.197
 8292TIP3    H224754   6.005   1.870   5.267
 8293TIP3   OH224755   6.766   2.650   3.728
 8293TIP3    H124756   6.747   2.573   3.782
 8293TIP3    H224757   6.859   2.642   3.708
 8294TIP3   OH224758   5.667   3.046   4.814
 8294TIP3    H124759   5.721   2.990   4.870
 8294TIP3    H224760   5.679   3.134   4.850
 8295TIP3   OH224761   5.882   2.629   3.508
 8295TIP3    H124762   5.920   2.546   3.478
 8295TIP3    H224763   5.905   2.634   3.601
 8296TIP3   OH224764   5.868   2.661   3.791
 8296TIP3    H124765   5.921   2.625   3.862
 8296TIP3    H224766   5.875   2.756   3.802
 8297TIP3   OH224767   5.621   2.352   4.008
 8297TIP3    H124768   5.551   2.404   4.048
 8297TIP3    H224769   5.679   2.417   3.967
 8298TIP3   OH224770   6.781   1.987   4.891
 8298TIP3    H124771   6.802   2.025   4.976
 8298TIP3    H224772   6.755   1.897   4.911
 8299TIP3   OH224773   6.666   1.739   4.065
 8299TIP3    H124774   6.643   1.755   3.974
 8299TIP3    H224775   6.710   1.819   4.094
 8300TIP3   OH224776   6.134   2.842   3.710
 8300TIP3    H124777   6.056   2.868   3.759
 8300TIP3    H224778   6.170   2.924   3.676
 8301TIP3   OH224779   6.308   1.937   4.154
 8301TIP3    H124780   6.370   2.004   4.126
 8301TIP3    H224781   6.335   1.914   4.243
 8302TIP3   OH224782   6.608   2.236   4.916
 8302TIP3    H124783   6.629   2.281   4.997
 8302TIP3    H224784   6.656   2.153   4.920
 8303TIP3   OH224785   6.471   1.630   4.232
 8303TIP3    H124786   6.450   1.701   4.293
 8303TIP3    H224787   6.541   1.665   4.178
 8304TIP3   OH224788   5.888   2.933   3.801
 8304TIP3    H124789   5.864   3.000   3.738
 8304TIP3    H224790   5.881   2.976   3.886
 8305TIP3   OH224791   5.987   1.657   4.031
 8305TIP3    H124792   5.967   1.737   4.081
 8305TIP3    H224793   6.081   1.643   4.045
 8306TIP3   OH224794   7.232   2.151   4.941
 8306TIP3    H124795   7.141   2.161   4.913
 8306TIP3    H224796   7.279   2.126   4.862
 8307TIP3   OH224797   6.892   2.333   4.295
 8307TIP3    H124798   6.816   2.276   4.305
 8307TIP3    H224799   6.958   2.295   4.354
 8308TIP3   OH224800   5.636   2.599   3.651
 8308TIP3    H124801   5.695   2.632   3.719
 8308TIP3    H224802   5.654   2.505   3.647
 8309TIP3   OH224803   5.533   1.831   3.913
 8309TIP3    H124804   5.547   1.925   3.920
 8309TIP3    H224805   5.472   1.821   3.840
 8310TIP3   OH224806   6.871   3.304   4.233
 8310TIP3    H124807   6.831   3.357   4.165
 8310TIP3    H224808   6.965   3.318   4.222
 8311TIP3   OH224809   5.935   1.559   4.781
 8311TIP3    H124810   5.902   1.533   4.695
 8311TIP3    H224811   5.954   1.477   4.826
 8312TIP3   OH224812   5.468   2.804   4.182
 8312TIP3    H124813   5.430   2.840   4.262
 8312TIP3    H224814   5.422   2.849   4.111
 8313TIP3   OH224815   5.671   3.347   5.241
 8313TIP3    H124816   5.753   3.354   5.291
 8313TIP3    H224817   5.660   3.253   5.227
 8314TIP3   OH224818   6.131   3.252   5.282
 8314TIP3    H124819   6.222   3.223   5.290
 8314TIP3    H224820   6.096   3.198   5.211
 8315TIP3   OH224821   6.079   2.849   3.406
 8315TIP3    H124822   6.049   2.777   3.461
 8315TIP3    H224823   6.157   2.815   3.362
 8316TIP3   OH224824   6.746   3.196   5.043
 8316TIP3    H124825   6.762   3.126   5.106
 8316TIP3    H224826   6.819   3.256   5.054
 8317TIP3   OH224827   6.528   2.893   3.328
 8317TIP3    H124828   6.567   2.831   3.390
 8317TIP3    H224829   6.586   2.889   3.252
 8318TIP3   OH224830   5.763   2.751   5.423
 8318TIP3    H124831   5.783   2.658   5.436
 8318TIP3    H224832   5.675   2.752   5.386
 8319TIP3   OH224833   5.756   2.352   3.633
 8319TIP3    H124834   5.803   2.327   3.712
 8319TIP3    H224835   5.823   2.350   3.564
 8320TIP3   OH224836   6.388   2.831   5.203
 8320TIP3    H124837   6.341   2.855   5.123
 8320TIP3    H224838   6.418   2.742   5.188
 8321TIP3   OH224839   6.296   2.571   3.449
 8321TIP3    H124840   6.293   2.576   3.545
 8321TIP3    H224841   6.296   2.477   3.430
 8322TIP3   OH224842   6.858   2.876   4.818
 8322TIP3    H124843   6.936   2.903   4.770
 8322TIP3    H224844   6.796   2.948   4.804
 8323TIP3   OH224845   5.873   2.493   5.432
 8323TIP3    H124846   5.951   2.480   5.377
 8323TIP3    H224847   5.908   2.511   5.519
 8324TIP3   OH224848   5.928   2.289   3.843
 8324TIP3    H124849   5.912   2.255   3.931
 8324TIP3    H224850   5.976   2.219   3.799
 8325TIP3   OH224851   6.241   2.378   5.091
 8325TIP3    H124852   6.155   2.419   5.100
 8325TIP3    H224853   6.272   2.408   5.005
 8326TIP3   OH224854   6.073   2.115   3.680
 8326TIP3    H124855   6.044   2.111   3.589
 8326TIP3    H224856   6.168   2.121   3.674
 8327TIP3   OH224857   6.759   2.741   5.181
 8327TIP3    H124858   6.826   2.717   5.117
 8327TIP3    H224859   6.768   2.676   5.251
 8328TIP3   OH224860   6.866   2.397   3.354
 8328TIP3    H124861   6.852   2.357   3.268
 8328TIP3    H224862   6.840   2.488   3.342
 8329TIP3   OH224863   6.342   2.145   5.193
 8329TIP3    H124864   6.344   2.075   5.128
 8329TIP3    H224865   6.307   2.220   5.147
 8330TIP3   OH224866   6.351   1.949   4.991
 8330TIP3    H124867   6.379   1.979   4.905
 8330TIP3    H224868   6.263   1.915   4.978
 8331TIP3   OH224869   6.356   2.476   4.865
 8331TIP3    H124870   6.444   2.505   4.843
 8331TIP3    H224871   6.299   2.534   4.814
 8332TIP3   OH224872   7.117   2.397   5.232
 8332TIP3    H124873   7.068   2.374   5.311
 8332TIP3    H224874   7.116   2.492   5.230
 8333TIP3   OH224875   6.976   2.698   4.985
 8333TIP3    H124876   6.925   2.761   4.933
 8333TIP3    H224877   7.066   2.711   4.954
 8334TIP3   OH224878   6.238   2.221   5.444
 8334TIP3    H124879   6.166   2.162   5.465
 8334TIP3    H224880   6.262   2.197   5.354
 8335TIP3   OH224881   6.471   1.723   5.107
 8335TIP3    H124882   6.432   1.801   5.069
 8335TIP3    H224883   6.407   1.653   5.091
 8336TIP3   OH224884   6.593   2.182   5.301
 8336TIP3    H124885   6.580   2.165   5.394
 8336TIP3    H224886   6.508   2.164   5.261
 8337TIP3   OH224887   6.803   2.106   5.137
 8337TIP3    H124888   6.730   2.120   5.197
 8337TIP3    H224889   6.876   2.082   5.194
 8338TIP3   OH224890   7.062   2.102   5.260
 8338TIP3    H124891   7.080   2.010   5.281
 8338TIP3    H224892   7.036   2.141   5.344
 8339TIP3   OH224893   6.060   2.011   5.511
 8339TIP3    H124894   6.069   1.922   5.478
 8339TIP3    H224895   6.096   2.007   5.600
 8340TIP3   OH224896   6.547   1.694   5.369
 8340TIP3    H124897   6.611   1.623   5.361
 8340TIP3    H224898   6.515   1.706   5.279
 8341TIP3   OH224899   6.651   1.910   5.505
 8341TIP3    H124900   6.619   1.835   5.454
 8341TIP3    H224901   6.577   1.970   5.510
 8342TIP3   OH224902   5.867   3.089   3.569
 8342TIP3    H124903   5.962   3.089   3.569
 8342TIP3    H224904   5.843   3.161   3.510
 8343TIP3   OH224905   5.369   2.545   3.806
 8343TIP3    H124906   5.441   2.578   3.753
 8343TIP3    H224907   5.347   2.460   3.766
 8344TIP3   OH224908   5.265   3.118   4.258
 8344TIP3    H124909   5.201   3.066   4.210
 8344TIP3    H224910   5.309   3.056   4.316
 8345TIP3   OH224911   5.411   2.948   4.425
 8345TIP3    H124912   5.401   2.882   4.493
 8345TIP3    H224913   5.462   3.017   4.465
 8346TIP3   OH224914   7.142   3.357   4.232
 8346TIP3    H124915   7.159   3.385   4.322
 8346TIP3    H224916   7.193   3.417   4.178
 8347TIP3   OH224917   7.155   3.392   4.513
 8347TIP3    H124918   7.111   3.307   4.509
 8347TIP3    H224919   7.226   3.379   4.575
 8348TIP3   OH224920   7.222   3.093   5.089
 8348TIP3    H124921   7.149   3.104   5.149
 8348TIP3    H224922   7.268   3.177   5.091
 8349TIP3   OH224923   7.039   2.610   3.693
 8349TIP3    H124924   7.097   2.679   3.661
 8349TIP3    H224925   7.087   2.570   3.765
 8350TIP3   OH224926   7.171   2.466   3.893
 8350TIP3    H124927   7.103   2.428   3.949
 8350TIP3    H224928   7.235   2.503   3.954
 8351TIP3   OH224929   7.216   2.862   4.327
 8351TIP3    H124930   7.264   2.795   4.279
 8351TIP3    H224931   7.217   2.939   4.270
 8352TIP3   OH224932   7.017   3.150   4.518
 8352TIP3    H124933   6.951   3.196   4.570
 8352TIP3    H224934   6.968   3.110   4.446
 8353TIP3   OH224935   7.072   2.383   3.537
 8353TIP3    H124936   7.002   2.382   3.471
 8353TIP3    H224937   7.055   2.462   3.589
 8354TIP3   OH224938   6.919   2.032   3.474
 8354TIP3    H124939   6.874   2.065   3.397
 8354TIP3    H224940   6.912   1.937   3.467
 8355TIP3   OH224941   6.963   2.327   4.025
 8355TIP3    H124942   6.967   2.232   4.010
 8355TIP3    H224943   6.943   2.334   4.119
 8356TIP3   OH224944   5.580   2.378   4.807
 8356TIP3    H124945   5.572   2.352   4.715
 8356TIP3    H224946   5.673   2.373   4.826
 8357TIP3   OH224947   7.240   2.728   4.902
 8357TIP3    H124948   7.295   2.650   4.905
 8357TIP3    H224949   7.270   2.776   4.825
 8358TIP3   OH224950   7.373   2.489   4.932
 8358TIP3    H124951   7.317   2.435   4.875
 8358TIP3    H224952   7.456   2.442   4.934
 8359TIP3   OH224953   6.884   1.761   3.451
 8359TIP3    H124954   6.951   1.732   3.514
 8359TIP3    H224955   6.803   1.721   3.482
 8360TIP3   OH224956   6.955   2.049   3.913
 8360TIP3    H124957   7.001   1.966   3.925
 8360TIP3    H224958   6.995   2.087   3.834
 8361TIP3   OH224959   7.108   2.222   4.448
 8361TIP3    H124960   7.188   2.244   4.400
 8361TIP3    H224961   7.123   2.255   4.537
 8362TIP3   OH224962   7.204   2.381   4.714
 8362TIP3    H124963   7.116   2.402   4.747
 8362TIP3    H224964   7.224   2.453   4.654
 8363TIP3   OH224965   5.799   2.066   5.426
 8363TIP3    H124966   5.892   2.062   5.450
 8363TIP3    H224967   5.762   1.985   5.460
 8364TIP3   OH224968   7.641   1.967   5.197
 8364TIP3    H124969   7.710   1.907   5.170
 8364TIP3    H224970   7.609   2.007   5.116
 8365TIP3   OH224971   7.071   1.800   3.967
 8365TIP3    H124972   7.115   1.785   4.051
 8365TIP3    H224973   7.008   1.728   3.960
 8366TIP3   OH224974   5.774   1.778   4.818
 8366TIP3    H124975   5.829   1.700   4.814
 8366TIP3    H224976   5.831   1.849   4.790
 8367TIP3   OH224977   5.530   2.046   4.846
 8367TIP3    H124978   5.588   2.030   4.771
 8367TIP3    H224979   5.544   2.138   4.867
 8368TIP3   OH224980   7.493   2.059   4.987
 8368TIP3    H124981   7.407   2.093   5.012
 8368TIP3    H224982   7.473   1.976   4.943
 8369TIP3   OH224983   7.113   1.708   3.605
 8369TIP3    H124984   7.161   1.648   3.548
 8369TIP3    H224985   7.167   1.787   3.608
 8370TIP3   OH224986   5.541   1.561   4.369
 8370TIP3    H124987   5.453   1.547   4.406
 8370TIP3    H224988   5.525   1.611   4.289
 8371TIP3   OH224989   6.691   3.273   3.874
 8371TIP3    H124990   6.750   3.264   3.799
 8371TIP3    H224991   6.732   3.341   3.929
 8372TIP3   OH224992   5.781   1.667   5.215
 8372TIP3    H124993   5.731   1.638   5.291
 8372TIP3    H224994   5.719   1.662   5.142
 8373TIP3   OH224995   5.792   3.068   5.255
 8373TIP3    H124996   5.699   3.045   5.247
 8373TIP3    H224997   5.811   3.059   5.349
 8374TIP3   OH224998   6.012   3.117   4.805
 8374TIP3    H124999   5.961   3.192   4.774
 8374TIP3    H225000   6.097   3.126   4.762
 8375TIP3   OH225001   6.406   3.348   4.941
 8375TIP3    H125002   6.443   3.341   5.029
 8375TIP3    H225003   6.468   3.402   4.893
 8376TIP3   OH225004   6.598   3.504   4.817
 8376TIP3    H125005   6.660   3.452   4.766
 8376TIP3    H225006   6.652   3.562   4.870
 8377TIP3   OH225007   7.404   1.804   4.907
 8377TIP3    H125008   7.316   1.779   4.881
 8377TIP3    H225009   7.456   1.724   4.899
 8378TIP3   OH225010   5.670   3.345   4.853
 8378TIP3    H125011   5.579   3.363   4.830
 8378TIP3    H225012   5.692   3.413   4.917
 8379TIP3   OH225013   5.901   3.347   4.702
 8379TIP3    H125014   5.818   3.349   4.749
 8379TIP3    H225015   5.878   3.370   4.612
 8380TIP3   OH225016   6.311   3.366   4.496
 8380TIP3    H125017   6.240   3.377   4.432
 8380TIP3    H225018   6.322   3.452   4.535
 8381TIP3   OH225019   6.572   3.295   4.546
 8381TIP3    H125020   6.482   3.319   4.524
 8381TIP3    H225021   6.626   3.359   4.499
 8382TIP3   OH225022   6.772   3.456   4.440
 8382TIP3    H125023   6.783   3.545   4.406
 8382TIP3    H225024   6.804   3.400   4.370
 8383TIP3   OH225025   5.583   3.130   4.561
 8383TIP3    H125026   5.605   3.107   4.651
 8383TIP3    H225027   5.657   3.097   4.509
 8384TIP3   OH225028   5.790   3.015   4.424
 8384TIP3    H125029   5.800   2.930   4.467
 8384TIP3    H225030   5.876   3.057   4.432
 8385TIP3   OH225031   6.056   3.100   4.453
 8385TIP3    H125032   6.077   3.009   4.437
 8385TIP3    H225033   6.110   3.125   4.528
 8386TIP3   OH225034   6.622   1.765   4.556
 8386TIP3    H125035   6.574   1.696   4.601
 8386TIP3    H225036   6.686   1.719   4.501
 8387TIP3   OH225037   7.114   1.678   4.435
 8387TIP3    H125038   7.147   1.725   4.359
 8387TIP3    H225039   7.019   1.688   4.430
 8388TIP3   OH225040   7.225   1.745   4.192
 8388TIP3    H125041   7.294   1.684   4.164
 8388TIP3    H225042   7.264   1.832   4.180
 8389TIP3   OH225043   5.822   1.470   4.543
 8389TIP3    H125044   5.733   1.436   4.553
 8389TIP3    H225045   5.876   1.392   4.532
 8390TIP3   OH225046   5.655   1.359   4.186
 8390TIP3    H125047   5.691   1.407   4.111
 8390TIP3    H225048   5.630   1.428   4.248
 8391TIP3   OH225049   6.211   1.567   4.432
 8391TIP3    H125050   6.287   1.550   4.376
 8391TIP3    H225051   6.218   1.503   4.503
 8392TIP3   OH225052   6.831   1.649   4.410
 8392TIP3    H125053   6.825   1.617   4.320
 8392TIP3    H225054   6.833   1.570   4.464
 8393TIP3   OH225055   6.886   1.589   3.978
 8393TIP3    H125056   6.806   1.635   4.003
 8393TIP3    H225057   6.876   1.502   4.016
 8394TIP3   OH225058   5.348   2.932   3.975
 8394TIP3    H125059   5.267   2.895   3.942
 8394TIP3    H225060   5.355   3.018   3.932
 8395TIP3   OH225061   5.779   1.484   3.952
 8395TIP3    H125062   5.826   1.422   3.895
 8395TIP3    H225063   5.848   1.542   3.986
 8396TIP3   OH225064   6.263   1.687   4.051
 8396TIP3    H125065   6.321   1.634   4.105
 8396TIP3    H225066   6.276   1.776   4.081
 8397TIP3   OH225067   6.143   3.077   3.547
 8397TIP3    H125068   6.226   3.108   3.510
 8397TIP3    H225069   6.119   3.002   3.493
 8398TIP3   OH225070   6.848   3.226   3.649
 8398TIP3    H125071   6.842   3.131   3.640
 8398TIP3    H225072   6.808   3.261   3.569
 8399TIP3   OH225073   6.087   1.745   5.417
 8399TIP3    H125074   6.051   1.678   5.475
 8399TIP3    H225075   6.179   1.752   5.442
 8400TIP3   OH225076   6.332   1.746   5.544
 8400TIP3    H125077   6.409   1.723   5.492
 8400TIP3    H225078   6.325   1.676   5.609
 8401TIP3   OH225079   7.145   1.846   5.317
 8401TIP3    H125080   7.157   1.817   5.408
 8401TIP3    H225081   7.231   1.834   5.277
 8402TIP3   OH225082   7.065   3.365   4.834
 8402TIP3    H125083   6.991   3.336   4.780
 8402TIP3    H225084   7.054   3.460   4.839
 8403TIP3   OH225085   8.334   2.755   3.569
 8403TIP3    H125086   8.297   2.841   3.549
 8403TIP3    H225087   8.264   2.693   3.547
 8404TIP3   OH225088   8.335   2.739   3.991
 8404TIP3    H125089   8.388   2.725   4.070
 8404TIP3    H225090   8.292   2.655   3.976
 8405TIP3   OH225091   7.642   2.603   4.351
 8405TIP3    H125092   7.681   2.545   4.416
 8405TIP3    H225093   7.716   2.628   4.295
 8406TIP3   OH225094   8.621   3.051   3.671
 8406TIP3    H125095   8.597   2.985   3.737
 8406TIP3    H225096   8.630   3.132   3.720
 8407TIP3   OH225097   7.636   3.027   4.015
 8407TIP3    H125098   7.617   2.934   4.025
 8407TIP3    H225099   7.731   3.032   4.011
 8408TIP3   OH225100   7.314   2.237   3.808
 8408TIP3    H125101   7.276   2.321   3.832
 8408TIP3    H225102   7.242   2.189   3.767
 8409TIP3   OH225103   7.397   2.553   4.042
 8409TIP3    H125104   7.447   2.474   4.062
 8409TIP3    H225105   7.463   2.618   4.016
 8410TIP3   OH225106   8.276   3.479   3.678
 8410TIP3    H125107   8.307   3.408   3.621
 8410TIP3    H225108   8.278   3.441   3.766
 8411TIP3   OH225109   8.151   2.959   4.004
 8411TIP3    H125110   8.197   2.880   3.976
 8411TIP3    H225111   8.219   3.016   4.039
 8412TIP3   OH225112   9.091   2.254   4.008
 8412TIP3    H125113   9.155   2.305   4.057
 8412TIP3    H225114   9.099   2.285   3.918
 8413TIP3   OH225115   8.553   2.449   4.038
 8413TIP3    H125116   8.591   2.366   4.067
 8413TIP3    H225117   8.514   2.429   3.953
 8414TIP3   OH225118   7.912   2.107   3.992
 8414TIP3    H125119   7.890   2.181   3.934
 8414TIP3    H225120   7.857   2.036   3.960
 8415TIP3   OH225121   8.598   2.212   3.639
 8415TIP3    H125122   8.664   2.203   3.709
 8415TIP3    H225123   8.648   2.248   3.565
 8416TIP3   OH225124   7.533   2.325   4.126
 8416TIP3    H125125   7.616   2.306   4.168
 8416TIP3    H225126   7.535   2.275   4.045
 8417TIP3   OH225127   7.952   2.526   3.942
 8417TIP3    H125128   8.046   2.510   3.947
 8417TIP3    H225129   7.915   2.444   3.909
 8418TIP3   OH225130   9.254   2.408   4.169
 8418TIP3    H125131   9.212   2.494   4.179
 8418TIP3    H225132   9.294   2.391   4.254
 8419TIP3   OH225133   7.895   2.116   4.443
 8419TIP3    H125134   7.842   2.151   4.372
 8419TIP3    H225135   7.841   2.128   4.521
 8420TIP3   OH225136   8.226   2.977   3.443
 8420TIP3    H125137   8.187   2.945   3.362
 8420TIP3    H225138   8.173   3.054   3.466
 8421TIP3   OH225139   7.990   2.886   4.220
 8421TIP3    H125140   7.935   2.959   4.250
 8421TIP3    H225141   8.039   2.922   4.146
 8422TIP3   OH225142   8.767   2.230   3.853
 8422TIP3    H125143   8.731   2.213   3.940
 8422TIP3    H225144   8.820   2.309   3.864
 8423TIP3   OH225145   7.781   2.218   4.212
 8423TIP3    H125146   7.836   2.293   4.233
 8423TIP3    H225147   7.827   2.174   4.140
 8424TIP3   OH225148   7.832   3.094   4.315
 8424TIP3    H125149   7.821   3.184   4.284
 8424TIP3    H225150   7.755   3.076   4.369
 8425TIP3   OH225151   7.206   2.800   3.572
 8425TIP3    H125152   7.173   2.818   3.484
 8425TIP3    H225153   7.229   2.886   3.608
 8426TIP3   OH225154   8.643   3.299   3.806
 8426TIP3    H125155   8.559   3.287   3.851
 8426TIP3    H225156   8.633   3.382   3.759
 8427TIP3   OH225157   8.921   2.154   4.196
 8427TIP3    H125158   8.831   2.173   4.168
 8427TIP3    H225159   8.976   2.182   4.123
 8428TIP3   OH225160   8.230   1.809   4.178
 8428TIP3    H125161   8.226   1.717   4.204
 8428TIP3    H225162   8.151   1.848   4.216
 8429TIP3   OH225163   8.366   3.309   3.474
 8429TIP3    H125164   8.417   3.230   3.458
 8429TIP3    H225165   8.421   3.381   3.442
 8430TIP3   OH225166   8.489   3.060   3.429
 8430TIP3    H125167   8.402   3.027   3.449
 8430TIP3    H225168   8.538   3.052   3.511
 8431TIP3   OH225169   8.851   3.171   4.139
 8431TIP3    H125170   8.841   3.099   4.076
 8431TIP3    H225171   8.841   3.250   4.086
 8432TIP3   OH225172   8.164   2.587   3.425
 8432TIP3    H125173   8.081   2.632   3.406
 8432TIP3    H225174   8.207   2.579   3.340
 8433TIP3   OH225175   8.141   2.387   3.108
 8433TIP3    H125176   8.205   2.435   3.161
 8433TIP3    H225177   8.192   2.321   3.062
 8434TIP3   OH225178   9.069   2.867   4.003
 8434TIP3    H125179   8.977   2.891   4.001
 8434TIP3    H225180   9.086   2.831   3.915
 8435TIP3   OH225181   8.517   2.660   3.393
 8435TIP3    H125182   8.463   2.691   3.466
 8435TIP3    H225183   8.599   2.632   3.434
 8436TIP3   OH225184   8.731   2.710   4.344
 8436TIP3    H125185   8.729   2.796   4.385
 8436TIP3    H225186   8.651   2.706   4.292
 8437TIP3   OH225187   7.758   2.659   3.784
 8437TIP3    H125188   7.722   2.598   3.721
 8437TIP3    H225189   7.830   2.611   3.826
 8438TIP3   OH225190   7.901   3.079   3.931
 8438TIP3    H125191   7.880   3.066   3.838
 8438TIP3    H225192   7.988   3.040   3.941
 8439TIP3   OH225193   7.850   2.656   4.165
 8439TIP3    H125194   7.889   2.621   4.085
 8439TIP3    H225195   7.900   2.736   4.183
 8440TIP3   OH225196   8.412   3.275   3.943
 8440TIP3    H125197   8.388   3.358   3.984
 8440TIP3    H225198   8.390   3.209   4.009
 8441TIP3   OH225199   8.027   3.188   4.490
 8441TIP3    H125200   7.965   3.245   4.536
 8441TIP3    H225201   7.973   3.138   4.430
 8442TIP3   OH225202   8.351   2.533   3.220
 8442TIP3    H125203   8.409   2.584   3.276
 8442TIP3    H225204   8.378   2.555   3.131
 8443TIP3   OH225205   7.787   2.757   4.639
 8443TIP3    H125206   7.787   2.852   4.656
 8443TIP3    H225207   7.697   2.736   4.618
 8444TIP3   OH225208   8.103   3.222   3.473
 8444TIP3    H125209   8.188   3.265   3.482
 8444TIP3    H225210   8.049   3.286   3.427
 8445TIP3   OH225211   7.818   3.347   4.574
 8445TIP3    H125212   7.794   3.360   4.482
 8445TIP3    H225213   7.734   3.335   4.619
 8446TIP3   OH225214   8.880   1.792   3.289
 8446TIP3    H125215   8.800   1.807   3.339
 8446TIP3    H225216   8.870   1.846   3.210
 8447TIP3   OH225217   7.632   2.500   3.585
 8447TIP3    H125218   7.553   2.547   3.559
 8447TIP3    H225219   7.602   2.410   3.600
 8448TIP3   OH225220   7.413   2.916   4.522
 8448TIP3    H125221   7.344   2.893   4.459
 8448TIP3    H225222   7.447   2.831   4.551
 8449TIP3   OH225223   7.257   3.104   4.183
 8449TIP3    H125224   7.346   3.131   4.202
 8449TIP3    H225225   7.203   3.180   4.207
 8450TIP3   OH225226   9.077   3.538   4.281
 8450TIP3    H125227   9.066   3.443   4.275
 8450TIP3    H225228   8.991   3.571   4.304
 8451TIP3   OH225229   8.211   3.339   4.351
 8451TIP3    H125230   8.204   3.429   4.381
 8451TIP3    H225231   8.144   3.291   4.401
 8452TIP3   OH225232   8.004   3.437   3.302
 8452TIP3    H125233   7.953   3.416   3.224
 8452TIP3    H225234   7.966   3.519   3.335
 8453TIP3   OH225235   7.432   3.289   3.678
 8453TIP3    H125236   7.476   3.281   3.762
 8453TIP3    H225237   7.383   3.208   3.668
 8454TIP3   OH225238   8.206   3.356   2.925
 8454TIP3    H125239   8.258   3.282   2.894
 8454TIP3    H225240   8.237   3.373   3.014
 8455TIP3   OH225241   8.256   3.404   3.195
 8455TIP3    H125242   8.170   3.406   3.238
 8455TIP3    H225243   8.318   3.390   3.266
 8456TIP3   OH225244   8.971   2.664   4.510
 8456TIP3    H125245   8.892   2.688   4.463
 8456TIP3    H225246   8.992   2.576   4.479
 8457TIP3   OH225247   7.617   3.098   4.488
 8457TIP3    H125248   7.663   3.090   4.571
 8457TIP3    H225249   7.543   3.039   4.495
 8458TIP3   OH225250   7.994   1.897   4.301
 8458TIP3    H125251   7.909   1.864   4.270
 8458TIP3    H225252   7.972   1.979   4.346
 8459TIP3   OH225253   8.533   2.027   4.508
 8459TIP3    H125254   8.605   1.999   4.564
 8459TIP3    H225255   8.454   2.007   4.559
 8460TIP3   OH225256   8.731   2.440   4.415
 8460TIP3    H125257   8.704   2.433   4.506
 8460TIP3    H225258   8.722   2.533   4.394
 8461TIP3   OH225259   8.432   2.586   2.967
 8461TIP3    H125260   8.380   2.555   2.893
 8461TIP3    H225261   8.512   2.620   2.928
 8462TIP3   OH225262   8.145   1.941   3.272
 8462TIP3    H125263   8.108   1.949   3.360
 8462TIP3    H225264   8.110   1.859   3.239
 8463TIP3   OH225265   7.933   2.429   4.301
 8463TIP3    H125266   7.891   2.434   4.387
 8463TIP3    H225267   7.909   2.511   4.258
 8464TIP3   OH225268   7.812   2.311   3.836
 8464TIP3    H125269   7.723   2.286   3.861
 8464TIP3    H225270   7.821   2.279   3.746
 8465TIP3   OH225271   8.290   2.386   3.564
 8465TIP3    H125272   8.241   2.458   3.522
 8465TIP3    H225273   8.346   2.352   3.495
 8466TIP3   OH225274   8.481   2.648   4.632
 8466TIP3    H125275   8.452   2.581   4.694
 8466TIP3    H225276   8.573   2.662   4.654
 8467TIP3   OH225277   8.450   2.394   3.790
 8467TIP3    H125278   8.383   2.413   3.724
 8467TIP3    H225279   8.499   2.320   3.752
 8468TIP3   OH225280   7.774   2.428   4.529
 8468TIP3    H125281   7.838   2.478   4.580
 8468TIP3    H225282   7.757   2.350   4.582
 8469TIP3   OH225283   7.816   1.921   3.250
 8469TIP3    H125284   7.807   1.925   3.345
 8469TIP3    H225285   7.737   1.963   3.216
 8470TIP3   OH225286   7.361   1.966   4.117
 8470TIP3    H125287   7.435   2.002   4.165
 8470TIP3    H225288   7.395   1.947   4.030
 8471TIP3   OH225289   7.262   1.944   3.615
 8471TIP3    H125290   7.308   1.978   3.539
 8471TIP3    H225291   7.197   2.011   3.637
 8472TIP3   OH225292   8.492   2.652   4.208
 8472TIP3    H125293   8.523   2.586   4.145
 8472TIP3    H225294   8.450   2.601   4.278
 8473TIP3   OH225295   8.183   2.100   3.886
 8473TIP3    H125296   8.106   2.097   3.942
 8473TIP3    H225297   8.257   2.088   3.946
 8474TIP3   OH225298   7.573   2.185   3.893
 8474TIP3    H125299   7.485   2.190   3.854
 8474TIP3    H225300   7.602   2.095   3.877
 8475TIP3   OH225301   7.825   2.191   3.589
 8475TIP3    H125302   7.920   2.199   3.580
 8475TIP3    H225303   7.791   2.207   3.501
 8476TIP3   OH225304   8.633   2.184   4.098
 8476TIP3    H125305   8.601   2.204   4.186
 8476TIP3    H225306   8.569   2.121   4.063
 8477TIP3   OH225307   7.717   2.212   3.339
 8477TIP3    H125308   7.654   2.161   3.287
 8477TIP3    H225309   7.770   2.257   3.273
 8478TIP3   OH225310   8.804   3.904   4.310
 8478TIP3    H125311   8.799   3.919   4.215
 8478TIP3    H225312   8.877   3.960   4.338
 8479TIP3   OH225313   7.759   3.017   4.730
 8479TIP3    H125314   7.840   3.036   4.777
 8479TIP3    H225315   7.691   3.026   4.797
 8480TIP3   OH225316   8.225   2.472   3.987
 8480TIP3    H125317   8.292   2.424   3.938
 8480TIP3    H225318   8.224   2.429   4.073
 8481TIP3   OH225319   7.716   1.937   3.876
 8481TIP3    H125320   7.687   1.863   3.930
 8481TIP3    H225321   7.735   1.899   3.791
 8482TIP3   OH225322   8.199   2.373   4.248
 8482TIP3    H125323   8.110   2.400   4.272
 8482TIP3    H225324   8.256   2.423   4.306
 8483TIP3   OH225325   7.934   2.727   3.362
 8483TIP3    H125326   7.859   2.673   3.337
 8483TIP3    H225327   7.907   2.770   3.443
 8484TIP3   OH225328   8.817   2.971   3.952
 8484TIP3    H125329   8.845   3.017   3.873
 8484TIP3    H225330   8.736   2.927   3.927
 8485TIP3   OH225331   8.398   2.041   3.280
 8485TIP3    H125332   8.305   2.019   3.275
 8485TIP3    H225333   8.400   2.136   3.291
 8486TIP3   OH225334   8.332   3.069   4.401
 8486TIP3    H125335   8.388   3.059   4.478
 8486TIP3    H225336   8.297   3.157   4.407
 8487TIP3   OH225337   8.452   2.305   3.349
 8487TIP3    H125338   8.546   2.311   3.362
 8487TIP3    H225339   8.430   2.380   3.294
 8488TIP3   OH225340   7.620   2.735   4.014
 8488TIP3    H125341   7.659   2.719   3.928
 8488TIP3    H225342   7.688   2.708   4.076
 8489TIP3   OH225343   8.094   2.887   3.207
 8489TIP3    H125344   8.045   2.969   3.201
 8489TIP3    H225345   8.037   2.828   3.255
 8490TIP3   OH225346   7.511   2.698   4.665
 8490TIP3    H125347   7.543   2.683   4.754
 8490TIP3    H225348   7.442   2.632   4.653
 8491TIP3   OH225349   8.262   2.820   4.655
 8491TIP3    H125350   8.212   2.802   4.575
 8491TIP3    H225351   8.343   2.771   4.644
 8492TIP3   OH225352   8.478   3.352   4.270
 8492TIP3    H125353   8.382   3.343   4.276
 8492TIP3    H225354   8.503   3.391   4.354
 8493TIP3   OH225355   8.848   2.401   3.173
 8493TIP3    H125356   8.797   2.358   3.104
 8493TIP3    H225357   8.896   2.470   3.128
 8494TIP3   OH225358   9.078   3.266   4.255
 8494TIP3    H125359   8.991   3.237   4.231
 8494TIP3    H225360   9.132   3.246   4.178
 8495TIP3   OH225361   8.580   2.846   3.861
 8495TIP3    H125362   8.492   2.827   3.895
 8495TIP3    H225363   8.610   2.763   3.824
 8496TIP3   OH225364   7.754   3.085   3.689
 8496TIP3    H125365   7.748   3.160   3.629
 8496TIP3    H225366   7.670   3.083   3.734
 8497TIP3   OH225367   7.315   2.369   3.405
 8497TIP3    H125368   7.355   2.453   3.427
 8497TIP3    H225369   7.232   2.370   3.453
 8498TIP3   OH225370   7.831   2.842   3.584
 8498TIP3    H125371   7.814   2.931   3.616
 8498TIP3    H225372   7.807   2.785   3.657
 8499TIP3   OH225373   8.034   3.408   4.140
 8499TIP3    H125374   8.067   3.484   4.092
 8499TIP3    H225375   8.109   3.379   4.193
 8500TIP3   OH225376   7.670   3.305   3.537
 8500TIP3    H125377   7.582   3.313   3.574
 8500TIP3    H225378   7.707   3.393   3.543
 8501TIP3   OH225379   8.377   3.065   4.128
 8501TIP3    H125380   8.356   3.065   4.221
 8501TIP3    H225381   8.467   3.032   4.124
 8502TIP3   OH225382   8.429   2.926   2.984
 8502TIP3    H125383   8.398   2.965   3.065
 8502TIP3    H225384   8.354   2.878   2.950
 8503TIP3   OH225385   8.624   3.564   4.153
 8503TIP3    H125386   8.556   3.498   4.169
 8503TIP3    H225387   8.591   3.613   4.077
 8504TIP3   OH225388   8.679   3.432   2.789
 8504TIP3    H125389   8.685   3.478   2.705
 8504TIP3    H225390   8.605   3.473   2.833
 8505TIP3   OH225391   7.730   2.175   4.660
 8505TIP3    H125392   7.634   2.167   4.660
 8505TIP3    H225393   7.758   2.120   4.733
 8506TIP3   OH225394   8.540   2.877   3.232
 8506TIP3    H125395   8.532   2.800   3.289
 8506TIP3    H225396   8.532   2.952   3.290
 8507TIP3   OH225397   7.463   3.311   4.300
 8507TIP3    H125398   7.518   3.256   4.356
 8507TIP3    H225399   7.475   3.399   4.335
 8508TIP3   OH225400   7.736   2.912   2.999
 8508TIP3    H125401   7.744   2.820   2.972
 8508TIP3    H225402   7.720   2.908   3.093
 8509TIP3   OH225403   7.672   2.929   3.270
 8509TIP3    H125404   7.727   2.903   3.344
 8509TIP3    H225405   7.671   3.025   3.273
 8510TIP3   OH225406   7.405   2.623   3.483
 8510TIP3    H125407   7.340   2.671   3.534
 8510TIP3    H225408   7.423   2.679   3.408
 8511TIP3   OH225409   8.547   2.250   4.350
 8511TIP3    H125410   8.623   2.300   4.379
 8511TIP3    H225411   8.543   2.175   4.409
 8512TIP3   OH225412   8.452   1.994   3.548
 8512TIP3    H125413   8.434   2.013   3.456
 8512TIP3    H225414   8.495   2.074   3.581
 8513TIP3   OH225415   7.947   3.114   3.200
 8513TIP3    H125416   7.864   3.134   3.243
 8513TIP3    H225417   7.966   3.191   3.147
 8514TIP3   OH225418   8.105   2.195   3.637
 8514TIP3    H125419   8.167   2.263   3.611
 8514TIP3    H225420   8.130   2.172   3.726
 8515TIP3   OH225421   8.395   2.489   4.408
 8515TIP3    H125422   8.425   2.531   4.488
 8515TIP3    H225423   8.444   2.407   4.404
 8516TIP3   OH225424   8.268   1.887   3.722
 8516TIP3    H125425   8.247   1.965   3.773
 8516TIP3    H225426   8.338   1.916   3.663
 8517TIP3   OH225427   7.698   3.201   3.285
 8517TIP3    H125428   7.678   3.273   3.225
 8517TIP3    H225429   7.686   3.239   3.372
 8518TIP3   OH225430   7.783   1.916   3.530
 8518TIP3    H125431   7.771   2.007   3.558
 8518TIP3    H225432   7.878   1.901   3.536
 8519TIP3   OH225433   8.999   2.421   4.383
 8519TIP3    H125434   8.905   2.408   4.390
 8519TIP3    H225435   9.022   2.384   4.298
 8520TIP3   OH225436   8.664   2.590   3.770
 8520TIP3    H125437   8.590   2.532   3.790
 8520TIP3    H225438   8.737   2.554   3.820
 8521TIP3   OH225439   7.428   2.794   3.263
 8521TIP3    H125440   7.499   2.858   3.270
 8521TIP3    H225441   7.459   2.731   3.197
 8522TIP3   OH225442   7.334   2.091   3.396
 8522TIP3    H125443   7.347   2.185   3.406
 8522TIP3    H225444   7.279   2.082   3.318
 8523TIP3   OH225445   8.634   3.557   3.706
 8523TIP3    H125446   8.588   3.608   3.640
 8523TIP3    H225447   8.725   3.584   3.699
 8524TIP3   OH225448   7.731   1.814   4.266
 8524TIP3    H125449   7.702   1.782   4.180
 8524TIP3    H225450   7.724   1.738   4.324
 8525TIP3   OH225451   7.253   3.068   3.655
 8525TIP3    H125452   7.214   3.106   3.734
 8525TIP3    H225453   7.208   3.112   3.583
 8526TIP3   OH225454   7.461   3.610   4.723
 8526TIP3    H125455   7.543   3.616   4.772
 8526TIP3    H225456   7.449   3.516   4.709
 8527TIP3   OH225457   7.924   3.508   4.772
 8527TIP3    H125458   8.016   3.483   4.780
 8527TIP3    H225459   7.891   3.455   4.699
 8528TIP3   OH225460   7.884   3.114   2.884
 8528TIP3    H125461   7.836   3.046   2.931
 8528TIP3    H225462   7.958   3.069   2.845
 8529TIP3   OH225463   8.532   3.451   4.518
 8529TIP3    H125464   8.543   3.382   4.583
 8529TIP3    H225465   8.602   3.513   4.537
 8530TIP3   OH225466   8.342   3.140   2.813
 8530TIP3    H125467   8.397   3.076   2.857
 8530TIP3    H225468   8.380   3.150   2.725
 8531TIP3   OH225469   7.556   3.008   4.922
 8531TIP3    H125470   7.563   2.916   4.948
 8531TIP3    H225471   7.471   3.014   4.878
 8532TIP3   OH225472   7.552   2.607   3.107
 8532TIP3    H125473   7.603   2.583   3.185
 8532TIP3    H225474   7.618   2.621   3.039
 8533TIP3   OH225475   8.186   3.091   4.694
 8533TIP3    H125476   8.140   3.112   4.612
 8533TIP3    H225477   8.226   3.006   4.678
 8534TIP3   OH225478   8.177   2.820   2.950
 8534TIP3    H125479   8.143   2.837   3.038
 8534TIP3    H225480   8.147   2.732   2.930
 8535TIP3   OH225481   8.632   3.120   4.296
 8535TIP3    H125482   8.710   3.143   4.246
 8535TIP3    H225483   8.575   3.196   4.288
 8536TIP3   OH225484   7.664   2.719   4.904
 8536TIP3    H125485   7.738   2.728   4.845
 8536TIP3    H225486   7.697   2.747   4.990
 8537TIP3   OH225487   7.725   2.550   3.320
 8537TIP3    H125488   7.703   2.521   3.408
 8537TIP3    H225489   7.773   2.476   3.281
 8538TIP3   OH225490   7.998   2.598   4.564
 8538TIP3    H125491   7.933   2.662   4.594
 8538TIP3    H225492   8.055   2.647   4.505
 8539TIP3   OH225493   7.868   2.365   3.167
 8539TIP3    H125494   7.836   2.371   3.076
 8539TIP3    H225495   7.963   2.368   3.159
 8540TIP3   OH225496   8.526   3.004   4.654
 8540TIP3    H125497   8.597   2.968   4.601
 8540TIP3    H225498   8.522   2.947   4.731
 8541TIP3   OH225499   8.648   2.752   2.875
 8541TIP3    H125500   8.616   2.699   2.802
 8541TIP3    H225501   8.725   2.797   2.839
 8542TIP3   OH225502   8.140   2.397   4.686
 8542TIP3    H125503   8.150   2.326   4.624
 8542TIP3    H225504   8.098   2.467   4.636
 8543TIP3   OH225505   8.153   2.203   4.481
 8543TIP3    H125506   8.183   2.236   4.396
 8543TIP3    H225507   8.063   2.174   4.466
 8544TIP3   OH225508   8.156   2.758   4.402
 8544TIP3    H125509   8.241   2.767   4.361
 8544TIP3    H225510   8.096   2.806   4.345
 8545TIP3   OH225511   8.740   2.688   4.741
 8545TIP3    H125512   8.795   2.609   4.741
 8545TIP3    H225513   8.802   2.760   4.741
 8546TIP3   OH225514   8.758   2.957   4.473
 8546TIP3    H125515   8.704   3.016   4.421
 8546TIP3    H225516   8.847   2.973   4.442
 8547TIP3   OH225517   8.023   2.476   4.930
 8547TIP3    H125518   7.959   2.407   4.945
 8547TIP3    H225519   8.057   2.459   4.842
 8548TIP3   OH225520   8.270   1.974   4.590
 8548TIP3    H125521   8.232   2.054   4.555
 8548TIP3    H225522   8.203   1.907   4.576
 8549TIP3   OH225523   8.396   2.441   4.791
 8549TIP3    H125524   8.387   2.427   4.885
 8549TIP3    H225525   8.310   2.420   4.755
 8550TIP3   OH225526   8.646   2.396   4.666
 8550TIP3    H125527   8.569   2.395   4.722
 8550TIP3    H225528   8.718   2.370   4.724
 8551TIP3   OH225529   8.885   2.354   4.809
 8551TIP3    H125530   8.892   2.259   4.821
 8551TIP3    H225531   8.877   2.388   4.898
 8552TIP3   OH225532   7.852   2.267   4.999
 8552TIP3    H125533   7.858   2.180   4.959
 8552TIP3    H225534   7.892   2.257   5.085
 8553TIP3   OH225535   8.336   1.946   4.854
 8553TIP3    H125536   8.403   1.878   4.849
 8553TIP3    H225537   8.307   1.959   4.764
 8554TIP3   OH225538   8.435   2.159   4.998
 8554TIP3    H125539   8.404   2.087   4.943
 8554TIP3    H225540   8.361   2.221   4.998
 8555TIP3   OH225541   7.695   3.410   3.104
 8555TIP3    H125542   7.784   3.392   3.073
 8555TIP3    H225543   7.653   3.456   3.030
 8556TIP3   OH225544   7.154   2.797   3.279
 8556TIP3    H125545   7.250   2.807   3.276
 8556TIP3    H225546   7.138   2.712   3.239
 8557TIP3   OH225547   7.059   3.375   3.743
 8557TIP3    H125548   6.993   3.322   3.699
 8557TIP3    H225549   7.104   3.313   3.802
 8558TIP3   OH225550   7.205   3.205   3.909
 8558TIP3    H125551   7.197   3.138   3.976
 8558TIP3    H225552   7.257   3.274   3.950
 8559TIP3   OH225553   8.895   3.634   3.711
 8559TIP3    H125554   8.903   3.652   3.804
 8559TIP3    H225555   8.961   3.690   3.669
 8560TIP3   OH225556   8.926   3.670   3.982
 8560TIP3    H125557   8.909   3.579   4.008
 8560TIP3    H225558   9.019   3.682   3.999
 8561TIP3   OH225559   8.948   3.354   4.568
 8561TIP3    H125560   8.880   3.361   4.635
 8561TIP3    H225561   8.984   3.442   4.561
 8562TIP3   OH225562   8.794   2.851   3.106
 8562TIP3    H125563   8.854   2.923   3.087
 8562TIP3    H225564   8.818   2.822   3.194
 8563TIP3   OH225565   8.880   2.748   3.343
 8563TIP3    H125566   8.830   2.693   3.404
 8563TIP3    H225567   8.959   2.772   3.392
 8564TIP3   OH225568   8.931   3.111   3.737
 8564TIP3    H125569   8.879   3.076   3.664
 8564TIP3    H225570   8.936   3.205   3.719
 8565TIP3   OH225571   8.808   3.408   4.006
 8565TIP3    H125572   8.745   3.458   4.058
 8565TIP3    H225573   8.759   3.375   3.932
 8566TIP3   OH225574   8.903   2.614   2.998
 8566TIP3    H125575   8.823   2.580   2.958
 8566TIP3    H225576   8.875   2.694   3.042
 8567TIP3   OH225577   8.703   2.307   2.955
 8567TIP3    H125578   8.654   2.317   2.874
 8567TIP3    H225579   8.698   2.214   2.975
 8568TIP3   OH225580   8.749   2.573   3.509
 8568TIP3    H125581   8.754   2.478   3.497
 8568TIP3    H225582   8.730   2.584   3.602
 8569TIP3   OH225583   7.376   2.617   4.307
 8569TIP3    H125584   7.369   2.600   4.213
 8569TIP3    H225585   7.470   2.622   4.323
 8570TIP3   OH225586   9.020   2.999   4.392
 8570TIP3    H125587   9.085   2.928   4.398
 8570TIP3    H225588   9.050   3.053   4.319
 8571TIP3   OH225589   9.201   2.797   4.445
 8571TIP3    H125590   9.127   2.748   4.483
 8571TIP3    H225591   9.272   2.733   4.440
 8572TIP3   OH225592   8.663   2.040   2.980
 8572TIP3    H125593   8.731   1.989   3.024
 8572TIP3    H225594   8.583   1.989   2.993
 8573TIP3   OH225595   8.735   2.307   3.408
 8573TIP3    H125596   8.777   2.223   3.425
 8573TIP3    H225597   8.777   2.340   3.329
 8574TIP3   OH225598   8.892   2.477   3.883
 8574TIP3    H125599   8.980   2.496   3.849
 8574TIP3    H225600   8.890   2.517   3.969
 8575TIP3   OH225601   8.894   2.603   4.124
 8575TIP3    H125602   8.838   2.641   4.192
 8575TIP3    H225603   8.983   2.628   4.150
 8576TIP3   OH225604   7.585   2.310   4.923
 8576TIP3    H125605   7.677   2.321   4.945
 8576TIP3    H225606   7.562   2.223   4.955
 8577TIP3   OH225607   8.847   2.064   3.477
 8577TIP3    H125608   8.897   2.045   3.557
 8577TIP3    H225609   8.790   1.988   3.466
 8578TIP3   OH225610   7.571   2.040   4.288
 8578TIP3    H125611   7.623   1.959   4.291
 8578TIP3    H225612   7.633   2.108   4.265
 8579TIP3   OH225613   7.346   2.321   4.344
 8579TIP3    H125614   7.401   2.295   4.270
 8579TIP3    H225615   7.356   2.416   4.349
 8580TIP3   OH225616   9.270   2.353   4.477
 8580TIP3    H125617   9.212   2.393   4.542
 8580TIP3    H225618   9.217   2.284   4.437
 8581TIP3   OH225619   8.912   1.923   3.039
 8581TIP3    H125620   8.996   1.879   3.053
 8581TIP3    H225621   8.910   1.940   2.945
 8582TIP3   OH225622   7.341   1.825   3.848
 8582TIP3    H125623   7.255   1.806   3.887
 8582TIP3    H225624   7.321   1.873   3.768
 8583TIP3   OH225625   8.496   3.509   3.351
 8583TIP3    H125626   8.554   3.512   3.275
 8583TIP3    H225627   8.519   3.586   3.402
 8584TIP3   OH225628   7.560   1.876   4.677
 8584TIP3    H125629   7.502   1.853   4.749
 8584TIP3    H225630   7.502   1.916   4.612
 8585TIP3   OH225631   7.589   3.327   4.736
 8585TIP3    H125632   7.496   3.306   4.731
 8585TIP3    H225633   7.610   3.328   4.829
 8586TIP3   OH225634   7.807   3.371   4.290
 8586TIP3    H125635   7.756   3.446   4.260
 8586TIP3    H225636   7.892   3.380   4.246
 8587TIP3   OH225637   8.200   3.604   4.429
 8587TIP3    H125638   8.236   3.598   4.518
 8587TIP3    H225639   8.265   3.655   4.380
 8588TIP3   OH225640   8.398   3.751   4.304
 8588TIP3    H125641   8.467   3.702   4.259
 8588TIP3    H225642   8.445   3.813   4.359
 8589TIP3   OH225643   9.132   2.129   4.385
 8589TIP3    H125644   9.051   2.144   4.337
 8589TIP3    H225645   9.171   2.052   4.343
 8590TIP3   OH225646   7.467   3.602   4.342
 8590TIP3    H125647   7.377   3.618   4.317
 8590TIP3    H225648   7.488   3.671   4.404
 8591TIP3   OH225649   7.697   3.602   4.188
 8591TIP3    H125650   7.614   3.606   4.237
 8591TIP3    H225651   7.673   3.628   4.099
 8592TIP3   OH225652   8.100   3.624   3.981
 8592TIP3    H125653   8.027   3.639   3.921
 8592TIP3    H225654   8.115   3.709   4.022
 8593TIP3   OH225655   8.354   3.531   4.016
 8593TIP3    H125656   8.265   3.564   4.004
 8593TIP3    H225657   8.410   3.600   3.980
 8594TIP3   OH225658   8.549   3.702   3.926
 8594TIP3    H125659   8.557   3.793   3.898
 8594TIP3    H225660   8.577   3.652   3.849
 8595TIP3   OH225661   7.376   3.387   4.047
 8595TIP3    H125662   7.401   3.366   4.137
 8595TIP3    H225663   7.449   3.355   3.994
 8596TIP3   OH225664   7.581   3.272   3.910
 8596TIP3    H125665   7.593   3.187   3.953
 8596TIP3    H225666   7.667   3.314   3.916
 8597TIP3   OH225667   7.848   3.356   3.939
 8597TIP3    H125668   7.869   3.264   3.925
 8597TIP3    H225669   7.903   3.382   4.013
 8598TIP3   OH225670   8.412   2.001   4.020
 8598TIP3    H125671   8.370   1.932   4.073
 8598TIP3    H225672   8.481   1.955   3.972
 8599TIP3   OH225673   8.917   1.928   3.920
 8599TIP3    H125674   8.949   1.986   3.851
 8599TIP3    H225675   8.824   1.949   3.927
 8600TIP3   OH225676   9.028   2.019   3.682
 8600TIP3    H125677   9.097   1.959   3.654
 8600TIP3    H225678   9.068   2.106   3.676
 8601TIP3   OH225679   7.644   1.713   4.024
 8601TIP3    H125680   7.555   1.678   4.033
 8601TIP3    H225681   7.699   1.636   4.014
 8602TIP3   OH225682   7.475   1.629   3.685
 8602TIP3    H125683   7.497   1.675   3.603
 8602TIP3    H225684   7.437   1.697   3.740
 8603TIP3   OH225685   8.124   1.753   3.921
 8603TIP3    H125686   8.174   1.796   3.852
 8603TIP3    H225687   8.167   1.779   4.002
 8604TIP3   OH225688   8.631   1.872   3.907
 8604TIP3    H125689   8.662   1.835   3.825
 8604TIP3    H225690   8.635   1.800   3.970
 8605TIP3   OH225691   8.673   1.847   3.465
 8605TIP3    H125692   8.592   1.890   3.492
 8605TIP3    H225693   8.667   1.758   3.501
 8606TIP3   OH225694   7.132   3.190   3.440
 8606TIP3    H125695   7.049   3.160   3.402
 8606TIP3    H225696   7.142   3.279   3.408
 8607TIP3   OH225697   7.576   1.747   3.438
 8607TIP3    H125698   7.621   1.684   3.383
 8607TIP3    H225699   7.645   1.803   3.473
 8608TIP3   OH225700   8.058   1.945   3.535
 8608TIP3    H125701   8.116   1.889   3.588
 8608TIP3    H225702   8.075   2.033   3.567
 8609TIP3   OH225703   7.949   3.337   3.029
 8609TIP3    H125704   8.032   3.364   2.989
 8609TIP3    H225705   7.917   3.268   2.971
 8610TIP3   OH225706   8.643   3.486   3.113
 8610TIP3    H125707   8.677   3.407   3.072
 8610TIP3    H225708   8.591   3.528   3.045
 8611TIP3   OH225709   7.872   2.000   4.903
 8611TIP3    H125710   7.839   1.933   4.964
 8611TIP3    H225711   7.965   2.008   4.925
 8612TIP3   OH225712   8.120   2.001   5.025
 8612TIP3    H125713   8.198   1.979   4.974
 8612TIP3    H225714   8.115   1.931   5.091
 8613TIP3   OH225715   7.254   3.181   3.087
 8613TIP3    H125716   7.255   3.197   3.181
 8613TIP3    H225717   7.335   3.133   3.070
 8614TIP3   OH225718   8.937   2.080   4.824
 8614TIP3    H125719   8.960   2.047   4.911
 8614TIP3    H225720   9.017   2.071   4.773
 8615TIP3   OH225721   8.826   3.630   4.331
 8615TIP3    H125722   8.755   3.601   4.274
 8615TIP3    H225723   8.821   3.726   4.329
 8616TIP3   OH225724   9.067   2.498   3.375
 8616TIP3    H125725   8.985   2.527   3.335
 8616TIP3    H225726   9.068   2.404   3.361
 8617TIP3   OH225727   9.137   2.751   3.469
 8617TIP3    H125728   9.125   2.658   3.450
 8617TIP3    H225729   9.205   2.779   3.407
 8618TIP3   OH225730   8.958   3.056   3.047
 8618TIP3    H125731   8.977   3.073   2.955
 8618TIP3    H225732   8.986   3.135   3.093
 8619TIP3   OH225733   9.192   3.066   3.826
 8619TIP3    H125734   9.107   3.094   3.793
 8619TIP3    H225735   9.188   3.082   3.921
 8620TIP3   OH225736   8.979   3.375   3.661
 8620TIP3    H125737   9.057   3.392   3.714
 8620TIP3    H225738   8.925   3.453   3.672
 8621TIP3   OH225739   9.187   3.536   3.145
 8621TIP3    H125740   9.243   3.507   3.217
 8621TIP3    H225741   9.150   3.455   3.109
 8622TIP3   OH225742   9.252   3.281   4.024
 8622TIP3    H125743   9.309   3.345   4.068
 8622TIP3    H225744   9.312   3.217   3.987
 8623TIP3   OH225745   9.131   2.266   3.626
 8623TIP3    H125746   9.139   2.359   3.646
 8623TIP3    H225747   9.119   2.263   3.531
 8624TIP3   OH225748   9.351   2.769   4.033
 8624TIP3    H125749   9.402   2.809   4.104
 8624TIP3    H225750   9.303   2.843   3.994
 8625TIP3   OH225751   9.070   2.707   2.796
 8625TIP3    H125752   9.160   2.680   2.810
 8625TIP3    H225753   9.022   2.669   2.870
 8626TIP3   OH225754   9.174   3.469   3.834
 8626TIP3    H125755   9.187   3.403   3.902
 8626TIP3    H225756   9.181   3.553   3.880
 8627TIP3   OH225757   9.015   3.306   3.143
 8627TIP3    H125758   8.997   3.354   3.224
 8627TIP3    H225759   8.974   3.359   3.075
 8628TIP3   OH225760   9.241   3.923   4.275
 8628TIP3    H125761   9.314   3.940   4.335
 8628TIP3    H225762   9.231   3.828   4.275
 8629TIP3   OH225763   9.458   3.162   4.300
 8629TIP3    H125764   9.386   3.179   4.361
 8629TIP3    H225765   9.426   3.193   4.216
 8630TIP3   OH225766   9.001   3.035   2.772
 8630TIP3    H125767   9.085   2.990   2.777
 8630TIP3    H225768   8.937   2.965   2.756
 8631TIP3   OH225769   8.846   3.636   3.220
 8631TIP3    H125770   8.780   3.587   3.172
 8631TIP3    H225771   8.888   3.571   3.277
 8632TIP3   OH225772   8.971   3.451   3.383
 8632TIP3    H125773   8.960   3.398   3.462
 8632TIP3    H225774   9.027   3.523   3.410
 8633TIP3   OH225775   9.160   2.806   3.742
 8633TIP3    H125776   9.148   2.798   3.647
 8633TIP3    H225777   9.184   2.898   3.755
 8634TIP3   OH225778   9.378   2.598   4.417
 8634TIP3    H125779   9.469   2.602   4.447
 8634TIP3    H225780   9.350   2.509   4.439
 8635TIP3   OH225781   9.155   2.533   3.797
 8635TIP3    H125782   9.243   2.519   3.833
 8635TIP3    H225783   9.152   2.626   3.777
 8636TIP3   OH225784   9.053   2.212   3.360
 8636TIP3    H125785   8.983   2.156   3.396
 8636TIP3    H225786   9.077   2.170   3.278
 8637TIP3   OH225787   9.442   3.437   4.135
 8637TIP3    H125788   9.432   3.525   4.098
 8637TIP3    H225789   9.449   3.452   4.229
 8638TIP3   OH225790   9.164   3.794   3.709
 8638TIP3    H125791   9.094   3.851   3.741
 8638TIP3    H225792   9.243   3.826   3.752
 8639TIP3   OH225793   9.469   3.742   3.612
 8639TIP3    H125794   9.459   3.784   3.698
 8639TIP3    H225795   9.479   3.816   3.551
 8640TIP3   OH225796   9.138   3.648   3.488
 8640TIP3    H125797   9.146   3.701   3.568
 8640TIP3    H225798   9.205   3.581   3.497
 8641TIP3   OH225799   9.346   3.440   3.352
 8641TIP3    H125800   9.338   3.431   3.447
 8641TIP3    H225801   9.414   3.506   3.340
 8642TIP3   OH225802   8.913   3.447   2.932
 8642TIP3    H125803   8.834   3.424   2.882
 8642TIP3    H225804   8.935   3.535   2.903
 8643TIP3   OH225805   9.005   3.456   2.594
 8643TIP3    H125806   8.992   3.484   2.685
 8643TIP3    H225807   9.005   3.360   2.598
 8644TIP3   OH225808   0.804   3.540   5.258
 8644TIP3    H125809   0.767   3.626   5.238
 8644TIP3    H225810   0.733   3.479   5.238
 8645TIP3   OH225811   0.811   3.524   5.681
 8645TIP3    H125812   0.858   3.509   5.763
 8645TIP3    H225813   0.767   3.441   5.664
 8646TIP3   OH225814   0.195   3.414   6.082
 8646TIP3    H125815   0.211   3.354   6.155
 8646TIP3    H225816   0.266   3.477   6.087
 8647TIP3   OH225817   1.068   3.843   5.361
 8647TIP3    H125818   1.054   3.774   5.426
 8647TIP3    H225819   1.088   3.921   5.412
 8648TIP3   OH225820   9.778   3.773   5.589
 8648TIP3    H125821   9.710   3.725   5.636
 8648TIP3    H225822   9.859   3.726   5.609
 8649TIP3   OH225823   9.413   3.110   5.465
 8649TIP3    H125824   9.390   3.167   5.538
 8649TIP3    H225825   9.477   3.049   5.500
 8650TIP3   OH225826   9.689   3.342   5.738
 8650TIP3    H125827   9.744   3.264   5.748
 8650TIP3    H225828   9.697   3.365   5.645
 8651TIP3   OH225829   0.729   4.262   5.376
 8651TIP3    H125830   0.747   4.199   5.306
 8651TIP3    H225831   0.742   4.212   5.456
 8652TIP3   OH225832   0.641   3.747   5.683
 8652TIP3    H125833   0.686   3.666   5.659
 8652TIP3    H225834   0.711   3.803   5.718
 8653TIP3   OH225835   1.645   3.071   5.708
 8653TIP3    H125836   1.658   3.157   5.749
 8653TIP3    H225837   1.677   3.082   5.619
 8654TIP3   OH225838   1.016   3.243   5.729
 8654TIP3    H125839   1.044   3.156   5.758
 8654TIP3    H225840   0.982   3.229   5.641
 8655TIP3   OH225841   0.383   2.908   5.681
 8655TIP3    H125842   0.365   2.980   5.621
 8655TIP3    H225843   0.333   2.834   5.646
 8656TIP3   OH225844   1.065   3.000   5.323
 8656TIP3    H125845   1.128   2.994   5.394
 8656TIP3    H225846   1.115   3.035   5.249
 8657TIP3   OH225847   0.032   3.112   5.743
 8657TIP3    H125848   0.096   3.080   5.807
 8657TIP3    H225849   0.041   3.053   5.669
 8658TIP3   OH225850   0.446   3.321   5.593
 8658TIP3    H125851   0.539   3.303   5.607
 8658TIP3    H225852   0.410   3.238   5.563
 8659TIP3   OH225853   1.692   3.293   5.872
 8659TIP3    H125854   1.605   3.332   5.865
 8659TIP3    H225855   1.728   3.331   5.953
 8660TIP3   OH225856   0.371   2.898   6.135
 8660TIP3    H125857   0.319   2.945   6.071
 8660TIP3    H225858   0.334   2.923   6.220
 8661TIP3   OH225859   0.665   3.746   5.142
 8661TIP3    H125860   0.648   3.731   5.049
 8661TIP3    H225861   0.620   3.828   5.161
 8662TIP3   OH225862   0.484   3.662   5.892
 8662TIP3    H125863   0.437   3.732   5.938
 8662TIP3    H225864   0.525   3.705   5.818
 8663TIP3   OH225865   1.219   3.023   5.547
 8663TIP3    H125866   1.174   3.003   5.630
 8663TIP3    H225867   1.275   3.098   5.568
 8664TIP3   OH225868   0.256   3.012   5.904
 8664TIP3    H125869   0.308   3.087   5.935
 8664TIP3    H225870   0.307   2.975   5.832
 8665TIP3   OH225871   0.333   3.848   6.039
 8665TIP3    H125872   0.292   3.871   5.956
 8665TIP3    H225873   0.260   3.844   6.101
 8666TIP3   OH225874   9.516   3.499   5.281
 8666TIP3    H125875   9.450   3.514   5.214
 8666TIP3    H225876   9.561   3.583   5.290
 8667TIP3   OH225877   1.101   4.088   5.508
 8667TIP3    H125878   1.011   4.079   5.540
 8667TIP3    H225879   1.101   4.170   5.459
 8668TIP3   OH225880   1.447   2.957   5.875
 8668TIP3    H125881   1.362   2.982   5.839
 8668TIP3    H225882   1.511   2.985   5.810
 8669TIP3   OH225883   0.696   2.596   5.866
 8669TIP3    H125884   0.687   2.504   5.888
 8669TIP3    H225885   0.621   2.639   5.908
 8670TIP3   OH225886   0.798   4.113   5.150
 8670TIP3    H125887   0.851   4.034   5.141
 8670TIP3    H225888   0.857   4.184   5.125
 8671TIP3   OH225889   0.959   3.898   5.112
 8671TIP3    H125890   0.961   3.818   5.060
 8671TIP3    H225891   1.000   3.874   5.195
 8672TIP3   OH225892   1.354   3.966   5.844
 8672TIP3    H125893   1.329   3.896   5.784
 8672TIP3    H225894   1.337   4.047   5.794
 8673TIP3   OH225895   0.630   3.374   5.113
 8673TIP3    H125896   0.553   3.428   5.096
 8673TIP3    H225897   0.677   3.373   5.030
 8674TIP3   OH225898   0.588   3.187   4.795
 8674TIP3    H125899   0.650   3.236   4.848
 8674TIP3    H225900   0.640   3.119   4.752
 8675TIP3   OH225901   1.513   3.638   5.710
 8675TIP3    H125902   1.428   3.682   5.706
 8675TIP3    H225903   1.550   3.649   5.622
 8676TIP3   OH225904   0.984   3.467   5.067
 8676TIP3    H125905   0.930   3.495   5.141
 8676TIP3    H225906   1.067   3.441   5.107
 8677TIP3   OH225907   1.214   3.495   6.025
 8677TIP3    H125908   1.207   3.578   6.072
 8677TIP3    H225909   1.132   3.489   5.975
 8678TIP3   OH225910   0.218   3.434   5.491
 8678TIP3    H125911   0.199   3.375   5.418
 8678TIP3    H225912   0.300   3.401   5.527
 8679TIP3   OH225913   0.403   3.867   5.619
 8679TIP3    H125914   0.374   3.850   5.529
 8679TIP3    H225915   0.488   3.824   5.627
 8680TIP3   OH225916   0.400   3.404   5.852
 8680TIP3    H125917   0.415   3.384   5.760
 8680TIP3    H225918   0.427   3.495   5.862
 8681TIP3   OH225919   0.853   4.076   5.624
 8681TIP3    H125920   0.851   4.158   5.675
 8681TIP3    H225921   0.847   4.007   5.691
 8682TIP3   OH225922   0.527   3.980   6.182
 8682TIP3    H125923   0.475   4.045   6.230
 8682TIP3    H225924   0.463   3.932   6.130
 8683TIP3   OH225925   0.813   3.326   4.902
 8683TIP3    H125926   0.874   3.384   4.948
 8683TIP3    H225927   0.843   3.327   4.811
 8684TIP3   OH225928   0.362   3.599   6.196
 8684TIP3    H125929   0.376   3.687   6.162
 8684TIP3    H225930   0.303   3.610   6.270
 8685TIP3   OH225931   0.544   3.997   5.168
 8685TIP3    H125932   0.630   4.039   5.175
 8685TIP3    H225933   0.500   4.045   5.097
 8686TIP3   OH225934   0.347   4.176   6.256
 8686TIP3    H125935   0.322   4.185   6.164
 8686TIP3    H225936   0.270   4.136   6.298
 8687TIP3   OH225937   1.323   2.555   4.967
 8687TIP3    H125938   1.248   2.577   5.021
 8687TIP3    H225939   1.333   2.631   4.909
 8688TIP3   OH225940   0.120   3.291   5.273
 8688TIP3    H125941   0.054   3.336   5.219
 8688TIP3    H225942   0.074   3.214   5.306
 8689TIP3   OH225943   1.149   3.927   4.522
 8689TIP3    H125944   1.144   4.020   4.499
 8689TIP3    H225945   1.239   3.903   4.499
 8690TIP3   OH225946   9.694   3.705   6.237
 8690TIP3    H125947   9.631   3.719   6.167
 8690TIP3    H225948   9.653   3.639   6.293
 8691TIP3   OH225949   1.582   4.366   5.909
 8691TIP3    H125950   1.591   4.270   5.911
 8691TIP3    H225951   1.502   4.384   5.957
 8692TIP3   OH225952   0.701   4.126   6.034
 8692TIP3    H125953   0.693   4.217   6.062
 8692TIP3    H225954   0.638   4.078   6.089
 8693TIP3   OH225955   0.448   4.197   4.983
 8693TIP3    H125956   0.375   4.214   4.923
 8693TIP3    H225957   0.424   4.243   5.063
 8694TIP3   OH225958   0.024   3.968   5.406
 8694TIP3    H125959   0.053   4.033   5.470
 8694TIP3    H225960   0.000   3.891   5.459
 8695TIP3   OH225961   0.662   4.152   4.614
 8695TIP3    H125962   0.712   4.076   4.584
 8695TIP3    H225963   0.692   4.166   4.704
 8696TIP3   OH225964   0.703   4.194   4.885
 8696TIP3    H125965   0.614   4.197   4.918
 8696TIP3    H225966   0.754   4.157   4.957
 8697TIP3   OH225967   1.457   3.456   6.182
 8697TIP3    H125968   1.373   3.464   6.136
 8697TIP3    H225969   1.477   3.362   6.180
 8698TIP3   OH225970   0.132   3.839   6.217
 8698TIP3    H125971   0.187   3.837   6.295
 8698TIP3    H225972   0.060   3.778   6.237
 8699TIP3   OH225973   0.465   2.678   6.000
 8699TIP3    H125974   0.382   2.649   5.960
 8699TIP3    H225975   0.443   2.762   6.042
 8700TIP3   OH225976   0.997   2.804   6.197
 8700TIP3    H125977   1.067   2.783   6.259
 8700TIP3    H225978   0.916   2.790   6.247
 8701TIP3   OH225979   1.214   3.228   6.110
 8701TIP3    H125980   1.175   3.221   6.197
 8701TIP3    H225981   1.199   3.318   6.083
 8702TIP3   OH225982   0.892   3.294   4.639
 8702TIP3    H125983   0.847   3.303   4.555
 8702TIP3    H225984   0.975   3.341   4.628
 8703TIP3   OH225985   0.597   2.732   4.962
 8703TIP3    H125986   0.565   2.737   5.052
 8703TIP3    H225987   0.560   2.651   4.928
 8704TIP3   OH225988   0.412   3.201   6.030
 8704TIP3    H125989   0.389   3.232   6.118
 8704TIP3    H225990   0.401   3.278   5.974
 8705TIP3   OH225991   0.306   3.103   5.505
 8705TIP3    H125992   0.213   3.085   5.520
 8705TIP3    H225993   0.324   3.065   5.419
 8706TIP3   OH225994   0.759   3.178   5.253
 8706TIP3    H125995   0.708   3.248   5.213
 8706TIP3    H225996   0.815   3.145   5.183
 8707TIP3   OH225997   0.951   3.433   6.317
 8707TIP3    H125998   0.923   3.368   6.381
 8707TIP3    H225999   1.043   3.450   6.339
 8708TIP3   OH226000   0.923   3.187   5.477
 8708TIP3    H126001   0.856   3.209   5.413
 8708TIP3    H226002   0.969   3.113   5.438
 8709TIP3   OH226003   0.259   3.247   6.285
 8709TIP3    H126004   0.194   3.282   6.346
 8709TIP3    H226005   0.269   3.156   6.311
 8710TIP3   OH226006   0.261   2.723   4.939
 8710TIP3    H126007   0.252   2.730   5.034
 8710TIP3    H226008   0.194   2.781   4.904
 8711TIP3   OH226009   9.777   2.805   5.722
 8711TIP3    H126010   9.804   2.794   5.813
 8711TIP3    H226011   9.769   2.715   5.689
 8712TIP3   OH226012   9.655   2.911   5.330
 8712TIP3    H126013   9.719   2.888   5.262
 8712TIP3    H226014   9.572   2.921   5.282
 8713TIP3   OH226015   0.966   3.443   5.905
 8713TIP3    H126016   0.990   3.375   5.842
 8713TIP3    H226017   0.913   3.398   5.970
 8714TIP3   OH226018   0.645   2.885   5.572
 8714TIP3    H126019   0.566   2.892   5.627
 8714TIP3    H226020   0.717   2.877   5.634
 8715TIP3   OH226021   0.069   2.968   5.507
 8715TIP3    H126022  -0.012   2.949   5.459
 8715TIP3    H226023   0.101   2.882   5.534
 8716TIP3   OH226024   0.310   2.968   5.269
 8716TIP3    H126025   0.402   2.983   5.250
 8716TIP3    H226026   0.264   2.995   5.189
 8717TIP3   OH226027   1.073   2.977   5.782
 8717TIP3    H126028   1.057   2.993   5.875
 8717TIP3    H226029   1.004   2.916   5.756
 8718TIP3   OH226030   0.159   3.008   5.049
 8718TIP3    H126031   0.073   2.972   5.029
 8718TIP3    H226032   0.193   3.038   4.964
 8719TIP3   OH226033   1.287   4.683   6.003
 8719TIP3    H126034   1.282   4.697   5.909
 8719TIP3    H226035   1.366   4.730   6.030
 8720TIP3   OH226036   0.315   3.820   6.413
 8720TIP3    H126037   0.373   3.846   6.484
 8720TIP3    H226038   0.274   3.739   6.443
 8721TIP3   OH226039   0.703   3.257   5.671
 8721TIP3    H126040   0.772   3.208   5.626
 8721TIP3    H226041   0.698   3.217   5.758
 8722TIP3   OH226042   0.223   2.719   5.552
 8722TIP3    H126043   0.188   2.645   5.602
 8722TIP3    H226044   0.253   2.680   5.470
 8723TIP3   OH226045   0.672   3.159   5.934
 8723TIP3    H126046   0.586   3.186   5.965
 8723TIP3    H226047   0.734   3.209   5.988
 8724TIP3   OH226048   0.407   3.529   5.057
 8724TIP3    H126049   0.340   3.464   5.032
 8724TIP3    H226050   0.380   3.558   5.144
 8725TIP3   OH226051   1.278   3.774   5.662
 8725TIP3    H126052   1.315   3.821   5.588
 8725TIP3    H226053   1.200   3.731   5.627
 8726TIP3   OH226054   0.851   2.832   4.970
 8726TIP3    H126055   0.758   2.813   4.964
 8726TIP3    H226056   0.855   2.927   4.981
 8727TIP3   OH226057   0.814   3.841   6.087
 8727TIP3    H126058   0.864   3.827   6.167
 8727TIP3    H226059   0.766   3.922   6.102
 8728TIP3   OH226060   0.913   3.097   5.034
 8728TIP3    H126061   1.008   3.101   5.044
 8728TIP3    H226062   0.891   3.174   4.981
 8729TIP3   OH226063   0.152   3.598   5.711
 8729TIP3    H126064   0.174   3.533   5.645
 8729TIP3    H226065   0.143   3.548   5.792
 8730TIP3   OH226066   0.566   3.670   4.881
 8730TIP3    H126067   0.526   3.756   4.875
 8730TIP3    H226068   0.508   3.621   4.939
 8731TIP3   OH226069   9.764   3.412   6.368
 8731TIP3    H126070   9.726   3.436   6.453
 8731TIP3    H226071   9.703   3.349   6.332
 8732TIP3   OH226072   0.721   3.586   6.356
 8732TIP3    H126073   0.655   3.528   6.318
 8732TIP3    H226074   0.805   3.548   6.328
 8733TIP3   OH226075   0.966   4.145   5.960
 8733TIP3    H126076   0.872   4.128   5.964
 8733TIP3    H226077   0.988   4.178   6.047
 8734TIP3   OH226078   1.320   3.184   4.850
 8734TIP3    H126079   1.263   3.139   4.787
 8734TIP3    H226080   1.327   3.273   4.816
 8735TIP3   OH226081   1.594   4.089   5.923
 8735TIP3    H126082   1.503   4.059   5.933
 8735TIP3    H226083   1.624   4.049   5.842
 8736TIP3   OH226084   1.064   4.002   4.781
 8736TIP3    H126085   1.046   3.929   4.840
 8736TIP3    H226086   1.091   3.961   4.699
 8737TIP3   OH226087   1.053   3.636   5.558
 8737TIP3    H126088   0.965   3.613   5.588
 8737TIP3    H226089   1.087   3.556   5.519
 8738TIP3   OH226090   0.288   3.868   5.372
 8738TIP3    H126091   0.330   3.924   5.307
 8738TIP3    H226092   0.200   3.904   5.381
 8739TIP3   OH226093   9.583   3.167   5.027
 8739TIP3    H126094   9.634   3.248   5.033
 8739TIP3    H226095   9.496   3.191   5.059
 8740TIP3   OH226096   0.301   3.609   5.290
 8740TIP3    H126097   0.300   3.699   5.321
 8740TIP3    H226098   0.271   3.558   5.365
 8741TIP3   OH226099   0.526   4.197   5.833
 8741TIP3    H126100   0.561   4.274   5.788
 8741TIP3    H226101   0.599   4.164   5.886
 8742TIP3   OH226102   0.203   4.082   5.206
 8742TIP3    H126103   0.144   4.109   5.276
 8742TIP3    H226104   0.270   4.151   5.203
 8743TIP3   OH226105   0.858   3.863   5.812
 8743TIP3    H126106   0.840   3.856   5.906
 8743TIP3    H226107   0.945   3.825   5.802
 8744TIP3   OH226108   0.834   3.735   4.696
 8744TIP3    H126109   0.891   3.722   4.772
 8744TIP3    H226110   0.748   3.707   4.725
 8745TIP3   OH226111   1.103   4.366   5.852
 8745TIP3    H126112   1.036   4.300   5.867
 8745TIP3    H226113   1.073   4.415   5.775
 8746TIP3   OH226114   1.143   4.199   4.476
 8746TIP3    H126115   1.162   4.260   4.405
 8746TIP3    H226116   1.073   4.242   4.526
 8747TIP3   OH226117   0.258   2.983   6.372
 8747TIP3    H126118   0.163   2.985   6.359
 8747TIP3    H226119   0.271   2.921   6.443
 8748TIP3   OH226120   1.013   3.688   4.902
 8748TIP3    H126121   0.996   3.612   4.957
 8748TIP3    H226122   1.107   3.684   4.884
 8749TIP3   OH226123   9.675   4.080   5.949
 8749TIP3    H126124   9.599   4.029   5.978
 8749TIP3    H226125   9.742   4.062   6.015
 8750TIP3   OH226126   0.209   3.690   4.669
 8750TIP3    H126127   0.229   3.599   4.648
 8750TIP3    H226128   0.211   3.694   4.765
 8751TIP3   OH226129   0.213   3.714   4.936
 8751TIP3    H126130   0.265   3.683   5.010
 8751TIP3    H226131   0.196   3.806   4.956
 8752TIP3   OH226132   9.710   3.394   5.120
 8752TIP3    H126133   9.644   3.420   5.184
 8752TIP3    H226134   9.727   3.473   5.069
 8753TIP3   OH226135   1.027   3.033   6.046
 8753TIP3    H126136   1.104   3.079   6.078
 8753TIP3    H226137   1.019   2.957   6.104
 8754TIP3   OH226138   0.916   2.782   5.236
 8754TIP3    H126139   0.893   2.801   5.145
 8754TIP3    H226140   0.959   2.861   5.267
 8755TIP3   OH226141   0.456   3.916   4.869
 8755TIP3    H126142   0.365   3.929   4.897
 8755TIP3    H226143   0.482   4.001   4.835
 8756TIP3   OH226144   0.585   2.976   5.317
 8756TIP3    H126145   0.644   3.048   5.295
 8756TIP3    H226146   0.605   2.957   5.409
 8757TIP3   OH226147   0.868   3.267   6.098
 8757TIP3    H126148   0.896   3.314   6.176
 8757TIP3    H226149   0.921   3.187   6.098
 8758TIP3   OH226150   0.732   2.673   5.410
 8758TIP3    H126151   0.708   2.751   5.461
 8758TIP3    H226152   0.801   2.704   5.352
 8759TIP3   OH226153   0.203   3.989   4.951
 8759TIP3    H126154   0.183   4.069   4.902
 8759TIP3    H226155   0.199   4.017   5.043
 8760TIP3   OH226156   0.247   2.701   5.224
 8760TIP3    H126157   0.241   2.793   5.251
 8760TIP3    H226158   0.341   2.683   5.222
 8761TIP3   OH226159   1.481   3.182   6.092
 8761TIP3    H126160   1.386   3.187   6.102
 8761TIP3    H226161   1.494   3.131   6.012
 8762TIP3   OH226162   1.144   3.378   5.471
 8762TIP3    H126163   1.067   3.322   5.482
 8762TIP3    H226164   1.210   3.339   5.528
 8763TIP3   OH226165   9.746   3.630   4.991
 8763TIP3    H126166   9.786   3.704   5.038
 8763TIP3    H226167   9.812   3.604   4.927
 8764TIP3   OH226168   9.712   2.862   5.066
 8764TIP3    H126169   9.622   2.893   5.077
 8764TIP3    H226170   9.704   2.779   5.020
 8765TIP3   OH226171   1.123   4.350   5.414
 8765TIP3    H126172   1.081   4.404   5.347
 8765TIP3    H226173   1.217   4.362   5.399
 8766TIP3   OH226174   0.206   2.607   5.933
 8766TIP3    H126175   0.182   2.577   5.845
 8766TIP3    H226176   0.187   2.532   5.990
 8767TIP3   OH226177   9.592   3.763   5.278
 8767TIP3    H126178   9.533   3.782   5.351
 8767TIP3    H226179   9.545   3.791   5.200
 8768TIP3   OH226180   0.411   4.327   6.480
 8768TIP3    H126181   0.500   4.298   6.502
 8768TIP3    H226182   0.390   4.279   6.400
 8769TIP3   OH226183   0.353   3.899   4.570
 8769TIP3    H126184   0.305   3.829   4.613
 8769TIP3    H226185   0.431   3.857   4.534
 8770TIP3   OH226186   1.019   4.234   6.213
 8770TIP3    H126187   1.030   4.165   6.279
 8770TIP3    H226188   1.090   4.295   6.229
 8771TIP3   OH226189   0.788   3.934   4.508
 8771TIP3    H126190   0.821   3.872   4.572
 8771TIP3    H226191   0.849   3.928   4.434
 8772TIP3   OH226192   0.065   3.764   6.625
 8772TIP3    H126193   0.063   3.675   6.589
 8772TIP3    H226194   0.008   3.814   6.567
 8773TIP3   OH226195   0.059   3.436   4.818
 8773TIP3    H126196   0.102   3.401   4.896
 8773TIP3    H226197   0.126   3.430   4.749
 8774TIP3   OH226198   0.668   3.859   6.385
 8774TIP3    H126199   0.617   3.881   6.307
 8774TIP3    H226200   0.696   3.768   6.370
 8775TIP3   OH226201   0.549   3.608   4.613
 8775TIP3    H126202   0.545   3.617   4.708
 8775TIP3    H226203   0.538   3.515   4.597
 8776TIP3   OH226204   1.120   3.913   5.985
 8776TIP3    H126205   1.200   3.941   5.941
 8776TIP3    H226206   1.060   3.987   5.974
 8777TIP3   OH226207   0.254   3.421   6.603
 8777TIP3    H126208   0.343   3.386   6.596
 8777TIP3    H226209   0.256   3.478   6.680
 8778TIP3   OH226210   0.223   3.330   5.016
 8778TIP3    H126211   0.201   3.298   5.104
 8778TIP3    H226212   0.254   3.252   4.970
 8779TIP3   OH226213   0.552   3.404   6.222
 8779TIP3    H126214   0.477   3.463   6.221
 8779TIP3    H226215   0.604   3.430   6.146
 8780TIP3   OH226216   0.318   3.130   4.851
 8780TIP3    H126217   0.289   3.135   4.760
 8780TIP3    H226218   0.412   3.144   4.847
 8781TIP3   OH226219   0.993   3.791   6.335
 8781TIP3    H126220   1.067   3.757   6.285
 8781TIP3    H226221   0.991   3.737   6.414
 8782TIP3   OH226222   1.107   3.440   4.543
 8782TIP3    H126223   1.097   3.400   4.457
 8782TIP3    H226224   1.082   3.531   4.531
 8783TIP3   OH226225   0.622   3.177   6.355
 8783TIP3    H126226   0.628   3.104   6.294
 8783TIP3    H226227   0.597   3.252   6.301
 8784TIP3   OH226228   0.633   2.979   6.155
 8784TIP3    H126229   0.660   3.020   6.074
 8784TIP3    H226230   0.540   2.958   6.142
 8785TIP3   OH226231   0.685   3.526   6.020
 8785TIP3    H126232   0.758   3.587   6.017
 8785TIP3    H226233   0.614   3.570   5.974
 8786TIP3   OH226234   1.214   3.473   6.421
 8786TIP3    H126235   1.262   3.391   6.432
 8786TIP3    H226236   1.282   3.540   6.413
 8787TIP3   OH226237   1.227   3.741   6.164
 8787TIP3    H126238   1.176   3.801   6.110
 8787TIP3    H226239   1.317   3.753   6.134
 8788TIP3   OH226240   0.493   3.285   6.575
 8788TIP3    H126241   0.445   3.208   6.607
 8788TIP3    H226242   0.532   3.256   6.492
 8789TIP3   OH226243   0.732   2.752   6.279
 8789TIP3    H126244   0.698   2.831   6.237
 8789TIP3    H226245   0.664   2.687   6.265
 8790TIP3   OH226246   0.864   3.228   6.479
 8790TIP3    H126247   0.847   3.221   6.573
 8790TIP3    H226248   0.781   3.204   6.438
 8791TIP3   OH226249   1.104   3.173   6.349
 8791TIP3    H126250   1.026   3.179   6.404
 8791TIP3    H226251   1.176   3.157   6.410
 8792TIP3   OH226252   1.336   3.151   6.502
 8792TIP3    H126253   1.351   3.057   6.510
 8792TIP3    H226254   1.331   3.182   6.593
 8793TIP3   OH226255   0.364   3.080   6.700
 8793TIP3    H126256   0.351   3.001   6.648
 8793TIP3    H226257   0.400   3.049   6.783
 8794TIP3   OH226258   0.797   2.736   6.543
 8794TIP3    H126259   0.868   2.673   6.536
 8794TIP3    H226260   0.766   2.748   6.454
 8795TIP3   OH226261   0.879   2.956   6.691
 8795TIP3    H126262   0.851   2.885   6.634
 8795TIP3    H226263   0.808   3.020   6.688
 8796TIP3   OH226264   0.195   4.239   4.833
 8796TIP3    H126265   0.252   4.217   4.760
 8796TIP3    H226266   0.107   4.244   4.795
 8797TIP3   OH226267   9.364   3.570   5.069
 8797TIP3    H126268   9.384   3.655   5.029
 8797TIP3    H226269   9.271   3.557   5.053
 8798TIP3   OH226270   1.394   4.400   5.407
 8798TIP3    H126271   1.413   4.432   5.495
 8798TIP3    H226272   1.454   4.448   5.350
 8799TIP3   OH226273   1.409   4.437   5.688
 8799TIP3    H126274   1.364   4.352   5.686
 8799TIP3    H226275   1.481   4.425   5.749
 8800TIP3   OH226276   1.469   4.133   6.262
 8800TIP3    H126277   1.400   4.142   6.327
 8800TIP3    H226278   1.516   4.217   6.265
 8801TIP3   OH226279   1.287   3.656   4.868
 8801TIP3    H126280   1.344   3.725   4.836
 8801TIP3    H226281   1.335   3.616   4.940
 8802TIP3   OH226282   1.414   3.507   5.065
 8802TIP3    H126283   1.347   3.470   5.122
 8802TIP3    H226284   1.480   3.541   5.125
 8803TIP3   OH226285   1.468   3.908   5.505
 8803TIP3    H126286   1.518   3.840   5.461
 8803TIP3    H226287   1.468   3.982   5.444
 8804TIP3   OH226288   1.272   4.192   5.704
 8804TIP3    H126289   1.205   4.238   5.755
 8804TIP3    H226290   1.224   4.152   5.632
 8805TIP3   OH226291   1.317   3.425   4.719
 8805TIP3    H126292   1.245   3.426   4.656
 8805TIP3    H226293   1.306   3.505   4.770
 8806TIP3   OH226294   1.165   3.068   4.654
 8806TIP3    H126295   1.119   3.103   4.578
 8806TIP3    H226296   1.163   2.973   4.642
 8807TIP3   OH226297   1.209   3.370   5.201
 8807TIP3    H126298   1.216   3.276   5.188
 8807TIP3    H226299   1.192   3.381   5.295
 8808TIP3   OH226300   9.614   3.422   5.983
 8808TIP3    H126301   9.622   3.394   5.892
 8808TIP3    H226302   9.663   3.505   5.987
 8809TIP3   OH226303   1.480   3.784   6.059
 8809TIP3    H126304   1.550   3.721   6.040
 8809TIP3    H226305   1.469   3.833   5.977
 8810TIP3   OH226306   1.667   3.576   6.055
 8810TIP3    H126307   1.594   3.536   6.101
 8810TIP3    H226308   1.742   3.521   6.077
 8811TIP3   OH226309   1.138   2.794   4.616
 8811TIP3    H126310   1.202   2.772   4.684
 8811TIP3    H226311   1.055   2.761   4.651
 8812TIP3   OH226312   1.203   3.092   5.091
 8812TIP3    H126313   1.250   3.010   5.104
 8812TIP3    H226314   1.243   3.131   5.013
 8813TIP3   OH226315   1.357   3.257   5.617
 8813TIP3    H126316   1.437   3.275   5.567
 8813TIP3    H226317   1.371   3.297   5.702
 8814TIP3   OH226318   1.432   3.408   5.843
 8814TIP3    H126319   1.360   3.436   5.900
 8814TIP3    H226320   1.462   3.488   5.800
 8815TIP3   OH226321   0.078   3.096   6.625
 8815TIP3    H126322   0.155   3.135   6.585
 8815TIP3    H226323   0.103   3.082   6.716
 8816TIP3   OH226324   1.892   3.003   6.380
 8816TIP3    H126325   1.960   2.948   6.341
 8816TIP3    H226326   1.856   3.053   6.307
 8817TIP3   OH226327   1.321   2.845   5.145
 8817TIP3    H126328   1.369   2.830   5.226
 8817TIP3    H226329   1.259   2.772   5.139
 8818TIP3   OH226330   0.063   2.835   5.986
 8818TIP3    H126331   0.116   2.755   5.989
 8818TIP3    H226332   0.125   2.904   5.964
 8819TIP3   OH226333   9.542   3.112   6.027
 8819TIP3    H126334   9.630   3.150   6.017
 8819TIP3    H226335   9.510   3.148   6.109
 8820TIP3   OH226336   1.744   3.122   6.183
 8820TIP3    H126337   1.661   3.162   6.211
 8820TIP3    H226338   1.717   3.046   6.131
 8821TIP3   OH226339   1.359   2.753   4.779
 8821TIP3    H126340   1.410   2.693   4.724
 8821TIP3    H226341   1.413   2.832   4.785
 8822TIP3   OH226342   9.658   2.593   5.586
 8822TIP3    H126343   9.600   2.605   5.662
 8822TIP3    H226344   9.610   2.635   5.514
 8823TIP3   OH226345   0.946   4.319   5.055
 8823TIP3    H126346   0.999   4.306   4.977
 8823TIP3    H226347   0.992   4.387   5.104
 8824TIP3   OH226348   0.061   2.670   6.419
 8824TIP3    H126349  -0.007   2.609   6.447
 8824TIP3    H226350   0.021   2.720   6.348
 8825TIP3   OH226351   0.140   4.084   6.412
 8825TIP3    H126352   0.104   4.168   6.442
 8825TIP3    H226353   0.187   4.050   6.488
 8826TIP3   OH226354   0.297   4.169   5.982
 8826TIP3    H126355   0.243   4.223   5.924
 8826TIP3    H226356   0.382   4.164   5.937
 8827TIP3   OH226357   0.687   4.392   6.099
 8827TIP3    H126358   0.722   4.382   6.188
 8827TIP3    H226359   0.752   4.445   6.053
 8828TIP3   OH226360   0.878   4.549   5.982
 8828TIP3    H126361   0.948   4.498   5.942
 8828TIP3    H226362   0.923   4.610   6.041
 8829TIP3   OH226363   1.656   2.877   6.075
 8829TIP3    H126364   1.573   2.877   6.027
 8829TIP3    H226365   1.686   2.786   6.070
 8830TIP3   OH226366   0.152   4.332   5.818
 8830TIP3    H126367   0.064   4.321   5.854
 8830TIP3    H226368   0.138   4.379   5.736
 8831TIP3   OH226369   0.590   4.412   5.674
 8831TIP3    H126370   0.522   4.423   5.608
 8831TIP3    H226371   0.597   4.498   5.717
 8832TIP3   OH226372   0.848   4.335   5.714
 8832TIP3    H126373   0.757   4.360   5.698
 8832TIP3    H226374   0.899   4.403   5.671
 8833TIP3   OH226375   1.040   4.513   5.619
 8833TIP3    H126376   1.037   4.600   5.579
 8833TIP3    H226377   1.068   4.455   5.548
 8834TIP3   OH226378   9.686   4.187   5.707
 8834TIP3    H126379   9.671   4.156   5.797
 8834TIP3    H226380   9.771   4.151   5.684
 8835TIP3   OH226381   0.115   4.069   5.647
 8835TIP3    H126382   0.138   4.000   5.709
 8835TIP3    H226383   0.199   4.113   5.628
 8836TIP3   OH226384   0.378   4.144   5.610
 8836TIP3    H126385   0.393   4.051   5.594
 8836TIP3    H226386   0.428   4.163   5.690
 8837TIP3   OH226387   0.865   2.792   5.717
 8837TIP3    H126388   0.823   2.722   5.766
 8837TIP3    H226389   0.933   2.748   5.666
 8838TIP3   OH226390   1.366   2.716   5.603
 8838TIP3    H126391   1.404   2.764   5.529
 8838TIP3    H226392   1.275   2.743   5.605
 8839TIP3   OH226393   1.482   2.790   5.364
 8839TIP3    H126394   1.549   2.727   5.337
 8839TIP3    H226395   1.523   2.876   5.352
 8840TIP3   OH226396   0.124   2.499   5.692
 8840TIP3    H126397   0.034   2.467   5.685
 8840TIP3    H226398   0.177   2.419   5.699
 8841TIP3   OH226399   9.711   2.403   5.379
 8841TIP3    H126400   9.763   2.441   5.308
 8841TIP3    H226401   9.725   2.463   5.453
 8842TIP3   OH226402   0.584   2.539   5.608
 8842TIP3    H126403   0.631   2.583   5.538
 8842TIP3    H226404   0.624   2.571   5.689
 8843TIP3   OH226405   1.075   2.666   5.589
 8843TIP3    H126406   1.099   2.631   5.503
 8843TIP3    H226407   1.085   2.593   5.649
 8844TIP3   OH226408   1.136   2.633   5.152
 8844TIP3    H126409   1.057   2.681   5.178
 8844TIP3    H226410   1.124   2.546   5.190
 8845TIP3   OH226411   0.047   2.521   5.150
 8845TIP3    H126412   0.093   2.458   5.095
 8845TIP3    H226413   0.115   2.581   5.181
 8846TIP3   OH226414   0.521   2.726   5.227
 8846TIP3    H126415   0.581   2.672   5.279
 8846TIP3    H226416   0.539   2.815   5.255
 8847TIP3   OH226417   0.394   4.146   4.677
 8847TIP3    H126418   0.484   4.162   4.648
 8847TIP3    H226419   0.372   4.061   4.637
 8848TIP3   OH226420   1.094   4.271   4.824
 8848TIP3    H126421   1.089   4.176   4.816
 8848TIP3    H226422   1.055   4.304   4.743
 8849TIP3   OH226423   0.346   2.828   6.592
 8849TIP3    H126424   0.301   2.752   6.628
 8849TIP3    H226425   0.437   2.817   6.618
 8850TIP3   OH226426   0.588   2.783   6.724
 8850TIP3    H126427   0.664   2.764   6.669
 8850TIP3    H226428   0.580   2.708   6.783
 8851TIP3   OH226429   9.565   4.006   4.729
 8851TIP3    H126430   9.593   4.047   4.810
 8851TIP3    H226431   9.635   3.944   4.708
 8852TIP3   OH226432   1.400   2.880   6.506
 8852TIP3    H126433   1.417   2.850   6.595
 8852TIP3    H226434   1.485   2.875   6.462
 8853TIP3   OH226435   1.329   4.411   6.011
 8853TIP3    H126436   1.254   4.380   5.961
 8853TIP3    H226437   1.314   4.505   6.022
 8854TIP3   OH226438   2.594   3.796   4.759
 8854TIP3    H126439   2.567   3.881   4.725
 8854TIP3    H226440   2.525   3.735   4.731
 8855TIP3   OH226441   2.604   3.804   5.192
 8855TIP3    H126442   2.663   3.770   5.259
 8855TIP3    H226443   2.557   3.727   5.160
 8856TIP3   OH226444   1.888   3.641   5.524
 8856TIP3    H126445   1.928   3.589   5.593
 8856TIP3    H226446   1.961   3.668   5.468
 8857TIP3   OH226447   2.856   4.095   4.844
 8857TIP3    H126448   2.854   4.025   4.910
 8857TIP3    H226449   2.865   4.176   4.894
 8858TIP3   OH226450   1.912   4.094   5.225
 8858TIP3    H126451   1.883   4.003   5.228
 8858TIP3    H226452   1.991   4.093   5.171
 8859TIP3   OH226453   1.558   3.271   4.994
 8859TIP3    H126454   1.525   3.359   5.012
 8859TIP3    H226455   1.485   3.228   4.947
 8860TIP3   OH226456   1.641   3.584   5.208
 8860TIP3    H126457   1.694   3.509   5.235
 8860TIP3    H226458   1.702   3.640   5.160
 8861TIP3   OH226459   2.504   4.533   4.851
 8861TIP3    H126460   2.528   4.471   4.782
 8861TIP3    H226461   2.522   4.487   4.933
 8862TIP3   OH226462   2.381   4.017   5.171
 8862TIP3    H126463   2.414   3.938   5.127
 8862TIP3    H226464   2.460   4.063   5.200
 8863TIP3   OH226465   3.449   3.334   5.191
 8863TIP3    H126466   3.457   3.419   5.233
 8863TIP3    H226467   3.497   3.341   5.109
 8864TIP3   OH226468   2.798   3.501   5.208
 8864TIP3    H126469   2.827   3.415   5.237
 8864TIP3    H226470   2.771   3.488   5.117
 8865TIP3   OH226471   2.154   3.157   5.167
 8865TIP3    H126472   2.134   3.232   5.110
 8865TIP3    H226473   2.098   3.087   5.134
 8866TIP3   OH226474   2.893   3.257   4.811
 8866TIP3    H126475   2.953   3.237   4.883
 8866TIP3    H226476   2.949   3.286   4.740
 8867TIP3   OH226477   1.785   3.368   5.305
 8867TIP3    H126478   1.870   3.353   5.347
 8867TIP3    H226479   1.789   3.318   5.224
 8868TIP3   OH226480   2.197   3.578   5.129
 8868TIP3    H126481   2.292   3.562   5.128
 8868TIP3    H226482   2.159   3.501   5.086
 8869TIP3   OH226483   3.484   3.551   5.364
 8869TIP3    H126484   3.397   3.585   5.346
 8869TIP3    H226485   3.499   3.570   5.457
 8870TIP3   OH226486   2.141   3.159   5.623
 8870TIP3    H126487   2.093   3.195   5.549
 8870TIP3    H226488   2.084   3.176   5.699
 8871TIP3   OH226489   2.498   4.005   4.608
 8871TIP3    H126490   2.449   3.976   4.531
 8871TIP3    H226491   2.446   4.077   4.643
 8872TIP3   OH226492   2.238   3.941   5.396
 8872TIP3    H126493   2.193   4.014   5.439
 8872TIP3    H226494   2.276   3.979   5.317
 8873TIP3   OH226495   3.044   3.246   5.055
 8873TIP3    H126496   2.979   3.244   5.126
 8873TIP3    H226497   3.087   3.331   5.065
 8874TIP3   OH226498   2.034   3.267   5.393
 8874TIP3    H126499   2.090   3.342   5.414
 8874TIP3    H226500   2.077   3.225   5.318
 8875TIP3   OH226501   2.112   4.154   5.533
 8875TIP3    H126502   2.092   4.227   5.474
 8875TIP3    H226503   2.029   4.132   5.575
 8876TIP3   OH226504   1.453   3.845   4.750
 8876TIP3    H126505   1.426   3.864   4.660
 8876TIP3    H226506   1.478   3.930   4.786
 8877TIP3   OH226507   2.863   4.333   4.990
 8877TIP3    H126508   2.779   4.342   5.035
 8877TIP3    H226509   2.884   4.422   4.961
 8878TIP3   OH226510   3.266   3.251   5.382
 8878TIP3    H126511   3.191   3.202   5.347
 8878TIP3    H226512   3.315   3.277   5.305
 8879TIP3   OH226513   2.484   2.850   5.359
 8879TIP3    H126514   2.479   2.759   5.385
 8879TIP3    H226515   2.406   2.891   5.398
 8880TIP3   OH226516   2.598   4.386   4.634
 8880TIP3    H126517   2.650   4.306   4.628
 8880TIP3    H226518   2.658   4.455   4.609
 8881TIP3   OH226519   2.736   4.153   4.602
 8881TIP3    H126520   2.666   4.088   4.597
 8881TIP3    H226521   2.788   4.127   4.678
 8882TIP3   OH226522   2.421   3.635   4.609
 8882TIP3    H126523   2.335   3.674   4.597
 8882TIP3    H226524   2.461   3.638   4.522
 8883TIP3   OH226525   2.385   3.451   4.283
 8883TIP3    H126526   2.449   3.499   4.336
 8883TIP3    H226527   2.436   3.381   4.242
 8884TIP3   OH226528   3.301   3.895   5.207
 8884TIP3    H126529   3.220   3.945   5.214
 8884TIP3    H226530   3.331   3.910   5.117
 8885TIP3   OH226531   2.772   3.727   4.559
 8885TIP3    H126532   2.721   3.755   4.635
 8885TIP3    H226533   2.855   3.696   4.596
 8886TIP3   OH226534   3.015   3.754   5.516
 8886TIP3    H126535   3.017   3.842   5.554
 8886TIP3    H226536   2.934   3.751   5.466
 8887TIP3   OH226537   1.957   3.695   4.981
 8887TIP3    H126538   1.969   3.766   4.918
 8887TIP3    H226539   2.046   3.666   5.002
 8888TIP3   OH226540   2.139   4.118   5.060
 8888TIP3    H126541   2.114   4.077   4.978
 8888TIP3    H226542   2.223   4.079   5.083
 8889TIP3   OH226543   2.101   3.703   5.354
 8889TIP3    H126544   2.135   3.666   5.272
 8889TIP3    H226545   2.149   3.785   5.365
 8890TIP3   OH226546   2.623   4.337   5.137
 8890TIP3    H126547   2.534   4.358   5.166
 8890TIP3    H226548   2.641   4.251   5.175
 8891TIP3   OH226549   2.607   3.585   4.390
 8891TIP3    H126550   2.666   3.643   4.438
 8891TIP3    H226551   2.640   3.586   4.300
 8892TIP3   OH226552   2.030   3.781   5.816
 8892TIP3    H126553   2.032   3.875   5.832
 8892TIP3    H226554   1.937   3.761   5.805
 8893TIP3   OH226555   2.364   4.237   4.669
 8893TIP3    H126556   2.432   4.303   4.654
 8893TIP3    H226557   2.296   4.256   4.605
 8894TIP3   OH226558   3.118   2.808   4.460
 8894TIP3    H126559   3.041   2.828   4.513
 8894TIP3    H226560   3.128   2.883   4.401
 8895TIP3   OH226561   1.880   3.538   4.739
 8895TIP3    H126562   1.796   3.578   4.718
 8895TIP3    H226563   1.907   3.579   4.821
 8896TIP3   OH226564   2.946   4.186   4.010
 8896TIP3    H126565   2.938   4.279   3.990
 8896TIP3    H226566   3.036   4.163   3.984
 8897TIP3   OH226567   1.670   3.956   5.697
 8897TIP3    H126568   1.600   3.937   5.634
 8897TIP3    H226569   1.702   3.871   5.724
 8898TIP3   OH226570   1.503   4.145   5.355
 8898TIP3    H126571   1.594   4.170   5.371
 8898TIP3    H226572   1.452   4.222   5.381
 8899TIP3   OH226573   2.252   4.498   4.468
 8899TIP3    H126574   2.192   4.466   4.400
 8899TIP3    H226575   2.209   4.577   4.502
 8900TIP3   OH226576   1.687   4.332   4.865
 8900TIP3    H126577   1.742   4.320   4.942
 8900TIP3    H226578   1.652   4.245   4.846
 8901TIP3   OH226579   2.447   4.412   4.103
 8901TIP3    H126580   2.498   4.338   4.069
 8901TIP3    H226581   2.481   4.425   4.191
 8902TIP3   OH226582   2.502   4.455   4.371
 8902TIP3    H126583   2.414   4.466   4.407
 8902TIP3    H226584   2.552   4.415   4.442
 8903TIP3   OH226585   3.253   3.714   5.670
 8903TIP3    H126586   3.173   3.728   5.619
 8903TIP3    H226587   3.271   3.621   5.661
 8904TIP3   OH226588   1.871   4.145   5.672
 8904TIP3    H126589   1.918   4.125   5.753
 8904TIP3    H226590   1.799   4.082   5.670
 8905TIP3   OH226591   2.243   2.939   5.483
 8905TIP3    H126592   2.159   2.907   5.449
 8905TIP3    H226593   2.221   3.021   5.527
 8906TIP3   OH226594   2.789   3.068   5.680
 8906TIP3    H126595   2.858   3.040   5.740
 8906TIP3    H226596   2.708   3.050   5.727
 8907TIP3   OH226597   2.998   3.486   5.605
 8907TIP3    H126598   2.965   3.485   5.695
 8907TIP3    H226599   2.991   3.578   5.579
 8908TIP3   OH226600   2.684   3.544   4.124
 8908TIP3    H126601   2.643   3.553   4.038
 8908TIP3    H226602   2.767   3.592   4.116
 8909TIP3   OH226603   2.390   2.989   4.448
 8909TIP3    H126604   2.358   2.995   4.538
 8909TIP3    H226605   2.357   2.904   4.417
 8910TIP3   OH226606   2.186   3.478   5.493
 8910TIP3    H126607   2.140   3.483   5.577
 8910TIP3    H226608   2.163   3.559   5.448
 8911TIP3   OH226609   2.062   3.363   5.011
 8911TIP3    H126610   1.970   3.346   5.034
 8911TIP3    H226611   2.070   3.332   4.921
 8912TIP3   OH226612   2.549   3.429   4.739
 8912TIP3    H126613   2.501   3.503   4.701
 8912TIP3    H226614   2.606   3.399   4.669
 8913TIP3   OH226615   2.729   3.687   5.804
 8913TIP3    H126616   2.708   3.619   5.867
 8913TIP3    H226617   2.820   3.710   5.823
 8914TIP3   OH226618   2.734   3.443   4.947
 8914TIP3    H126619   2.661   3.456   4.887
 8914TIP3    H226620   2.784   3.371   4.909
 8915TIP3   OH226621   2.026   3.489   5.716
 8915TIP3    H126622   2.038   3.551   5.788
 8915TIP3    H226623   2.006   3.406   5.759
 8916TIP3   OH226624   2.055   2.957   4.426
 8916TIP3    H126625   2.052   2.970   4.521
 8916TIP3    H226626   1.980   3.005   4.392
 8917TIP3   OH226627   1.617   3.013   5.299
 8917TIP3    H126628   1.684   3.051   5.357
 8917TIP3    H226629   1.651   3.027   5.211
 8918TIP3   OH226630   1.508   2.988   4.790
 8918TIP3    H126631   1.555   3.024   4.715
 8918TIP3    H226632   1.446   3.056   4.815
 8919TIP3   OH226633   2.767   3.697   5.391
 8919TIP3    H126634   2.790   3.632   5.324
 8919TIP3    H226635   2.722   3.648   5.459
 8920TIP3   OH226636   2.420   3.144   5.056
 8920TIP3    H126637   2.339   3.145   5.108
 8920TIP3    H226638   2.490   3.134   5.120
 8921TIP3   OH226639   1.821   3.230   5.074
 8921TIP3    H126640   1.736   3.236   5.030
 8921TIP3    H226641   1.855   3.145   5.050
 8922TIP3   OH226642   2.077   3.228   4.770
 8922TIP3    H126643   2.171   3.245   4.758
 8922TIP3    H226644   2.038   3.251   4.685
 8923TIP3   OH226645   2.852   3.238   5.264
 8923TIP3    H126646   2.838   3.253   5.357
 8923TIP3    H226647   2.784   3.176   5.239
 8924TIP3   OH226648   1.975   3.237   4.513
 8924TIP3    H126649   1.905   3.199   4.460
 8924TIP3    H226650   2.028   3.287   4.451
 8925TIP3   OH226651   3.037   4.938   5.500
 8925TIP3    H126652   3.017   4.848   5.473
 8925TIP3    H226653   3.092   4.973   5.430
 8926TIP3   OH226654   2.015   4.052   5.900
 8926TIP3    H126655   2.097   4.070   5.946
 8926TIP3    H226656   1.948   4.060   5.967
 8927TIP3   OH226657   2.476   3.528   5.170
 8927TIP3    H126658   2.538   3.476   5.118
 8927TIP3    H226659   2.472   3.482   5.254
 8928TIP3   OH226660   1.962   2.983   5.051
 8928TIP3    H126661   1.936   2.906   5.101
 8928TIP3    H226662   1.982   2.950   4.964
 8929TIP3   OH226663   2.447   3.417   5.428
 8929TIP3    H126664   2.361   3.447   5.454
 8929TIP3    H226665   2.508   3.467   5.482
 8930TIP3   OH226666   2.176   3.757   4.557
 8930TIP3    H126667   2.100   3.707   4.526
 8930TIP3    H226668   2.142   3.808   4.631
 8931TIP3   OH226669   3.050   4.031   5.189
 8931TIP3    H126670   3.096   4.089   5.127
 8931TIP3    H226671   2.985   3.986   5.135
 8932TIP3   OH226672   2.645   3.095   4.447
 8932TIP3    H126673   2.551   3.074   4.449
 8932TIP3    H226674   2.648   3.189   4.465
 8933TIP3   OH226675   2.656   4.129   5.548
 8933TIP3    H126676   2.683   4.098   5.634
 8933TIP3    H226677   2.613   4.213   5.565
 8934TIP3   OH226678   2.710   3.357   4.520
 8934TIP3    H126679   2.805   3.361   4.525
 8934TIP3    H226680   2.685   3.435   4.470
 8935TIP3   OH226681   1.875   3.815   5.217
 8935TIP3    H126682   1.893   3.783   5.129
 8935TIP3    H226683   1.940   3.773   5.272
 8936TIP3   OH226684   2.319   3.931   4.399
 8936TIP3    H126685   2.278   4.017   4.406
 8936TIP3    H226686   2.265   3.874   4.454
 8937TIP3   OH226687   1.754   3.721   5.829
 8937TIP3    H126688   1.753   3.691   5.920
 8937TIP3    H226689   1.681   3.673   5.788
 8938TIP3   OH226690   2.499   3.831   5.859
 8938TIP3    H126691   2.430   3.770   5.834
 8938TIP3    H226692   2.579   3.791   5.826
 8939TIP3   OH226693   3.028   3.460   4.346
 8939TIP3    H126694   3.012   3.406   4.268
 8939TIP3    H226695   3.069   3.539   4.312
 8940TIP3   OH226696   2.865   4.258   4.277
 8940TIP3    H126697   2.836   4.190   4.339
 8940TIP3    H226698   2.885   4.210   4.197
 8941TIP3   OH226699   2.855   3.890   5.044
 8941TIP3    H126700   2.764   3.868   5.064
 8941TIP3    H226701   2.891   3.809   5.007
 8942TIP3   OH226702   1.550   3.416   4.568
 8942TIP3    H126703   1.599   3.494   4.592
 8942TIP3    H226704   1.473   3.417   4.625
 8943TIP3   OH226705   1.858   4.405   4.657
 8943TIP3    H126706   1.800   4.382   4.729
 8943TIP3    H226707   1.895   4.490   4.683
 8944TIP3   OH226708   2.632   4.090   5.274
 8944TIP3    H126709   2.635   4.093   5.369
 8944TIP3    H226710   2.650   3.998   5.252
 8945TIP3   OH226711   2.624   3.994   4.157
 8945TIP3    H126712   2.676   3.966   4.232
 8945TIP3    H226713   2.539   3.950   4.169
 8946TIP3   OH226714   2.934   4.458   3.963
 8946TIP3    H126715   2.942   4.514   3.885
 8946TIP3    H226716   2.866   4.500   4.016
 8947TIP3   OH226717   1.969   3.237   5.830
 8947TIP3    H126718   1.873   3.246   5.835
 8947TIP3    H226719   1.992   3.185   5.907
 8948TIP3   OH226720   2.799   3.906   4.347
 8948TIP3    H126721   2.785   3.854   4.426
 8948TIP3    H226722   2.894   3.915   4.342
 8949TIP3   OH226723   1.713   4.345   5.486
 8949TIP3    H126724   1.766   4.285   5.538
 8949TIP3    H226725   1.725   4.430   5.528
 8950TIP3   OH226726   1.977   3.959   4.205
 8950TIP3    H126727   1.990   3.868   4.179
 8950TIP3    H226728   1.967   3.955   4.301
 8951TIP3   OH226729   1.918   3.980   4.483
 8951TIP3    H126730   1.950   3.959   4.571
 8951TIP3    H226731   1.921   4.076   4.479
 8952TIP3   OH226732   1.646   3.664   4.652
 8952TIP3    H126733   1.588   3.715   4.708
 8952TIP3    H226734   1.674   3.726   4.584
 8953TIP3   OH226735   2.808   3.300   5.531
 8953TIP3    H126736   2.889   3.344   5.558
 8953TIP3    H226737   2.805   3.221   5.585
 8954TIP3   OH226738   2.719   3.049   4.720
 8954TIP3    H126739   2.701   3.069   4.628
 8954TIP3    H226740   2.772   3.123   4.751
 8955TIP3   OH226741   2.204   4.180   4.411
 8955TIP3    H126742   2.113   4.191   4.438
 8955TIP3    H226743   2.217   4.247   4.343
 8956TIP3   OH226744   2.357   3.241   4.804
 8956TIP3    H126745   2.421   3.309   4.780
 8956TIP3    H226746   2.378   3.220   4.895
 8957TIP3   OH226747   2.651   3.533   5.578
 8957TIP3    H126748   2.678   3.572   5.661
 8957TIP3    H226749   2.701   3.451   5.573
 8958TIP3   OH226750   2.528   2.937   4.892
 8958TIP3    H126751   2.502   3.013   4.943
 8958TIP3    H226752   2.601   2.967   4.839
 8959TIP3   OH226753   1.940   4.255   4.448
 8959TIP3    H126754   1.923   4.320   4.379
 8959TIP3    H226755   1.913   4.298   4.529
 8960TIP3   OH226756   2.035   2.958   4.708
 8960TIP3    H126757   2.023   3.050   4.732
 8960TIP3    H226758   2.129   2.943   4.714
 8961TIP3   OH226759   3.267   3.448   5.582
 8961TIP3    H126760   3.172   3.449   5.594
 8961TIP3    H226761   3.281   3.385   5.511
 8962TIP3   OH226762   2.943   3.634   4.961
 8962TIP3    H126763   2.869   3.574   4.962
 8962TIP3    H226764   3.010   3.591   5.014
 8963TIP3   OH226765   1.677   3.848   4.440
 8963TIP3    H126766   1.750   3.906   4.461
 8963TIP3    H226767   1.713   3.788   4.374
 8964TIP3   OH226768   1.580   3.137   4.571
 8964TIP3    H126769   1.600   3.229   4.585
 8964TIP3    H226770   1.526   3.135   4.492
 8965TIP3   OH226771   2.916   4.603   4.917
 8965TIP3    H126772   2.872   4.656   4.850
 8965TIP3    H226773   3.009   4.618   4.902
 8966TIP3   OH226774   1.979   2.858   5.440
 8966TIP3    H126775   1.951   2.827   5.354
 8966TIP3    H226776   1.970   2.781   5.496
 8967TIP3   OH226777   1.497   4.113   4.829
 8967TIP3    H126778   1.462   4.158   4.905
 8967TIP3    H226779   1.460   4.160   4.754
 8968TIP3   OH226780   1.699   4.637   5.891
 8968TIP3    H126781   1.779   4.635   5.943
 8968TIP3    H226782   1.670   4.546   5.889
 8969TIP3   OH226783   2.156   4.557   5.979
 8969TIP3    H126784   2.238   4.593   6.012
 8969TIP3    H226785   2.152   4.469   6.017
 8970TIP3   OH226786   2.127   4.148   4.068
 8970TIP3    H126787   2.081   4.082   4.121
 8970TIP3    H226788   2.201   4.100   4.031
 8971TIP3   OH226789   2.574   4.200   3.985
 8971TIP3    H126790   2.606   4.136   4.048
 8971TIP3    H226791   2.633   4.192   3.910
 8972TIP3   OH226792   1.812   4.052   6.091
 8972TIP3    H126793   1.826   3.958   6.102
 8972TIP3    H226794   1.728   4.059   6.046
 8973TIP3   OH226795   1.795   3.658   4.279
 8973TIP3    H126796   1.843   3.627   4.355
 8973TIP3    H226797   1.863   3.674   4.213
 8974TIP3   OH226798   2.375   4.072   5.799
 8974TIP3    H126799   2.334   4.046   5.716
 8974TIP3    H226800   2.432   3.999   5.822
 8975TIP3   OH226801   2.368   3.877   4.134
 8975TIP3    H126802   2.343   3.887   4.226
 8975TIP3    H226803   2.345   3.786   4.114
 8976TIP3   OH226804   2.942   4.122   5.428
 8976TIP3    H126805   2.979   4.094   5.344
 8976TIP3    H226806   2.848   4.128   5.412
 8977TIP3   OH226807   1.923   3.796   6.101
 8977TIP3    H126808   1.997   3.774   6.045
 8977TIP3    H226809   1.961   3.814   6.187
 8978TIP3   OH226810   1.967   3.580   4.479
 8978TIP3    H126811   1.943   3.555   4.569
 8978TIP3    H226812   2.020   3.508   4.447
 8979TIP3   OH226813   2.286   3.673   5.765
 8979TIP3    H126814   2.200   3.714   5.775
 8979TIP3    H226815   2.316   3.703   5.679
 8980TIP3   OH226816   2.119   3.393   4.339
 8980TIP3    H126817   2.088   3.406   4.249
 8980TIP3    H226818   2.213   3.410   4.334
 8981TIP3   OH226819   2.772   4.076   5.829
 8981TIP3    H126820   2.864   4.072   5.801
 8981TIP3    H226821   2.767   4.014   5.902
 8982TIP3   OH226822   2.893   3.699   4.027
 8982TIP3    H126823   2.886   3.659   3.941
 8982TIP3    H226824   2.870   3.791   4.013
 8983TIP3   OH226825   2.392   3.440   5.864
 8983TIP3    H126826   2.395   3.371   5.799
 8983TIP3    H226827   2.355   3.516   5.818
 8984TIP3   OH226828   2.400   3.246   5.659
 8984TIP3    H126829   2.428   3.280   5.573
 8984TIP3    H226830   2.309   3.218   5.645
 8985TIP3   OH226831   2.398   3.770   5.538
 8985TIP3    H126832   2.484   3.768   5.497
 8985TIP3    H226833   2.347   3.831   5.484
 8986TIP3   OH226834   2.995   3.728   5.900
 8986TIP3    H126835   3.005   3.633   5.906
 8986TIP3    H226836   3.082   3.760   5.878
 8987TIP3   OH226837   3.068   4.007   5.636
 8987TIP3    H126838   3.014   4.055   5.573
 8987TIP3    H226839   3.158   4.023   5.608
 8988TIP3   OH226840   2.279   3.527   6.108
 8988TIP3    H126841   2.208   3.466   6.129
 8988TIP3    H226842   2.306   3.501   6.020
 8989TIP3   OH226843   2.523   3.018   5.764
 8989TIP3    H126844   2.483   3.097   5.729
 8989TIP3    H226845   2.457   2.950   5.750
 8990TIP3   OH226846   2.648   3.482   5.967
 8990TIP3    H126847   2.636   3.470   6.062
 8990TIP3    H226848   2.562   3.460   5.930
 8991TIP3   OH226849   2.907   3.455   5.858
 8991TIP3    H126850   2.826   3.441   5.907
 8991TIP3    H226851   2.975   3.415   5.912
 8992TIP3   OH226852   3.139   3.399   5.997
 8992TIP3    H126853   3.151   3.304   6.003
 8992TIP3    H226854   3.134   3.428   6.088
 8993TIP3   OH226855   2.109   3.308   6.170
 8993TIP3    H126856   2.116   3.220   6.133
 8993TIP3    H226857   2.147   3.301   6.257
 8994TIP3   OH226858   2.588   2.990   6.029
 8994TIP3    H126859   2.657   2.924   6.022
 8994TIP3    H226860   2.559   3.004   5.939
 8995TIP3   OH226861   2.686   3.207   6.170
 8995TIP3    H126862   2.654   3.133   6.117
 8995TIP3    H226863   2.612   3.268   6.172
 8996TIP3   OH226864   1.944   4.467   4.265
 8996TIP3    H126865   2.033   4.439   4.240
 8996TIP3    H226866   1.910   4.511   4.187
 8997TIP3   OH226867   1.404   3.841   4.455
 8997TIP3    H126868   1.499   3.854   4.453
 8997TIP3    H226869   1.391   3.755   4.417
 8998TIP3   OH226870   1.302   4.423   4.920
 8998TIP3    H126871   1.238   4.369   4.875
 8998TIP3    H226872   1.348   4.363   4.978
 8999TIP3   OH226873   1.447   4.256   5.085
 8999TIP3    H126874   1.439   4.184   5.148
 8999TIP3    H226875   1.506   4.318   5.126
 9000TIP3   OH226876   3.182   4.680   4.876
 9000TIP3    H126877   3.183   4.766   4.919
 9000TIP3    H226878   3.247   4.687   4.806
 9001TIP3   OH226879   3.078   3.917   4.346
 9001TIP3    H126880   3.139   3.986   4.320
 9001TIP3    H226881   3.116   3.879   4.425
 9002TIP3   OH226882   3.184   3.780   4.559
 9002TIP3    H126883   3.116   3.731   4.605
 9002TIP3    H226884   3.249   3.798   4.627
 9003TIP3   OH226885   3.247   4.159   5.030
 9003TIP3    H126886   3.303   4.092   4.991
 9003TIP3    H226887   3.222   4.215   4.956
 9004TIP3   OH226888   3.109   3.686   4.197
 9004TIP3    H126889   3.034   3.685   4.137
 9004TIP3    H226890   3.096   3.766   4.249
 9005TIP3   OH226891   2.977   3.322   4.110
 9005TIP3    H126892   2.917   3.338   4.037
 9005TIP3    H226893   2.980   3.227   4.118
 9006TIP3   OH226894   2.996   3.626   4.689
 9006TIP3    H126895   3.019   3.534   4.673
 9006TIP3    H226896   2.984   3.632   4.783
 9007TIP3   OH226897   1.626   3.678   5.465
 9007TIP3    H126898   1.618   3.652   5.373
 9007TIP3    H226899   1.720   3.676   5.483
 9008TIP3   OH226900   3.318   4.072   5.540
 9008TIP3    H126901   3.377   3.996   5.535
 9008TIP3    H226902   3.330   4.117   5.457
 9009TIP3   OH226903   3.468   3.840   5.552
 9009TIP3    H126904   3.392   3.798   5.592
 9009TIP3    H226905   3.543   3.786   5.578
 9010TIP3   OH226906   2.935   3.046   4.106
 9010TIP3    H126907   2.996   3.025   4.177
 9010TIP3    H226908   2.849   3.019   4.140
 9011TIP3   OH226909   3.051   3.364   4.604
 9011TIP3    H126910   3.141   3.332   4.613
 9011TIP3    H226911   3.044   3.393   4.513
 9012TIP3   OH226912   3.151   3.504   5.101
 9012TIP3    H126913   3.230   3.526   5.052
 9012TIP3    H226914   3.164   3.542   5.188
 9013TIP3   OH226915   3.226   3.659   5.328
 9013TIP3    H126916   3.154   3.686   5.385
 9013TIP3    H226917   3.254   3.739   5.284
 9014TIP3   OH226918   1.845   3.369   6.106
 9014TIP3    H126919   1.939   3.366   6.125
 9014TIP3    H226920   1.810   3.288   6.144
 9015TIP3   OH226921   3.689   3.264   5.864
 9015TIP3    H126922   3.752   3.208   5.819
 9015TIP3    H226923   3.652   3.319   5.794
 9016TIP3   OH226924   1.823   3.086   5.473
 9016TIP3    H126925   1.876   3.006   5.471
 9016TIP3    H226926   1.884   3.156   5.448
 9017TIP3   OH226927   1.596   3.353   5.514
 9017TIP3    H126928   1.652   3.338   5.438
 9017TIP3    H226929   1.614   3.443   5.540
 9018TIP3   OH226930   3.541   3.402   5.677
 9018TIP3    H126931   3.462   3.436   5.720
 9018TIP3    H226932   3.510   3.329   5.625
 9019TIP3   OH226933   3.152   2.999   4.266
 9019TIP3    H126934   3.199   2.938   4.209
 9019TIP3    H226935   3.213   3.071   4.280
 9020TIP3   OH226936   1.584   2.843   5.009
 9020TIP3    H126937   1.501   2.839   5.057
 9020TIP3    H226938   1.567   2.903   4.937
 9021TIP3   OH226939   2.748   4.587   4.538
 9021TIP3    H126940   2.800   4.569   4.460
 9021TIP3    H226941   2.798   4.654   4.585
 9022TIP3   OH226942   1.820   2.903   5.844
 9022TIP3    H126943   1.771   2.903   5.926
 9022TIP3    H226944   1.766   2.956   5.784
 9023TIP3   OH226945   1.862   4.387   5.965
 9023TIP3    H126946   1.775   4.366   5.931
 9023TIP3    H226947   1.858   4.360   6.057
 9024TIP3   OH226948   2.094   4.413   5.427
 9024TIP3    H126949   2.036   4.488   5.421
 9024TIP3    H226950   2.113   4.389   5.337
 9025TIP3   OH226951   3.449   3.164   5.572
 9025TIP3    H126952   3.373   3.171   5.514
 9025TIP3    H226953   3.476   3.072   5.565
 9026TIP3   OH226954   1.716   4.654   5.524
 9026TIP3    H126955   1.625   4.670   5.498
 9026TIP3    H226956   1.735   4.723   5.587
 9027TIP3   OH226957   1.944   4.636   5.374
 9027TIP3    H126958   1.862   4.641   5.423
 9027TIP3    H226959   1.919   4.659   5.284
 9028TIP3   OH226960   2.294   4.603   5.177
 9028TIP3    H126961   2.265   4.646   5.096
 9028TIP3    H226962   2.271   4.665   5.246
 9029TIP3   OH226963   2.840   4.798   5.103
 9029TIP3    H126964   2.825   4.868   5.039
 9029TIP3    H226965   2.859   4.721   5.050
 9030TIP3   OH226966   1.627   4.429   5.234
 9030TIP3    H126967   1.655   4.404   5.323
 9030TIP3    H226968   1.699   4.399   5.178
 9031TIP3   OH226969   1.839   4.326   5.100
 9031TIP3    H126970   1.850   4.240   5.141
 9031TIP3    H226971   1.927   4.363   5.098
 9032TIP3   OH226972   2.109   4.396   5.125
 9032TIP3    H126973   2.133   4.309   5.093
 9032TIP3    H226974   2.192   4.442   5.135
 9033TIP3   OH226975   2.628   3.055   5.214
 9033TIP3    H126976   2.591   2.983   5.264
 9033TIP3    H226977   2.697   3.015   5.161
 9034TIP3   OH226978   3.120   2.973   5.045
 9034TIP3    H126979   3.113   3.068   5.034
 9034TIP3    H226980   3.175   2.962   5.123
 9035TIP3   OH226981   1.895   2.754   5.197
 9035TIP3    H126982   1.806   2.720   5.206
 9035TIP3    H226983   1.950   2.676   5.188
 9036TIP3   OH226984   1.719   2.657   4.846
 9036TIP3    H126985   1.746   2.709   4.770
 9036TIP3    H226986   1.678   2.721   4.905
 9037TIP3   OH226987   2.390   2.786   5.093
 9037TIP3    H126988   2.434   2.837   5.025
 9037TIP3    H226989   2.427   2.818   5.175
 9038TIP3   OH226990   2.842   2.948   5.087
 9038TIP3    H126991   2.933   2.960   5.059
 9038TIP3    H226992   2.843   2.868   5.139
 9039TIP3   OH226993   2.906   2.865   4.620
 9039TIP3    H126994   2.847   2.929   4.659
 9039TIP3    H226995   2.891   2.785   4.669
 9040TIP3   OH226996   1.388   4.239   4.608
 9040TIP3    H126997   1.306   4.203   4.575
 9040TIP3    H226998   1.389   4.329   4.576
 9041TIP3   OH226999   1.825   2.792   4.614
 9041TIP3    H127000   1.873   2.734   4.555
 9041TIP3    H227001   1.893   2.849   4.650
 9042TIP3   OH227002   2.312   2.986   4.714
 9042TIP3    H127003   2.376   2.939   4.767
 9042TIP3    H227004   2.322   3.078   4.739
 9043TIP3   OH227005   2.194   4.374   4.205
 9043TIP3    H127006   2.277   4.401   4.166
 9043TIP3    H227007   2.165   4.300   4.151
 9044TIP3   OH227008   2.895   4.527   4.310
 9044TIP3    H127009   2.889   4.432   4.304
 9044TIP3    H227010   2.851   4.559   4.231
 9045TIP3   OH227011   2.128   3.038   6.080
 9045TIP3    H127012   2.094   2.973   6.142
 9045TIP3    H227013   2.221   3.047   6.103
 9046TIP3   OH227014   2.374   3.042   6.206
 9046TIP3    H127015   2.451   3.020   6.154
 9046TIP3    H227016   2.371   2.975   6.273
 9047TIP3   OH227017   1.511   4.228   4.276
 9047TIP3    H127018   1.514   4.232   4.371
 9047TIP3    H227019   1.591   4.181   4.251
 9048TIP3   OH227020   3.194   3.128   5.990
 9048TIP3    H127021   3.213   3.099   6.079
 9048TIP3    H227022   3.279   3.125   5.946
 9049TIP3   OH227023   4.390   4.058   4.235
 9049TIP3    H127024   4.360   4.145   4.208
 9049TIP3    H227025   4.320   3.999   4.208
 9050TIP3   OH227026   4.385   4.049   4.668
 9050TIP3    H127027   4.442   4.024   4.740
 9050TIP3    H227028   4.338   3.969   4.646
 9051TIP3   OH227029   3.679   3.907   4.998
 9051TIP3    H127030   3.716   3.852   5.068
 9051TIP3    H227031   3.755   3.929   4.943
 9052TIP3   OH227032   4.649   4.346   4.330
 9052TIP3    H127033   4.640   4.279   4.399
 9052TIP3    H227034   4.661   4.428   4.378
 9053TIP3   OH227035   3.698   4.360   4.715
 9053TIP3    H127036   3.681   4.266   4.711
 9053TIP3    H227037   3.790   4.369   4.689
 9054TIP3   OH227038   3.382   3.597   4.468
 9054TIP3    H127039   3.303   3.649   4.481
 9054TIP3    H227040   3.357   3.508   4.493
 9055TIP3   OH227041   3.417   3.822   4.712
 9055TIP3    H127042   3.465   3.744   4.739
 9055TIP3    H227043   3.463   3.854   4.634
 9056TIP3   OH227044   4.277   4.821   4.324
 9056TIP3    H127045   4.308   4.730   4.316
 9056TIP3    H227046   4.253   4.829   4.416
 9057TIP3   OH227047   4.188   4.277   4.665
 9057TIP3    H127048   4.227   4.195   4.633
 9057TIP3    H227049   4.263   4.329   4.693
 9058TIP3   OH227050   5.234   3.584   4.683
 9058TIP3    H127051   5.247   3.669   4.725
 9058TIP3    H227052   5.258   3.600   4.591
 9059TIP3   OH227053   4.601   3.757   4.697
 9059TIP3    H127054   4.631   3.671   4.727
 9059TIP3    H227055   4.564   3.741   4.611
 9060TIP3   OH227056   3.977   3.416   4.655
 9060TIP3    H127057   3.943   3.487   4.600
 9060TIP3    H227058   3.936   3.337   4.621
 9061TIP3   OH227059   4.657   3.514   4.297
 9061TIP3    H127060   4.720   3.508   4.369
 9061TIP3    H227061   4.707   3.549   4.224
 9062TIP3   OH227062   3.574   3.609   4.796
 9062TIP3    H127063   3.663   3.599   4.828
 9062TIP3    H227064   3.570   3.553   4.718
 9063TIP3   OH227065   3.992   3.824   4.604
 9063TIP3    H127066   4.086   3.808   4.609
 9063TIP3    H227067   3.955   3.741   4.571
 9064TIP3   OH227068   5.283   3.806   4.846
 9064TIP3    H127069   5.194   3.841   4.839
 9064TIP3    H227070   5.316   3.840   4.929
 9065TIP3   OH227071   3.932   3.418   5.109
 9065TIP3    H127072   3.882   3.450   5.034
 9065TIP3    H227073   3.876   3.434   5.184
 9066TIP3   OH227074   4.288   4.276   4.095
 9066TIP3    H127075   4.247   4.243   4.015
 9066TIP3    H227076   4.234   4.351   4.121
 9067TIP3   OH227077   4.054   4.177   4.888
 9067TIP3    H127078   4.049   4.238   4.961
 9067TIP3    H227079   4.089   4.229   4.816
 9068TIP3   OH227080   4.813   3.533   4.521
 9068TIP3    H127081   4.766   3.514   4.603
 9068TIP3    H227082   4.866   3.610   4.541
 9069TIP3   OH227083   3.833   3.524   4.870
 9069TIP3    H127084   3.888   3.599   4.895
 9069TIP3    H227085   3.882   3.482   4.799
 9070TIP3   OH227086   3.256   4.104   4.233
 9070TIP3    H127087   3.219   4.123   4.146
 9070TIP3    H227088   3.279   4.190   4.269
 9071TIP3   OH227089   4.672   4.581   4.477
 9071TIP3    H127090   4.604   4.596   4.542
 9071TIP3    H227091   4.691   4.668   4.442
 9072TIP3   OH227092   5.035   3.474   4.851
 9072TIP3    H127093   4.950   3.495   4.813
 9072TIP3    H227094   5.099   3.501   4.785
 9073TIP3   OH227095   4.283   3.124   4.841
 9073TIP3    H127096   4.277   3.031   4.862
 9073TIP3    H227097   4.203   3.162   4.877
 9074TIP3   OH227098   4.399   4.625   4.130
 9074TIP3    H127099   4.458   4.550   4.118
 9074TIP3    H227100   4.453   4.701   4.111
 9075TIP3   OH227101   4.542   4.396   4.081
 9075TIP3    H127102   4.464   4.341   4.082
 9075TIP3    H227103   4.589   4.372   4.161
 9076TIP3   OH227104   4.217   3.895   4.088
 9076TIP3    H127105   4.132   3.935   4.071
 9076TIP3    H227106   4.261   3.894   4.003
 9077TIP3   OH227107   4.180   3.706   3.772
 9077TIP3    H127108   4.246   3.753   3.823
 9077TIP3    H227109   4.228   3.637   3.727
 9078TIP3   OH227110   5.078   4.145   4.676
 9078TIP3    H127111   4.999   4.199   4.682
 9078TIP3    H227112   5.115   4.166   4.590
 9079TIP3   OH227113   4.574   3.980   4.046
 9079TIP3    H127114   4.520   4.012   4.119
 9079TIP3    H227115   4.657   3.957   4.087
 9080TIP3   OH227116   4.811   4.005   4.997
 9080TIP3    H127117   4.818   4.091   5.038
 9080TIP3    H227118   4.728   4.008   4.949
 9081TIP3   OH227119   3.795   3.959   4.453
 9081TIP3    H127120   3.757   3.898   4.390
 9081TIP3    H227121   3.866   3.910   4.495
 9082TIP3   OH227122   3.947   4.413   4.598
 9082TIP3    H127123   3.919   4.393   4.508
 9082TIP3    H227124   4.030   4.366   4.607
 9083TIP3   OH227125   3.900   3.954   4.832
 9083TIP3    H127126   3.935   3.918   4.750
 9083TIP3    H227127   3.952   4.033   4.847
 9084TIP3   OH227128   4.484   4.615   4.680
 9084TIP3    H127129   4.423   4.662   4.737
 9084TIP3    H227130   4.468   4.523   4.698
 9085TIP3   OH227131   4.405   3.841   3.877
 9085TIP3    H127132   4.464   3.900   3.925
 9085TIP3    H227133   4.436   3.843   3.787
 9086TIP3   OH227134   3.834   4.025   5.294
 9086TIP3    H127135   3.850   4.118   5.311
 9086TIP3    H227136   3.738   4.017   5.292
 9087TIP3   OH227137   4.150   4.515   4.137
 9087TIP3    H127138   4.234   4.560   4.144
 9087TIP3    H227139   4.094   4.576   4.088
 9088TIP3   OH227140   4.919   3.061   3.930
 9088TIP3    H127141   4.843   3.079   3.986
 9088TIP3    H227142   4.928   3.139   3.875
 9089TIP3   OH227143   3.669   3.799   4.255
 9089TIP3    H127144   3.591   3.845   4.224
 9089TIP3    H227145   3.638   3.711   4.278
 9090TIP3   OH227146   4.743   4.444   3.499
 9090TIP3    H127147   4.735   4.537   3.478
 9090TIP3    H227148   4.833   4.421   3.475
 9091TIP3   OH227149   3.384   4.187   5.298
 9091TIP3    H127150   3.336   4.201   5.216
 9091TIP3    H227151   3.452   4.125   5.276
 9092TIP3   OH227152   3.277   4.404   4.832
 9092TIP3    H127153   3.363   4.394   4.873
 9092TIP3    H227154   3.236   4.476   4.879
 9093TIP3   OH227155   4.043   4.729   3.966
 9093TIP3    H127156   4.000   4.711   3.883
 9093TIP3    H227157   4.007   4.813   3.994
 9094TIP3   OH227158   3.478   4.593   4.347
 9094TIP3    H127159   3.515   4.584   4.434
 9094TIP3    H227160   3.428   4.512   4.334
 9095TIP3   OH227161   4.245   4.670   3.594
 9095TIP3    H127162   4.296   4.597   3.559
 9095TIP3    H227163   4.281   4.683   3.682
 9096TIP3   OH227164   4.299   4.712   3.864
 9096TIP3    H127165   4.213   4.713   3.906
 9096TIP3    H227166   4.359   4.680   3.932
 9097TIP3   OH227167   5.063   3.959   5.144
 9097TIP3    H127168   4.979   3.976   5.103
 9097TIP3    H227169   5.076   3.865   5.135
 9098TIP3   OH227170   4.035   3.195   4.969
 9098TIP3    H127171   3.953   3.160   4.937
 9098TIP3    H227172   4.012   3.278   5.011
 9099TIP3   OH227173   4.585   3.323   5.173
 9099TIP3    H127174   4.654   3.301   5.235
 9099TIP3    H227175   4.504   3.312   5.224
 9100TIP3   OH227176   4.806   3.741   5.090
 9100TIP3    H127177   4.766   3.736   5.176
 9100TIP3    H227178   4.792   3.831   5.062
 9101TIP3   OH227179   4.486   3.807   3.614
 9101TIP3    H127180   4.439   3.817   3.531
 9101TIP3    H227181   4.567   3.856   3.601
 9102TIP3   OH227182   4.196   3.236   3.936
 9102TIP3    H127183   4.158   3.247   4.023
 9102TIP3    H227184   4.158   3.156   3.902
 9103TIP3   OH227185   3.982   3.732   4.977
 9103TIP3    H127186   3.932   3.736   5.059
 9103TIP3    H227187   3.960   3.814   4.932
 9104TIP3   OH227188   3.853   3.604   4.500
 9104TIP3    H127189   3.768   3.570   4.527
 9104TIP3    H227190   3.864   3.574   4.410
 9105TIP3   OH227191   4.341   3.691   4.225
 9105TIP3    H127192   4.293   3.764   4.186
 9105TIP3    H227193   4.397   3.658   4.155
 9106TIP3   OH227194   4.527   3.943   5.291
 9106TIP3    H127195   4.503   3.877   5.357
 9106TIP3    H227196   4.617   3.967   5.313
 9107TIP3   OH227197   4.511   3.702   4.445
 9107TIP3    H127198   4.441   3.723   4.383
 9107TIP3    H227199   4.557   3.628   4.407
 9108TIP3   OH227200   3.813   3.750   5.192
 9108TIP3    H127201   3.817   3.819   5.258
 9108TIP3    H227202   3.793   3.670   5.241
 9109TIP3   OH227203   3.861   3.223   3.915
 9109TIP3    H127204   3.852   3.228   4.011
 9109TIP3    H227205   3.783   3.266   3.882
 9110TIP3   OH227206   3.356   3.181   4.287
 9110TIP3    H127207   3.382   3.252   4.228
 9110TIP3    H227208   3.357   3.220   4.374
 9111TIP3   OH227209   4.555   3.957   4.873
 9111TIP3    H127210   4.581   3.893   4.807
 9111TIP3    H227211   4.516   3.906   4.944
 9112TIP3   OH227212   4.234   3.402   4.542
 9112TIP3    H127213   4.154   3.406   4.595
 9112TIP3    H227214   4.305   3.394   4.607
 9113TIP3   OH227215   3.614   3.481   4.554
 9113TIP3    H127216   3.545   3.531   4.510
 9113TIP3    H227217   3.575   3.395   4.568
 9114TIP3   OH227218   3.876   3.493   4.250
 9114TIP3    H127219   3.971   3.503   4.238
 9114TIP3    H227220   3.839   3.510   4.164
 9115TIP3   OH227221   4.665   3.494   4.757
 9115TIP3    H127222   4.649   3.510   4.850
 9115TIP3    H227223   4.595   3.434   4.731
 9116TIP3   OH227224   3.763   3.514   4.002
 9116TIP3    H127225   3.698   3.464   3.952
 9116TIP3    H227226   3.815   3.559   3.936
 9117TIP3   OH227227   4.943   5.164   5.032
 9117TIP3    H127228   4.929   5.093   4.970
 9117TIP3    H227229   4.927   5.125   5.118
 9118TIP3   OH227230   3.892   4.294   5.370
 9118TIP3    H127231   3.957   4.314   5.436
 9118TIP3    H227232   3.813   4.339   5.400
 9119TIP3   OH227233   4.269   3.779   4.656
 9119TIP3    H127234   4.333   3.727   4.607
 9119TIP3    H227235   4.266   3.738   4.742
 9120TIP3   OH227236   3.840   3.217   4.529
 9120TIP3    H127237   3.790   3.152   4.578
 9120TIP3    H227238   3.802   3.214   4.440
 9121TIP3   OH227239   4.247   3.677   4.919
 9121TIP3    H127240   4.160   3.710   4.942
 9121TIP3    H227241   4.307   3.731   4.971
 9122TIP3   OH227242   3.975   4.022   4.036
 9122TIP3    H127243   3.900   3.967   4.012
 9122TIP3    H227244   3.948   4.065   4.117
 9123TIP3   OH227245   4.843   4.300   4.660
 9123TIP3    H127246   4.885   4.358   4.597
 9123TIP3    H227247   4.774   4.256   4.611
 9124TIP3   OH227248   4.447   3.344   3.945
 9124TIP3    H127249   4.354   3.321   3.940
 9124TIP3    H227250   4.447   3.439   3.956
 9125TIP3   OH227251   4.483   4.433   5.032
 9125TIP3    H127252   4.502   4.401   5.121
 9125TIP3    H227253   4.467   4.526   5.043
 9126TIP3   OH227254   4.502   3.612   4.009
 9126TIP3    H127255   4.597   3.617   4.020
 9126TIP3    H227256   4.479   3.689   3.958
 9127TIP3   OH227257   3.696   4.087   4.680
 9127TIP3    H127258   3.719   4.049   4.595
 9127TIP3    H227259   3.743   4.034   4.744
 9128TIP3   OH227260   4.129   4.183   3.880
 9128TIP3    H127261   4.082   4.266   3.875
 9128TIP3    H227262   4.073   4.126   3.933
 9129TIP3   OH227263   3.558   3.963   5.316
 9129TIP3    H127264   3.553   3.932   5.406
 9129TIP3    H227265   3.485   3.920   5.271
 9130TIP3   OH227266   4.293   4.081   5.359
 9130TIP3    H127267   4.220   4.030   5.324
 9130TIP3    H227268   4.371   4.044   5.317
 9131TIP3   OH227269   4.914   3.696   3.822
 9131TIP3    H127270   4.858   3.650   3.760
 9131TIP3    H227271   4.920   3.785   3.788
 9132TIP3   OH227272   5.227   4.530   4.903
 9132TIP3    H127273   5.164   4.601   4.887
 9132TIP3    H227274   5.256   4.505   4.815
 9133TIP3   OH227275   4.660   4.517   3.766
 9133TIP3    H127276   4.631   4.450   3.828
 9133TIP3    H227277   4.679   4.469   3.685
 9134TIP3   OH227278   4.637   4.146   4.534
 9134TIP3    H127279   4.546   4.122   4.555
 9134TIP3    H227280   4.675   4.067   4.497
 9135TIP3   OH227281   3.799   4.389   4.358
 9135TIP3    H127282   3.796   4.464   4.299
 9135TIP3    H227283   3.708   4.369   4.377
 9136TIP3   OH227284   3.347   3.667   4.062
 9136TIP3    H127285   3.392   3.749   4.085
 9136TIP3    H227286   3.268   3.668   4.115
 9137TIP3   OH227287   3.877   4.142   4.258
 9137TIP3    H127288   3.866   4.231   4.291
 9137TIP3    H227289   3.850   4.085   4.330
 9138TIP3   OH227290   3.714   4.607   4.203
 9138TIP3    H127291   3.627   4.614   4.242
 9138TIP3    H227292   3.749   4.696   4.206
 9139TIP3   OH227293   4.432   4.359   4.771
 9139TIP3    H127294   4.444   4.373   4.865
 9139TIP3    H227295   4.475   4.274   4.755
 9140TIP3   OH227296   4.427   4.251   3.641
 9140TIP3    H127297   4.478   4.220   3.716
 9140TIP3    H227298   4.343   4.205   3.649
 9141TIP3   OH227299   4.731   4.716   3.451
 9141TIP3    H127300   4.740   4.771   3.374
 9141TIP3    H227301   4.664   4.758   3.504
 9142TIP3   OH227302   3.760   3.502   5.319
 9142TIP3    H127303   3.665   3.513   5.322
 9142TIP3    H227304   3.782   3.453   5.398
 9143TIP3   OH227305   4.601   4.153   3.829
 9143TIP3    H127306   4.585   4.105   3.910
 9143TIP3    H227307   4.696   4.165   3.825
 9144TIP3   OH227308   3.776   4.214   3.662
 9144TIP3    H127309   3.787   4.122   3.636
 9144TIP3    H227310   3.762   4.210   3.757
 9145TIP3   OH227311   3.717   4.232   3.934
 9145TIP3    H127312   3.779   4.206   4.003
 9145TIP3    H227313   3.716   4.328   3.939
 9146TIP3   OH227314   3.447   3.920   4.143
 9146TIP3    H127315   3.382   3.969   4.194
 9146TIP3    H227316   3.467   3.978   4.069
 9147TIP3   OH227317   4.616   3.551   5.020
 9147TIP3    H127318   4.693   3.597   5.054
 9147TIP3    H227319   4.607   3.475   5.078
 9148TIP3   OH227320   4.513   3.292   4.210
 9148TIP3    H127321   4.488   3.311   4.120
 9148TIP3    H227322   4.554   3.373   4.242
 9149TIP3   OH227323   3.986   4.412   3.868
 9149TIP3    H127324   3.902   4.438   3.907
 9149TIP3    H227325   4.012   4.488   3.816
 9150TIP3   OH227326   4.158   3.495   4.292
 9150TIP3    H127327   4.218   3.566   4.268
 9150TIP3    H227328   4.181   3.474   4.382
 9151TIP3   OH227329   4.459   3.789   5.065
 9151TIP3    H127330   4.481   3.830   5.149
 9151TIP3    H227331   4.505   3.706   5.067
 9152TIP3   OH227332   4.318   3.189   4.380
 9152TIP3    H127333   4.295   3.267   4.431
 9152TIP3    H227334   4.389   3.219   4.323
 9153TIP3   OH227335   3.739   4.505   3.949
 9153TIP3    H127336   3.720   4.578   3.890
 9153TIP3    H227337   3.729   4.543   4.037
 9154TIP3   OH227338   3.829   3.218   4.193
 9154TIP3    H127339   3.814   3.308   4.221
 9154TIP3    H227340   3.924   3.205   4.202
 9155TIP3   OH227341   5.069   3.683   5.059
 9155TIP3    H127342   4.975   3.694   5.075
 9155TIP3    H227343   5.074   3.623   4.985
 9156TIP3   OH227344   4.733   3.890   4.446
 9156TIP3    H127345   4.656   3.834   4.456
 9156TIP3    H227346   4.799   3.851   4.503
 9157TIP3   OH227347   3.475   4.097   3.926
 9157TIP3    H127348   3.547   4.159   3.934
 9157TIP3    H227349   3.506   4.033   3.861
 9158TIP3   OH227350   3.378   3.387   4.089
 9158TIP3    H127351   3.394   3.481   4.087
 9158TIP3    H227352   3.284   3.379   4.077
 9159TIP3   OH227353   4.720   4.845   4.400
 9159TIP3    H127354   4.667   4.905   4.346
 9159TIP3    H227355   4.809   4.877   4.389
 9160TIP3   OH227356   3.772   3.108   4.919
 9160TIP3    H127357   3.756   3.090   4.826
 9160TIP3    H227358   3.701   3.062   4.964
 9161TIP3   OH227359   3.302   4.375   4.314
 9161TIP3    H127360   3.256   4.407   4.392
 9161TIP3    H227361   3.255   4.416   4.241
 9162TIP3   OH227362   3.927   4.417   3.550
 9162TIP3    H127363   3.880   4.347   3.597
 9162TIP3    H227364   4.002   4.373   3.510
 9163TIP3   OH227365   4.371   4.459   3.473
 9163TIP3    H127366   4.406   4.394   3.534
 9163TIP3    H227367   4.429   4.453   3.397
 9164TIP3   OH227368   3.609   4.298   5.551
 9164TIP3    H127369   3.644   4.210   5.558
 9164TIP3    H227370   3.553   4.296   5.474
 9165TIP3   OH227371   3.597   3.907   3.771
 9165TIP3    H127372   3.646   3.882   3.850
 9165TIP3    H227373   3.664   3.921   3.705
 9166TIP3   OH227374   4.177   4.127   3.615
 9166TIP3    H127375   4.152   4.138   3.707
 9166TIP3    H227376   4.153   4.037   3.594
 9167TIP3   OH227377   4.748   4.380   4.928
 9167TIP3    H127378   4.764   4.371   4.834
 9167TIP3    H227379   4.658   4.414   4.934
 9168TIP3   OH227380   3.736   4.057   5.579
 9168TIP3    H127381   3.813   4.024   5.532
 9168TIP3    H227382   3.768   4.071   5.669
 9169TIP3   OH227383   3.765   3.847   3.988
 9169TIP3    H127384   3.741   3.816   4.075
 9169TIP3    H227385   3.813   3.774   3.949
 9170TIP3   OH227386   4.091   3.924   5.245
 9170TIP3    H127387   4.003   3.961   5.251
 9170TIP3    H227388   4.119   3.943   5.155
 9171TIP3   OH227389   3.909   3.668   3.829
 9171TIP3    H127390   3.879   3.672   3.738
 9171TIP3    H227391   4.004   3.679   3.823
 9172TIP3   OH227392   4.570   4.327   5.319
 9172TIP3    H127393   4.665   4.329   5.322
 9172TIP3    H227394   4.545   4.260   5.383
 9173TIP3   OH227395   4.702   3.949   3.513
 9173TIP3    H127396   4.688   3.912   3.426
 9173TIP3    H227397   4.681   4.042   3.502
 9174TIP3   OH227398   4.194   3.695   5.350
 9174TIP3    H127399   4.193   3.625   5.285
 9174TIP3    H227400   4.158   3.771   5.305
 9175TIP3   OH227401   4.194   3.500   5.142
 9175TIP3    H127402   4.220   3.542   5.060
 9175TIP3    H227403   4.102   3.477   5.129
 9176TIP3   OH227404   4.206   3.982   5.005
 9176TIP3    H127405   4.298   4.004   4.990
 9176TIP3    H227406   4.158   4.050   4.958
 9177TIP3   OH227407   4.788   3.994   5.390
 9177TIP3    H127408   4.840   3.914   5.400
 9177TIP3    H227409   4.851   4.061   5.364
 9178TIP3   OH227410   4.876   4.247   5.123
 9178TIP3    H127411   4.824   4.300   5.063
 9178TIP3    H227412   4.967   4.267   5.100
 9179TIP3   OH227413   4.077   3.782   5.594
 9179TIP3    H127414   4.007   3.721   5.614
 9179TIP3    H227415   4.104   3.760   5.505
 9180TIP3   OH227416   4.316   3.275   5.253
 9180TIP3    H127417   4.277   3.355   5.217
 9180TIP3    H227418   4.252   3.207   5.236
 9181TIP3   OH227419   4.447   3.737   5.456
 9181TIP3    H127420   4.434   3.727   5.550
 9181TIP3    H227421   4.362   3.717   5.417
 9182TIP3   OH227422   4.692   3.690   5.328
 9182TIP3    H127423   4.613   3.693   5.382
 9182TIP3    H227424   4.763   3.672   5.390
 9183TIP3   OH227425   4.931   3.666   5.475
 9183TIP3    H127426   4.944   3.571   5.482
 9183TIP3    H227427   4.925   3.696   5.566
 9184TIP3   OH227428   3.911   3.563   5.656
 9184TIP3    H127429   3.913   3.475   5.619
 9184TIP3    H227430   3.949   3.553   5.743
 9185TIP3   OH227431   4.380   3.245   5.518
 9185TIP3    H127432   4.452   3.183   5.508
 9185TIP3    H227433   4.350   3.262   5.429
 9186TIP3   OH227434   4.480   3.460   5.662
 9186TIP3    H127435   4.446   3.389   5.607
 9186TIP3    H227436   4.409   3.524   5.663
 9187TIP3   OH227437   3.738   4.717   3.769
 9187TIP3    H127438   3.827   4.694   3.741
 9187TIP3    H227439   3.700   4.761   3.693
 9188TIP3   OH227440   3.201   4.102   3.936
 9188TIP3    H127441   3.296   4.111   3.936
 9188TIP3    H227442   3.184   4.016   3.898
 9189TIP3   OH227443   3.102   4.680   4.404
 9189TIP3    H127444   3.036   4.627   4.358
 9189TIP3    H227445   3.147   4.619   4.462
 9190TIP3   OH227446   3.250   4.515   4.569
 9190TIP3    H127447   3.239   4.450   4.639
 9190TIP3    H227448   3.305   4.583   4.608
 9191TIP3   OH227449   4.976   4.942   4.358
 9191TIP3    H127450   4.976   5.032   4.391
 9191TIP3    H227451   5.047   4.940   4.294
 9192TIP3   OH227452   5.001   4.680   5.249
 9192TIP3    H127453   4.937   4.646   5.312
 9192TIP3    H227454   5.005   4.774   5.267
 9193TIP3   OH227455   4.881   4.163   3.837
 9193TIP3    H127456   4.936   4.236   3.810
 9193TIP3    H227457   4.925   4.126   3.913
 9194TIP3   OH227458   5.005   4.018   4.041
 9194TIP3    H127459   4.935   3.981   4.095
 9194TIP3    H227460   5.067   4.054   4.103
 9195TIP3   OH227461   5.047   4.423   4.493
 9195TIP3    H127462   5.094   4.355   4.445
 9195TIP3    H227463   5.041   4.496   4.431
 9196TIP3   OH227464   4.914   3.935   3.686
 9196TIP3    H127465   4.842   3.935   3.624
 9196TIP3    H227466   4.900   4.015   3.738
 9197TIP3   OH227467   4.767   3.579   3.623
 9197TIP3    H127468   4.716   3.619   3.552
 9197TIP3    H227469   4.759   3.485   3.608
 9198TIP3   OH227470   4.801   3.883   4.177
 9198TIP3    H127471   4.805   3.788   4.163
 9198TIP3    H227472   4.783   3.893   4.270
 9199TIP3   OH227473   3.411   3.943   4.959
 9199TIP3    H127474   3.400   3.910   4.870
 9199TIP3    H227475   3.506   3.941   4.973
 9200TIP3   OH227476   5.130   4.317   5.053
 9200TIP3    H127477   5.192   4.245   5.041
 9200TIP3    H227478   5.162   4.385   4.993
 9201TIP3   OH227479   5.281   4.086   5.036
 9201TIP3    H127480   5.203   4.046   5.072
 9201TIP3    H227481   5.351   4.023   5.053
 9202TIP3   OH227482   4.730   3.305   3.587
 9202TIP3    H127483   4.791   3.286   3.658
 9202TIP3    H227484   4.645   3.275   3.620
 9203TIP3   OH227485   4.796   3.606   4.066
 9203TIP3    H127486   4.842   3.522   4.077
 9203TIP3    H227487   4.835   3.644   3.987
 9204TIP3   OH227488   4.947   3.767   4.590
 9204TIP3    H127489   5.028   3.786   4.541
 9204TIP3    H227490   4.961   3.808   4.675
 9205TIP3   OH227491   5.022   3.916   4.817
 9205TIP3    H127492   4.950   3.942   4.875
 9205TIP3    H227493   5.043   3.996   4.769
 9206TIP3   OH227494   3.652   3.649   5.624
 9206TIP3    H127495   3.746   3.634   5.630
 9206TIP3    H227496   3.612   3.566   5.652
 9207TIP3   OH227497   5.489   3.512   5.359
 9207TIP3    H127498   5.555   3.457   5.316
 9207TIP3    H227499   5.450   3.563   5.287
 9208TIP3   OH227500   4.915   3.356   4.114
 9208TIP3    H127501   4.959   3.341   4.198
 9208TIP3    H227502   4.853   3.284   4.106
 9209TIP3   OH227503   3.646   3.348   4.998
 9209TIP3    H127504   3.690   3.270   4.966
 9209TIP3    H227505   3.679   3.419   4.943
 9210TIP3   OH227506   3.385   3.615   5.004
 9210TIP3    H127507   3.442   3.590   4.931
 9210TIP3    H227508   3.403   3.708   5.018
 9211TIP3   OH227509   5.337   3.635   5.168
 9211TIP3    H127510   5.263   3.676   5.213
 9211TIP3    H227511   5.298   3.571   5.110
 9212TIP3   OH227512   4.949   3.271   3.757
 9212TIP3    H127513   4.992   3.214   3.693
 9212TIP3    H227514   5.004   3.350   3.760
 9213TIP3   OH227515   4.536   4.836   4.029
 9213TIP3    H127516   4.593   4.825   3.954
 9213TIP3    H227517   4.583   4.895   4.087
 9214TIP3   OH227518   3.592   3.129   5.305
 9214TIP3    H127519   3.557   3.132   5.394
 9214TIP3    H227520   3.545   3.197   5.258
 9215TIP3   OH227521   5.245   3.389   5.051
 9215TIP3    H127522   5.161   3.388   5.005
 9215TIP3    H227523   5.276   3.299   5.045
 9216TIP3   OH227524   3.488   4.912   4.941
 9216TIP3    H127525   3.393   4.916   4.946
 9216TIP3    H227526   3.517   5.000   4.965
 9217TIP3   OH227527   3.751   4.905   4.831
 9217TIP3    H127528   3.667   4.892   4.875
 9217TIP3    H227529   3.729   4.934   4.743
 9218TIP3   OH227530   4.170   4.914   4.563
 9218TIP3    H127531   4.076   4.916   4.543
 9218TIP3    H227532   4.182   4.986   4.626
 9219TIP3   OH227533   3.410   4.719   4.719
 9219TIP3    H127534   3.450   4.764   4.793
 9219TIP3    H227535   3.482   4.671   4.678
 9220TIP3   OH227536   3.610   4.586   4.593
 9220TIP3    H127537   3.627   4.502   4.636
 9220TIP3    H227538   3.696   4.628   4.587
 9221TIP3   OH227539   3.872   4.681   4.616
 9221TIP3    H127540   3.909   4.594   4.605
 9221TIP3    H227541   3.904   4.710   4.702
 9222TIP3   OH227542   4.454   3.314   4.695
 9222TIP3    H127543   4.408   3.246   4.744
 9222TIP3    H227544   4.520   3.267   4.645
 9223TIP3   OH227545   4.953   3.227   4.575
 9223TIP3    H127546   4.989   3.278   4.502
 9223TIP3    H227547   4.860   3.249   4.576
 9224TIP3   OH227548   5.072   3.301   4.337
 9224TIP3    H127549   5.140   3.239   4.312
 9224TIP3    H227550   5.111   3.387   4.324
 9225TIP3   OH227551   3.706   3.021   4.667
 9225TIP3    H127552   3.613   3.001   4.655
 9225TIP3    H227553   3.749   2.935   4.665
 9226TIP3   OH227554   3.460   2.917   4.280
 9226TIP3    H127555   3.520   2.946   4.212
 9226TIP3    H227556   3.422   2.997   4.315
 9227TIP3   OH227557   4.191   3.037   4.582
 9227TIP3    H127558   4.225   3.090   4.510
 9227TIP3    H227559   4.222   3.082   4.661
 9228TIP3   OH227560   4.663   3.188   4.565
 9228TIP3    H127561   4.669   3.153   4.476
 9228TIP3    H227562   4.674   3.111   4.621
 9229TIP3   OH227563   4.733   3.143   4.121
 9229TIP3    H127564   4.654   3.192   4.145
 9229TIP3    H227565   4.721   3.057   4.160
 9230TIP3   OH227566   3.179   4.493   4.097
 9230TIP3    H127567   3.096   4.461   4.062
 9230TIP3    H227568   3.185   4.584   4.066
 9231TIP3   OH227569   3.626   3.043   4.090
 9231TIP3    H127570   3.677   2.988   4.031
 9231TIP3    H227571   3.690   3.100   4.132
 9232TIP3   OH227572   4.106   3.244   4.197
 9232TIP3    H127573   4.163   3.192   4.254
 9232TIP3    H227574   4.119   3.334   4.226
 9233TIP3   OH227575   3.991   4.638   3.697
 9233TIP3    H127576   4.075   4.665   3.658
 9233TIP3    H227577   3.961   4.568   3.640
 9234TIP3   OH227578   4.690   4.787   3.802
 9234TIP3    H127579   4.685   4.691   3.795
 9234TIP3    H227580   4.648   4.819   3.723
 9235TIP3   OH227581   3.919   3.290   5.563
 9235TIP3    H127582   3.883   3.224   5.621
 9235TIP3    H227583   4.010   3.300   5.590
 9236TIP3   OH227584   4.164   3.297   5.694
 9236TIP3    H127585   4.243   3.275   5.645
 9236TIP3    H227586   4.156   3.227   5.759
 9237TIP3   OH227587   3.305   4.484   3.754
 9237TIP3    H127588   3.304   4.489   3.850
 9237TIP3    H227589   3.384   4.436   3.733
 9238TIP3   OH227590   4.993   3.394   5.479
 9238TIP3    H127591   5.010   3.364   5.569
 9238TIP3    H227592   5.078   3.388   5.436
 9239TIP3   OH227593   6.184   4.306   3.721
 9239TIP3    H127594   6.149   4.394   3.704
 9239TIP3    H227595   6.114   4.247   3.694
 9240TIP3   OH227596   6.180   4.294   4.149
 9240TIP3    H127597   6.236   4.277   4.225
 9240TIP3    H227598   6.138   4.209   4.131
 9241TIP3   OH227599   5.481   4.149   4.469
 9241TIP3    H127600   5.509   4.101   4.547
 9241TIP3    H227601   5.562   4.173   4.425
 9242TIP3   OH227602   6.441   4.601   3.817
 9242TIP3    H127603   6.426   4.537   3.886
 9242TIP3    H227604   6.454   4.684   3.862
 9243TIP3   OH227605   5.503   4.612   4.202
 9243TIP3    H127606   5.478   4.519   4.198
 9243TIP3    H227607   5.592   4.614   4.167
 9244TIP3   OH227608   5.154   3.792   3.959
 9244TIP3    H127609   5.116   3.876   3.985
 9244TIP3    H227610   5.082   3.744   3.918
 9245TIP3   OH227611   5.228   4.099   4.187
 9245TIP3    H127612   5.281   4.024   4.216
 9245TIP3    H227613   5.291   4.157   4.144
 9246TIP3   OH227614   6.074   5.064   3.826
 9246TIP3    H127615   6.112   4.985   3.789
 9246TIP3    H227616   6.065   5.044   3.919
 9247TIP3   OH227617   6.017   4.524   4.164
 9247TIP3    H127618   6.057   4.443   4.133
 9247TIP3    H227619   6.090   4.579   4.189
 9248TIP3   OH227620   7.032   3.839   4.169
 9248TIP3    H127621   7.045   3.923   4.213
 9248TIP3    H227622   7.060   3.854   4.079
 9249TIP3   OH227623   6.391   4.012   4.185
 9249TIP3    H127624   6.423   3.926   4.214
 9249TIP3    H227625   6.358   3.997   4.097
 9250TIP3   OH227626   5.753   3.666   4.142
 9250TIP3    H127627   5.731   3.740   4.085
 9250TIP3    H227628   5.695   3.595   4.112
 9251TIP3   OH227629   6.451   3.773   3.784
 9251TIP3    H127630   6.515   3.766   3.856
 9251TIP3    H227631   6.502   3.807   3.711
 9252TIP3   OH227632   5.376   3.883   4.278
 9252TIP3    H127633   5.459   3.868   4.321
 9252TIP3    H227634   5.381   3.832   4.197
 9253TIP3   OH227635   5.798   4.081   4.089
 9253TIP3    H127636   5.892   4.065   4.092
 9253TIP3    H227637   5.762   4.000   4.054
 9254TIP3   OH227638   7.077   4.057   4.337
 9254TIP3    H127639   6.994   4.104   4.326
 9254TIP3    H227640   7.118   4.098   4.413
 9255TIP3   OH227641   5.732   3.672   4.597
 9255TIP3    H127642   5.684   3.708   4.523
 9255TIP3    H227643   5.676   3.687   4.673
 9256TIP3   OH227644   6.038   4.514   3.615
 9256TIP3    H127645   6.020   4.499   3.522
 9256TIP3    H227646   6.001   4.601   3.632
 9257TIP3   OH227647   5.839   4.449   4.357
 9257TIP3    H127648   5.768   4.512   4.350
 9257TIP3    H227649   5.902   4.476   4.289
 9258TIP3   OH227650   6.605   3.790   4.010
 9258TIP3    H127651   6.559   3.773   4.093
 9258TIP3    H227652   6.661   3.866   4.029
 9259TIP3   OH227653   5.627   3.778   4.364
 9259TIP3    H127654   5.683   3.852   4.387
 9259TIP3    H227655   5.673   3.735   4.292
 9260TIP3   OH227656   5.050   4.358   3.723
 9260TIP3    H127657   5.015   4.376   3.636
 9260TIP3    H227658   5.072   4.444   3.759
 9261TIP3   OH227659   6.465   4.834   3.969
 9261TIP3    H127660   6.391   4.858   4.025
 9261TIP3    H227661   6.489   4.916   3.926
 9262TIP3   OH227662   6.838   3.710   4.332
 9262TIP3    H127663   6.753   3.744   4.303
 9262TIP3    H227664   6.901   3.744   4.269
 9263TIP3   OH227665   6.075   3.363   4.332
 9263TIP3    H127666   6.070   3.271   4.358
 9263TIP3    H227667   5.998   3.404   4.370
 9264TIP3   OH227668   6.192   4.876   3.647
 9264TIP3    H127669   6.240   4.796   3.624
 9264TIP3    H227670   6.244   4.947   3.611
 9265TIP3   OH227671   6.345   4.663   3.563
 9265TIP3    H127672   6.357   4.589   3.505
 9265TIP3    H227673   6.383   4.635   3.647
 9266TIP3   OH227674   6.009   4.144   3.574
 9266TIP3    H127675   5.928   4.192   3.558
 9266TIP3    H227676   6.056   4.149   3.490
 9267TIP3   OH227677   5.979   3.958   3.260
 9267TIP3    H127678   6.044   4.007   3.311
 9267TIP3    H227679   6.029   3.892   3.214
 9268TIP3   OH227680   6.871   4.383   4.170
 9268TIP3    H127681   6.800   4.446   4.179
 9268TIP3    H227682   6.919   4.411   4.092
 9269TIP3   OH227683   6.371   4.238   3.532
 9269TIP3    H127684   6.315   4.265   3.605
 9269TIP3    H227685   6.454   4.215   3.573
 9270TIP3   OH227686   6.600   4.265   4.488
 9270TIP3    H127687   6.606   4.355   4.520
 9270TIP3    H227688   6.518   4.263   4.438
 9271TIP3   OH227689   5.591   4.213   3.948
 9271TIP3    H127690   5.556   4.155   3.880
 9271TIP3    H227691   5.667   4.167   3.983
 9272TIP3   OH227692   5.754   4.647   4.086
 9272TIP3    H127693   5.724   4.638   3.995
 9272TIP3    H227694   5.843   4.612   4.085
 9273TIP3   OH227695   5.710   4.205   4.318
 9273TIP3    H127696   5.741   4.171   4.235
 9273TIP3    H227697   5.759   4.287   4.330
 9274TIP3   OH227698   6.259   4.876   4.155
 9274TIP3    H127699   6.212   4.925   4.223
 9274TIP3    H227700   6.254   4.785   4.184
 9275TIP3   OH227701   6.202   4.095   3.365
 9275TIP3    H127702   6.262   4.154   3.413
 9275TIP3    H227703   6.232   4.099   3.275
 9276TIP3   OH227704   5.937   4.775   3.631
 9276TIP3    H127705   6.024   4.813   3.643
 9276TIP3    H227706   5.890   4.839   3.577
 9277TIP3   OH227707   6.712   3.325   3.428
 9277TIP3    H127708   6.637   3.348   3.482
 9277TIP3    H227709   6.723   3.400   3.369
 9278TIP3   OH227710   5.470   4.058   3.742
 9278TIP3    H127711   5.395   4.109   3.711
 9278TIP3    H227712   5.436   3.970   3.755
 9279TIP3   OH227713   6.539   4.701   2.979
 9279TIP3    H127714   6.531   4.794   2.958
 9279TIP3    H227715   6.629   4.679   2.954
 9280TIP3   OH227716   5.284   4.460   4.648
 9280TIP3    H127717   5.205   4.445   4.596
 9280TIP3    H227718   5.311   4.373   4.676
 9281TIP3   OH227719   5.070   4.667   4.341
 9281TIP3    H127720   5.152   4.701   4.377
 9281TIP3    H227721   5.005   4.734   4.362
 9282TIP3   OH227722   5.846   4.987   3.455
 9282TIP3    H127723   5.807   4.966   3.370
 9282TIP3    H227724   5.809   5.072   3.478
 9283TIP3   OH227725   5.276   4.849   3.834
 9283TIP3    H127726   5.319   4.840   3.919
 9283TIP3    H227727   5.227   4.768   3.823
 9284TIP3   OH227728   6.043   4.925   3.081
 9284TIP3    H127729   6.093   4.851   3.047
 9284TIP3    H227730   6.080   4.942   3.167
 9285TIP3   OH227731   6.102   4.981   3.347
 9285TIP3    H127732   6.022   4.970   3.398
 9285TIP3    H227733   6.173   4.978   3.411
 9286TIP3   OH227734   6.831   4.227   4.662
 9286TIP3    H127735   6.751   4.233   4.609
 9286TIP3    H227736   6.854   4.134   4.659
 9287TIP3   OH227737   5.837   3.454   4.456
 9287TIP3    H127738   5.754   3.421   4.424
 9287TIP3    H227739   5.815   3.536   4.502
 9288TIP3   OH227740   6.378   3.582   4.658
 9288TIP3    H127741   6.449   3.559   4.718
 9288TIP3    H227742   6.298   3.564   4.707
 9289TIP3   OH227743   6.596   3.995   4.565
 9289TIP3    H127744   6.562   3.988   4.655
 9289TIP3    H227745   6.585   4.087   4.543
 9290TIP3   OH227746   6.279   4.067   3.101
 9290TIP3    H127747   6.233   4.077   3.018
 9290TIP3    H227748   6.363   4.112   3.087
 9291TIP3   OH227749   5.986   3.495   3.426
 9291TIP3    H127750   5.950   3.500   3.515
 9291TIP3    H227751   5.951   3.413   3.391
 9292TIP3   OH227752   5.787   3.983   4.462
 9292TIP3    H127753   5.736   3.989   4.543
 9292TIP3    H227754   5.765   4.064   4.415
 9293TIP3   OH227755   5.655   3.867   3.984
 9293TIP3    H127756   5.565   3.845   4.009
 9293TIP3    H227757   5.663   3.836   3.894
 9294TIP3   OH227758   6.133   3.940   3.709
 9294TIP3    H127759   6.086   4.013   3.669
 9294TIP3    H227760   6.192   3.909   3.641
 9295TIP3   OH227761   6.336   4.198   4.781
 9295TIP3    H127762   6.311   4.129   4.842
 9295TIP3    H227763   6.427   4.218   4.802
 9296TIP3   OH227764   6.301   3.958   3.933
 9296TIP3    H127765   6.234   3.979   3.868
 9296TIP3    H227766   6.351   3.886   3.894
 9297TIP3   OH227767   5.609   3.996   4.670
 9297TIP3    H127768   5.654   4.054   4.732
 9297TIP3    H227769   5.586   3.919   4.721
 9298TIP3   OH227770   5.654   3.471   3.401
 9298TIP3    H127771   5.645   3.482   3.496
 9298TIP3    H227772   5.577   3.514   3.365
 9299TIP3   OH227773   5.208   3.522   4.267
 9299TIP3    H127774   5.276   3.560   4.324
 9299TIP3    H227775   5.247   3.522   4.180
 9300TIP3   OH227776   5.105   3.502   3.764
 9300TIP3    H127777   5.147   3.538   3.686
 9300TIP3    H227778   5.040   3.569   3.789
 9301TIP3   OH227779   6.346   4.210   4.363
 9301TIP3    H127780   6.372   4.146   4.298
 9301TIP3    H227781   6.305   4.159   4.433
 9302TIP3   OH227782   6.020   3.652   4.031
 9302TIP3    H127783   5.942   3.653   4.087
 9302TIP3    H227784   6.093   3.644   4.093
 9303TIP3   OH227785   5.414   3.746   4.043
 9303TIP3    H127786   5.326   3.751   4.005
 9303TIP3    H227787   5.442   3.656   4.027
 9304TIP3   OH227788   5.668   3.746   3.737
 9304TIP3    H127789   5.762   3.758   3.729
 9304TIP3    H227790   5.634   3.763   3.649
 9305TIP3   OH227791   6.453   3.749   4.243
 9305TIP3    H127792   6.436   3.765   4.335
 9305TIP3    H227793   6.386   3.686   4.216
 9306TIP3   OH227794   5.562   3.761   3.485
 9306TIP3    H127795   5.498   3.715   3.432
 9306TIP3    H227796   5.614   3.812   3.423
 9307TIP3   OH227797   6.071   4.026   4.138
 9307TIP3    H127798   6.138   3.981   4.086
 9307TIP3    H227799   6.071   3.981   4.222
 9308TIP3   OH227800   5.554   3.496   4.029
 9308TIP3    H127801   5.528   3.420   4.081
 9308TIP3    H227802   5.572   3.461   3.942
 9309TIP3   OH227803   6.048   3.923   4.400
 9309TIP3    H127804   5.960   3.951   4.426
 9309TIP3    H227805   6.107   3.973   4.457
 9310TIP3   OH227806   5.771   4.282   3.523
 9310TIP3    H127807   5.695   4.230   3.498
 9310TIP3    H227808   5.745   4.324   3.605
 9311TIP3   OH227809   6.653   4.561   4.155
 9311TIP3    H127810   6.698   4.618   4.093
 9311TIP3    H227811   6.580   4.524   4.106
 9312TIP3   OH227812   6.240   3.599   3.432
 9312TIP3    H127813   6.146   3.580   3.426
 9312TIP3    H227814   6.244   3.695   3.441
 9313TIP3   OH227815   6.300   3.865   3.496
 9313TIP3    H127816   6.394   3.870   3.507
 9313TIP3    H227817   6.277   3.943   3.444
 9314TIP3   OH227818   5.481   4.333   4.172
 9314TIP3    H127819   5.514   4.300   4.089
 9314TIP3    H227820   5.526   4.280   4.238
 9315TIP3   OH227821   5.925   4.440   3.362
 9315TIP3    H127822   5.878   4.523   3.358
 9315TIP3    H227823   5.871   4.384   3.417
 9316TIP3   OH227824   5.318   4.221   4.791
 9316TIP3    H127825   5.330   4.180   4.876
 9316TIP3    H227826   5.236   4.186   4.758
 9317TIP3   OH227827   6.095   4.329   4.821
 9317TIP3    H127828   6.060   4.355   4.736
 9317TIP3    H227829   6.179   4.288   4.801
 9318TIP3   OH227830   6.709   3.957   3.311
 9318TIP3    H127831   6.651   3.912   3.250
 9318TIP3    H227832   6.717   4.046   3.277
 9319TIP3   OH227833   6.460   4.776   3.241
 9319TIP3    H127834   6.427   4.706   3.297
 9319TIP3    H227835   6.480   4.733   3.158
 9320TIP3   OH227836   6.420   4.412   4.035
 9320TIP3    H127837   6.332   4.377   4.050
 9320TIP3    H227838   6.468   4.339   3.996
 9321TIP3   OH227839   5.603   4.646   3.849
 9321TIP3    H127840   5.608   4.721   3.789
 9321TIP3    H227841   5.510   4.633   3.863
 9322TIP3   OH227842   5.158   3.926   3.555
 9322TIP3    H127843   5.198   4.010   3.576
 9322TIP3    H227844   5.075   3.926   3.603
 9323TIP3   OH227845   5.667   4.395   3.746
 9323TIP3    H127846   5.662   4.485   3.778
 9323TIP3    H227847   5.641   4.342   3.822
 9324TIP3   OH227848   5.514   4.864   3.693
 9324TIP3    H127849   5.427   4.873   3.730
 9324TIP3    H227850   5.549   4.953   3.691
 9325TIP3   OH227851   6.277   4.609   4.241
 9325TIP3    H127852   6.339   4.628   4.312
 9325TIP3    H227853   6.327   4.553   4.181
 9326TIP3   OH227854   6.231   4.510   3.143
 9326TIP3    H127855   6.271   4.494   3.228
 9326TIP3    H227856   6.147   4.466   3.146
 9327TIP3   OH227857   6.524   4.973   2.936
 9327TIP3    H127858   6.529   5.028   2.858
 9327TIP3    H227859   6.459   5.015   2.991
 9328TIP3   OH227860   5.556   3.748   4.800
 9328TIP3    H127861   5.461   3.760   4.805
 9328TIP3    H227862   5.578   3.700   4.880
 9329TIP3   OH227863   6.398   4.458   3.366
 9329TIP3    H127864   6.382   4.382   3.422
 9329TIP3    H227865   6.492   4.453   3.346
 9330TIP3   OH227866   5.277   4.818   4.470
 9330TIP3    H127867   5.354   4.762   4.478
 9330TIP3    H227868   5.251   4.837   4.560
 9331TIP3   OH227869   5.574   4.470   3.148
 9331TIP3    H127870   5.584   4.379   3.122
 9331TIP3    H227871   5.560   4.467   3.242
 9332TIP3   OH227872   5.514   4.486   3.420
 9332TIP3    H127873   5.581   4.462   3.484
 9332TIP3    H227874   5.511   4.582   3.424
 9333TIP3   OH227875   5.246   4.180   3.633
 9333TIP3    H127876   5.181   4.229   3.683
 9333TIP3    H227877   5.266   4.237   3.558
 9334TIP3   OH227878   6.399   3.811   4.506
 9334TIP3    H127879   6.479   3.856   4.533
 9334TIP3    H227880   6.394   3.734   4.563
 9335TIP3   OH227881   6.304   3.552   3.698
 9335TIP3    H127882   6.283   3.571   3.607
 9335TIP3    H227883   6.347   3.632   3.730
 9336TIP3   OH227884   5.780   4.668   3.356
 9336TIP3    H127885   5.698   4.695   3.396
 9336TIP3    H227886   5.807   4.743   3.304
 9337TIP3   OH227887   5.946   3.750   3.781
 9337TIP3    H127888   6.008   3.818   3.754
 9337TIP3    H227889   5.972   3.729   3.870
 9338TIP3   OH227890   6.244   4.044   4.558
 9338TIP3    H127891   6.275   4.086   4.638
 9338TIP3    H227892   6.294   3.962   4.553
 9339TIP3   OH227893   6.115   3.444   3.867
 9339TIP3    H127894   6.091   3.520   3.921
 9339TIP3    H227895   6.187   3.475   3.813
 9340TIP3   OH227896   5.533   4.758   3.440
 9340TIP3    H127897   5.516   4.830   3.379
 9340TIP3    H227898   5.526   4.797   3.527
 9341TIP3   OH227899   5.624   3.472   3.682
 9341TIP3    H127900   5.611   3.564   3.707
 9341TIP3    H227901   5.719   3.460   3.690
 9342TIP3   OH227902   6.867   3.964   4.559
 9342TIP3    H127903   6.772   3.955   4.560
 9342TIP3    H227904   6.891   3.957   4.467
 9343TIP3   OH227905   6.529   4.156   3.937
 9343TIP3    H127906   6.453   4.099   3.947
 9343TIP3    H227907   6.596   4.115   3.991
 9344TIP3   OH227908   5.271   4.352   3.413
 9344TIP3    H127909   5.342   4.416   3.421
 9344TIP3    H227910   5.302   4.290   3.347
 9345TIP3   OH227911   5.169   3.646   3.538
 9345TIP3    H127912   5.187   3.739   3.552
 9345TIP3    H227913   5.104   3.645   3.468
 9346TIP3   OH227914   6.530   5.085   3.864
 9346TIP3    H127915   6.480   5.147   3.811
 9346TIP3    H227916   6.617   5.124   3.871
 9347TIP3   OH227917   5.577   3.368   4.412
 9347TIP3    H127918   5.546   3.337   4.327
 9347TIP3    H227919   5.568   3.293   4.470
 9348TIP3   OH227920   5.098   4.628   3.805
 9348TIP3    H127921   5.055   4.663   3.883
 9348TIP3    H227922   5.052   4.671   3.732
 9349TIP3   OH227923   5.724   4.676   3.039
 9349TIP3    H127924   5.678   4.605   3.084
 9349TIP3    H227925   5.799   4.634   2.997
 9350TIP3   OH227926   6.169   4.712   2.963
 9350TIP3    H127927   6.208   4.650   3.024
 9350TIP3    H227928   6.225   4.708   2.885
 9351TIP3   OH227929   5.525   4.559   4.983
 9351TIP3    H127930   5.550   4.468   5.003
 9351TIP3    H227931   5.431   4.553   4.962
 9352TIP3   OH227932   5.391   4.162   3.258
 9352TIP3    H127933   5.442   4.139   3.335
 9352TIP3    H227934   5.457   4.177   3.189
 9353TIP3   OH227935   5.982   4.384   3.101
 9353TIP3    H127936   5.953   4.395   3.191
 9353TIP3    H227937   5.957   4.294   3.078
 9354TIP3   OH227938   6.487   4.699   4.410
 9354TIP3    H127939   6.549   4.702   4.337
 9354TIP3    H227940   6.464   4.791   4.426
 9355TIP3   OH227941   5.621   4.313   5.070
 9355TIP3    H127942   5.674   4.233   5.068
 9355TIP3    H227943   5.609   4.330   5.164
 9356TIP3   OH227944   5.562   4.106   3.472
 9356TIP3    H127945   5.544   4.075   3.561
 9356TIP3    H227946   5.613   4.035   3.432
 9357TIP3   OH227947   5.848   4.164   4.731
 9357TIP3    H127948   5.858   4.227   4.803
 9357TIP3    H227949   5.893   4.206   4.658
 9358TIP3   OH227950   5.709   3.924   3.319
 9358TIP3    H127951   5.679   3.929   3.229
 9358TIP3    H227952   5.804   3.935   3.314
 9359TIP3   OH227953   6.351   4.582   4.853
 9359TIP3    H127954   6.424   4.564   4.794
 9359TIP3    H227955   6.363   4.521   4.925
 9360TIP3   OH227956   6.498   4.205   3.001
 9360TIP3    H127957   6.487   4.166   2.914
 9360TIP3    H227958   6.476   4.298   2.989
 9361TIP3   OH227959   5.983   3.949   4.838
 9361TIP3    H127960   5.991   3.875   4.777
 9361TIP3    H227961   5.941   4.018   4.787
 9362TIP3   OH227962   5.993   3.754   4.634
 9362TIP3    H127963   6.022   3.787   4.549
 9362TIP3    H227964   5.902   3.729   4.619
 9363TIP3   OH227965   5.996   4.316   4.549
 9363TIP3    H127966   6.077   4.302   4.500
 9363TIP3    H227967   5.941   4.367   4.490
 9364TIP3   OH227968   6.596   4.246   4.886
 9364TIP3    H127969   6.650   4.167   4.894
 9364TIP3    H227970   6.660   4.316   4.870
 9365TIP3   OH227971   6.631   4.528   4.583
 9365TIP3    H127972   6.575   4.588   4.533
 9365TIP3    H227973   6.720   4.547   4.554
 9366TIP3   OH227974   5.859   4.044   5.074
 9366TIP3    H127975   5.795   3.977   5.100
 9366TIP3    H227976   5.893   4.014   4.990
 9367TIP3   OH227977   6.114   3.527   4.740
 9367TIP3    H127978   6.074   3.607   4.705
 9367TIP3    H227979   6.048   3.459   4.727
 9368TIP3   OH227980   6.243   3.992   4.936
 9368TIP3    H127981   6.234   3.982   5.031
 9368TIP3    H227982   6.156   3.973   4.902
 9369TIP3   OH227983   6.493   3.944   4.810
 9369TIP3    H127984   6.414   3.943   4.865
 9369TIP3    H227985   6.565   3.928   4.870
 9370TIP3   OH227986   6.723   3.920   4.966
 9370TIP3    H127987   6.738   3.826   4.971
 9370TIP3    H227988   6.719   3.950   5.057
 9371TIP3   OH227989   5.709   3.816   5.144
 9371TIP3    H127990   5.714   3.728   5.106
 9371TIP3    H227991   5.748   3.807   5.231
 9372TIP3   OH227992   6.180   3.504   5.005
 9372TIP3    H127993   6.249   3.438   4.998
 9372TIP3    H227994   6.150   3.516   4.915
 9373TIP3   OH227995   6.272   3.720   5.150
 9373TIP3    H127996   6.243   3.647   5.095
 9373TIP3    H227997   6.199   3.782   5.148
 9374TIP3   OH227998   5.533   4.967   3.259
 9374TIP3    H127999   5.623   4.950   3.231
 9374TIP3    H228000   5.493   5.009   3.183
 9375TIP3   OH228001   4.997   4.355   3.432
 9375TIP3    H128002   5.092   4.365   3.427
 9375TIP3    H228003   4.980   4.270   3.391
 9376TIP3   OH228004   4.900   4.936   3.897
 9376TIP3    H128005   4.834   4.884   3.851
 9376TIP3    H228006   4.944   4.873   3.954
 9377TIP3   OH228007   5.045   4.761   4.059
 9377TIP3    H128008   5.027   4.695   4.126
 9377TIP3    H228009   5.103   4.824   4.101
 9378TIP3   OH228010   6.787   5.198   3.884
 9378TIP3    H128011   6.859   5.159   3.934
 9378TIP3    H228012   6.827   5.220   3.799
 9379TIP3   OH228013   6.849   4.913   4.733
 9379TIP3    H128014   6.774   4.927   4.791
 9379TIP3    H228015   6.893   4.998   4.731
 9380TIP3   OH228016   6.675   4.423   3.331
 9380TIP3    H128017   6.730   4.494   3.298
 9380TIP3    H228018   6.725   4.385   3.403
 9381TIP3   OH228019   6.812   4.281   3.530
 9381TIP3    H128020   6.744   4.247   3.588
 9381TIP3    H228021   6.876   4.320   3.589
 9382TIP3   OH228022   6.859   4.687   3.998
 9382TIP3    H128023   6.907   4.612   3.962
 9382TIP3    H228024   6.866   4.754   3.929
 9383TIP3   OH228025   6.710   4.197   3.176
 9383TIP3    H128026   6.638   4.195   3.113
 9383TIP3    H228027   6.695   4.276   3.228
 9384TIP3   OH228028   6.553   3.843   3.117
 9384TIP3    H128029   6.507   3.879   3.041
 9384TIP3    H228030   6.548   3.748   3.106
 9385TIP3   OH228031   6.600   4.148   3.667
 9385TIP3    H128032   6.608   4.053   3.655
 9385TIP3    H228033   6.582   4.160   3.760
 9386TIP3   OH228034   5.212   4.200   4.441
 9386TIP3    H128035   5.200   4.169   4.351
 9386TIP3    H228036   5.306   4.195   4.456
 9387TIP3   OH228037   6.892   4.566   4.494
 9387TIP3    H128038   6.946   4.487   4.495
 9387TIP3    H228039   6.907   4.604   4.408
 9388TIP3   OH228040   7.036   4.331   4.513
 9388TIP3    H128041   6.967   4.296   4.569
 9388TIP3    H228042   7.115   4.284   4.540
 9389TIP3   OH228043   6.523   3.571   3.085
 9389TIP3    H128044   6.588   3.545   3.149
 9389TIP3    H228045   6.441   3.533   3.117
 9390TIP3   OH228046   6.590   3.863   3.553
 9390TIP3    H128047   6.638   3.781   3.565
 9390TIP3    H228048   6.630   3.903   3.476
 9391TIP3   OH228049   6.741   4.026   4.076
 9391TIP3    H128050   6.821   4.046   4.027
 9391TIP3    H228051   6.756   4.063   4.163
 9392TIP3   OH228052   6.813   4.161   4.313
 9392TIP3    H128053   6.743   4.192   4.371
 9392TIP3    H228054   6.839   4.238   4.263
 9393TIP3   OH228055   5.445   3.873   5.082
 9393TIP3    H128056   5.539   3.870   5.103
 9393TIP3    H228057   5.410   3.792   5.120
 9394TIP3   OH228058   7.279   3.777   4.841
 9394TIP3    H128059   7.345   3.720   4.802
 9394TIP3    H228060   7.242   3.826   4.767
 9395TIP3   OH228061   6.710   3.615   3.604
 9395TIP3    H128062   6.757   3.600   3.686
 9395TIP3    H228063   6.648   3.543   3.598
 9396TIP3   OH228064   5.417   3.596   4.435
 9396TIP3    H128065   5.471   3.517   4.438
 9396TIP3    H228066   5.479   3.666   4.415
 9397TIP3   OH228067   5.191   3.859   4.492
 9397TIP3    H128068   5.246   3.852   4.414
 9397TIP3    H228069   5.207   3.947   4.526
 9398TIP3   OH228070   7.128   3.892   4.646
 9398TIP3    H128071   7.047   3.933   4.676
 9398TIP3    H228072   7.099   3.818   4.592
 9399TIP3   OH228073   6.749   3.522   3.240
 9399TIP3    H128074   6.799   3.463   3.184
 9399TIP3    H228075   6.801   3.602   3.244
 9400TIP3   OH228076   5.176   3.352   3.981
 9400TIP3    H128077   5.093   3.349   4.029
 9400TIP3    H228078   5.160   3.413   3.910
 9401TIP3   OH228079   6.319   5.076   3.512
 9401TIP3    H128080   6.383   5.069   3.441
 9401TIP3    H228081   6.360   5.135   3.575
 9402TIP3   OH228082   5.407   3.413   4.816
 9402TIP3    H128083   5.360   3.414   4.899
 9402TIP3    H228084   5.354   3.467   4.757
 9403TIP3   OH228085   7.041   3.650   4.534
 9403TIP3    H128086   6.960   3.655   4.482
 9403TIP3    H228087   7.067   3.558   4.527
 9404TIP3   OH228088   5.281   5.206   4.453
 9404TIP3    H128089   5.197   5.216   4.408
 9404TIP3    H228090   5.257   5.179   4.542
 9405TIP3   OH228091   5.531   5.161   4.355
 9405TIP3    H128092   5.443   5.181   4.388
 9405TIP3    H228093   5.524   5.172   4.260
 9406TIP3   OH228094   5.937   5.140   4.101
 9406TIP3    H128095   5.873   5.183   4.044
 9406TIP3    H228096   5.978   5.212   4.149
 9407TIP3   OH228097   5.216   4.935   4.215
 9407TIP3    H128098   5.240   4.913   4.305
 9407TIP3    H228099   5.291   4.909   4.162
 9408TIP3   OH228100   5.426   4.840   4.070
 9408TIP3    H128101   5.444   4.759   4.118
 9408TIP3    H228102   5.511   4.884   4.066
 9409TIP3   OH228103   5.699   4.933   4.083
 9409TIP3    H128104   5.724   4.841   4.079
 9409TIP3    H228105   5.776   4.977   4.121
 9410TIP3   OH228106   6.245   3.562   4.175
 9410TIP3    H128107   6.206   3.491   4.227
 9410TIP3    H228108   6.314   3.519   4.125
 9411TIP3   OH228109   6.753   3.478   4.056
 9411TIP3    H128110   6.794   3.527   3.985
 9411TIP3    H228111   6.666   3.518   4.065
 9412TIP3   OH228112   6.870   3.560   3.823
 9412TIP3    H128113   6.938   3.498   3.797
 9412TIP3    H228114   6.910   3.646   3.811
 9413TIP3   OH228115   5.488   3.265   4.171
 9413TIP3    H128116   5.399   3.232   4.184
 9413TIP3    H228117   5.543   3.186   4.165
 9414TIP3   OH228118   5.281   3.155   3.813
 9414TIP3    H128119   5.318   3.207   3.741
 9414TIP3    H228120   5.249   3.219   3.876
 9415TIP3   OH228121   5.975   3.301   4.070
 9415TIP3    H128122   6.024   3.349   4.003
 9415TIP3    H228123   6.014   3.330   4.153
 9416TIP3   OH228124   6.455   3.438   4.048
 9416TIP3    H128125   6.487   3.407   3.963
 9416TIP3    H228126   6.468   3.364   4.107
 9417TIP3   OH228127   6.524   3.404   3.612
 9417TIP3    H128128   6.446   3.452   3.639
 9417TIP3    H228129   6.513   3.317   3.650
 9418TIP3   OH228130   4.974   4.749   3.590
 9418TIP3    H128131   4.891   4.718   3.554
 9418TIP3    H228132   4.982   4.839   3.558
 9419TIP3   OH228133   5.414   3.298   3.598
 9419TIP3    H128134   5.463   3.242   3.538
 9419TIP3    H228135   5.479   3.360   3.631
 9420TIP3   OH228136   5.901   3.495   3.691
 9420TIP3    H128137   5.966   3.451   3.746
 9420TIP3    H228138   5.911   3.588   3.713
 9421TIP3   OH228139   5.790   4.896   3.188
 9421TIP3    H128140   5.873   4.924   3.148
 9421TIP3    H228141   5.758   4.827   3.129
 9422TIP3   OH228142   6.487   5.043   3.291
 9422TIP3    H128143   6.484   4.948   3.280
 9422TIP3    H228144   6.445   5.078   3.213
 9423TIP3   OH228145   5.721   3.545   5.054
 9423TIP3    H128146   5.686   3.480   5.115
 9423TIP3    H228147   5.813   3.554   5.079
 9424TIP3   OH228148   5.966   3.554   5.181
 9424TIP3    H128149   6.043   3.533   5.129
 9424TIP3    H228150   5.961   3.485   5.247
 9425TIP3   OH228151   5.096   4.741   3.238
 9425TIP3    H128152   5.098   4.755   3.333
 9425TIP3    H228153   5.176   4.693   3.219
 9426TIP3   OH228154   6.788   3.649   4.964
 9426TIP3    H128155   6.805   3.620   5.054
 9426TIP3    H228156   6.873   3.644   4.920
 9427TIP3   OH228157   7.985   4.567   3.203
 9427TIP3    H128158   7.954   4.655   3.181
 9427TIP3    H228159   7.911   4.509   3.181
 9428TIP3   OH228160   7.976   4.558   3.633
 9428TIP3    H128161   8.029   4.546   3.712
 9428TIP3    H228162   7.931   4.474   3.621
 9429TIP3   OH228163   7.273   4.419   3.978
 9429TIP3    H128164   7.313   4.366   4.047
 9429TIP3    H228165   7.347   4.451   3.927
 9430TIP3   OH228166   8.252   4.868   3.304
 9430TIP3    H128167   8.238   4.803   3.372
 9430TIP3    H228168   8.272   4.949   3.351
 9431TIP3   OH228169   7.232   4.832   3.695
 9431TIP3    H128170   7.228   4.738   3.677
 9431TIP3    H228171   7.321   4.847   3.727
 9432TIP3   OH228172   6.951   4.048   3.448
 9432TIP3    H128173   6.916   4.133   3.473
 9432TIP3    H228174   6.877   4.003   3.406
 9433TIP3   OH228175   7.033   4.370   3.681
 9433TIP3    H128176   7.084   4.293   3.706
 9433TIP3    H228177   7.099   4.436   3.658
 9434TIP3   OH228178   7.889   5.320   3.304
 9434TIP3    H128179   7.920   5.235   3.273
 9434TIP3    H228180   7.870   5.306   3.397
 9435TIP3   OH228181   7.787   4.781   3.648
 9435TIP3    H128182   7.833   4.702   3.619
 9435TIP3    H228183   7.857   4.837   3.683
 9436TIP3   OH228184   8.768   4.103   3.679
 9436TIP3    H128185   8.784   4.188   3.719
 9436TIP3    H228186   8.804   4.110   3.591
 9437TIP3   OH228187   8.187   4.265   3.675
 9437TIP3    H128188   8.219   4.179   3.703
 9437TIP3    H228189   8.152   4.250   3.587
 9438TIP3   OH228190   7.545   3.922   3.630
 9438TIP3    H128191   7.525   3.997   3.574
 9438TIP3    H228192   7.488   3.852   3.599
 9439TIP3   OH228193   8.247   4.030   3.272
 9439TIP3    H128194   8.311   4.022   3.343
 9439TIP3    H228195   8.297   4.067   3.199
 9440TIP3   OH228196   7.170   4.143   3.765
 9440TIP3    H128197   7.254   4.127   3.808
 9440TIP3    H228198   7.175   4.093   3.684
 9441TIP3   OH228199   7.591   4.344   3.577
 9441TIP3    H128200   7.685   4.330   3.586
 9441TIP3    H228201   7.557   4.261   3.545
 9442TIP3   OH228202   8.825   4.321   3.836
 9442TIP3    H128203   8.749   4.377   3.819
 9442TIP3    H228204   8.875   4.368   3.903
 9443TIP3   OH228205   7.530   3.933   4.084
 9443TIP3    H128206   7.481   3.972   4.011
 9443TIP3    H228207   7.476   3.951   4.161
 9444TIP3   OH228208   7.881   4.787   3.070
 9444TIP3    H128209   7.840   4.756   2.989
 9444TIP3    H228210   7.827   4.862   3.096
 9445TIP3   OH228211   7.607   4.715   3.854
 9445TIP3    H128212   7.561   4.785   3.900
 9445TIP3    H228213   7.657   4.760   3.786
 9446TIP3   OH228214   8.408   4.038   3.494
 9446TIP3    H128215   8.357   4.021   3.574
 9446TIP3    H228216   8.457   4.117   3.514
 9447TIP3   OH228217   7.420   4.038   3.852
 9447TIP3    H128218   7.474   4.115   3.872
 9447TIP3    H228219   7.467   3.995   3.780
 9448TIP3   OH228220   7.467   4.913   3.983
 9448TIP3    H128221   7.500   4.999   3.956
 9448TIP3    H228222   7.418   4.930   4.063
 9449TIP3   OH228223   6.841   4.615   3.209
 9449TIP3    H128224   6.808   4.635   3.122
 9449TIP3    H228225   6.864   4.701   3.247
 9450TIP3   OH228226   8.289   5.114   3.444
 9450TIP3    H128227   8.206   5.100   3.490
 9450TIP3    H228228   8.278   5.198   3.400
 9451TIP3   OH228229   8.592   3.959   3.834
 9451TIP3    H128230   8.505   3.993   3.811
 9451TIP3    H228231   8.651   4.003   3.772
 9452TIP3   OH228232   7.866   3.622   3.820
 9452TIP3    H128233   7.860   3.530   3.845
 9452TIP3    H228234   7.789   3.663   3.858
 9453TIP3   OH228235   7.993   5.136   3.107
 9453TIP3    H128236   8.048   5.059   3.094
 9453TIP3    H228237   8.047   5.210   3.081
 9454TIP3   OH228238   8.135   4.907   3.056
 9454TIP3    H128239   8.058   4.851   3.060
 9454TIP3    H228240   8.184   4.887   3.136
 9455TIP3   OH228241   8.498   5.011   3.798
 9455TIP3    H128242   8.485   4.937   3.738
 9455TIP3    H228243   8.491   5.088   3.742
 9456TIP3   OH228244   7.807   4.403   3.061
 9456TIP3    H128245   7.723   4.446   3.045
 9456TIP3    H228246   7.853   4.406   2.978
 9457TIP3   OH228247   7.773   4.215   2.752
 9457TIP3    H128248   7.839   4.264   2.802
 9457TIP3    H228249   7.823   4.147   2.706
 9458TIP3   OH228250   8.681   4.664   3.659
 9458TIP3    H128251   8.600   4.715   3.661
 9458TIP3    H228252   8.713   4.675   3.570
 9459TIP3   OH228253   8.170   4.489   3.019
 9459TIP3    H128254   8.115   4.521   3.091
 9459TIP3    H228255   8.254   4.469   3.061
 9460TIP3   OH228256   8.382   4.529   3.976
 9460TIP3    H128257   8.380   4.615   4.018
 9460TIP3    H228258   8.301   4.525   3.926
 9461TIP3   OH228259   7.393   4.474   3.424
 9461TIP3    H128260   7.360   4.412   3.359
 9461TIP3    H228261   7.467   4.430   3.464
 9462TIP3   OH228262   7.538   4.914   3.573
 9462TIP3    H128263   7.513   4.898   3.482
 9462TIP3    H228264   7.623   4.870   3.583
 9463TIP3   OH228265   7.486   4.477   3.800
 9463TIP3    H128266   7.529   4.444   3.721
 9463TIP3    H228267   7.530   4.560   3.818
 9464TIP3   OH228268   8.063   5.092   3.589
 9464TIP3    H128269   8.036   5.177   3.623
 9464TIP3    H228270   8.032   5.029   3.655
 9465TIP3   OH228271   7.999   4.352   2.853
 9465TIP3    H128272   8.058   4.411   2.900
 9465TIP3    H228273   8.029   4.356   2.762
 9466TIP3   OH228274   7.443   4.538   4.241
 9466TIP3    H128275   7.451   4.623   4.284
 9466TIP3    H228276   7.349   4.521   4.238
 9467TIP3   OH228277   7.742   5.026   3.106
 9467TIP3    H128278   7.825   5.072   3.116
 9467TIP3    H228279   7.686   5.088   3.060
 9468TIP3   OH228280   8.489   3.588   2.908
 9468TIP3    H128281   8.415   3.611   2.965
 9468TIP3    H228282   8.501   3.664   2.853
 9469TIP3   OH228283   7.268   4.314   3.224
 9469TIP3    H128284   7.191   4.364   3.197
 9469TIP3    H228285   7.233   4.226   3.242
 9470TIP3   OH228286   8.299   4.967   2.465
 9470TIP3    H128287   8.304   5.060   2.444
 9470TIP3    H228288   8.389   4.936   2.457
 9471TIP3   OH228289   6.985   4.659   4.254
 9471TIP3    H128290   6.946   4.675   4.168
 9471TIP3    H228291   7.059   4.601   4.236
 9472TIP3   OH228292   6.958   4.880   3.795
 9472TIP3    H128293   7.043   4.860   3.757
 9472TIP3    H228294   6.976   4.947   3.862
 9473TIP3   OH228295   7.808   5.152   4.013
 9473TIP3    H128296   7.824   5.244   4.032
 9473TIP3    H228297   7.714   5.142   4.022
 9474TIP3   OH228298   7.636   5.245   2.940
 9474TIP3    H128299   7.590   5.226   2.858
 9474TIP3    H228300   7.597   5.326   2.971
 9475TIP3   OH228301   7.073   5.103   3.327
 9475TIP3    H128302   7.112   5.095   3.414
 9475TIP3    H228303   7.022   5.023   3.316
 9476TIP3   OH228304   7.837   5.185   2.564
 9476TIP3    H128305   7.887   5.111   2.529
 9476TIP3    H228306   7.871   5.197   2.653
 9477TIP3   OH228307   7.891   5.224   2.835
 9477TIP3    H128308   7.805   5.224   2.878
 9477TIP3    H228309   7.951   5.192   2.903
 9478TIP3   OH228310   8.623   4.498   4.146
 9478TIP3    H128311   8.541   4.505   4.096
 9478TIP3    H228312   8.638   4.404   4.153
 9479TIP3   OH228313   7.630   3.713   3.944
 9479TIP3    H128314   7.546   3.681   3.912
 9479TIP3    H228315   7.610   3.795   3.988
 9480TIP3   OH228316   8.177   3.832   4.148
 9480TIP3    H128317   8.247   3.808   4.209
 9480TIP3    H228318   8.097   3.819   4.198
 9481TIP3   OH228319   8.370   4.259   4.047
 9481TIP3    H128320   8.336   4.252   4.136
 9481TIP3    H228321   8.361   4.351   4.025
 9482TIP3   OH228322   8.080   4.317   2.590
 9482TIP3    H128323   8.030   4.330   2.510
 9482TIP3    H228324   8.161   4.367   2.576
 9483TIP3   OH228325   7.791   3.747   2.914
 9483TIP3    H128326   7.752   3.757   3.000
 9483TIP3    H228327   7.751   3.668   2.878
 9484TIP3   OH228328   7.569   4.253   3.941
 9484TIP3    H128329   7.526   4.258   4.026
 9484TIP3    H228330   7.547   4.335   3.898
 9485TIP3   OH228331   7.452   4.126   3.472
 9485TIP3    H128332   7.362   4.105   3.498
 9485TIP3    H228333   7.459   4.094   3.382
 9486TIP3   OH228334   7.928   4.198   3.198
 9486TIP3    H128335   7.882   4.272   3.159
 9486TIP3    H228336   7.987   4.168   3.129
 9487TIP3   OH228337   8.120   4.468   4.271
 9487TIP3    H128338   8.093   4.402   4.335
 9487TIP3    H228339   8.213   4.483   4.291
 9488TIP3   OH228340   8.095   4.212   3.422
 9488TIP3    H128341   8.025   4.233   3.360
 9488TIP3    H228342   8.143   4.140   3.382
 9489TIP3   OH228343   7.414   4.258   4.166
 9489TIP3    H128344   7.427   4.328   4.230
 9489TIP3    H228345   7.396   4.180   4.219
 9490TIP3   OH228346   7.455   3.734   2.889
 9490TIP3    H128347   7.446   3.741   2.984
 9490TIP3    H228348   7.377   3.776   2.854
 9491TIP3   OH228349   7.004   3.783   3.757
 9491TIP3    H128350   7.072   3.821   3.813
 9491TIP3    H228351   7.042   3.784   3.669
 9492TIP3   OH228352   6.895   3.759   3.249
 9492TIP3    H128353   6.941   3.795   3.173
 9492TIP3    H228354   6.833   3.827   3.275
 9493TIP3   OH228355   8.140   4.468   3.849
 9493TIP3    H128356   8.163   4.401   3.785
 9493TIP3    H228357   8.093   4.421   3.917
 9494TIP3   OH228358   7.810   3.912   3.519
 9494TIP3    H128359   7.731   3.913   3.574
 9494TIP3    H228360   7.882   3.905   3.582
 9495TIP3   OH228361   7.211   4.003   3.532
 9495TIP3    H128362   7.123   4.007   3.493
 9495TIP3    H228363   7.240   3.913   3.514
 9496TIP3   OH228364   7.463   4.003   3.226
 9496TIP3    H128365   7.557   4.014   3.217
 9496TIP3    H228366   7.428   4.020   3.138
 9497TIP3   OH228367   8.252   3.997   3.719
 9497TIP3    H128368   8.238   4.012   3.813
 9497TIP3    H228369   8.180   3.940   3.693
 9498TIP3   OH228370   7.356   4.021   2.975
 9498TIP3    H128371   7.293   3.973   2.921
 9498TIP3    H228372   7.408   4.071   2.912
 9499TIP3   OH228373   8.465   5.703   3.942
 9499TIP3    H128374   8.463   5.713   3.847
 9499TIP3    H228375   8.543   5.751   3.970
 9500TIP3   OH228376   7.422   4.769   4.400
 9500TIP3    H128377   7.495   4.804   4.451
 9500TIP3    H228378   7.390   4.844   4.350
 9501TIP3   OH228379   7.862   4.287   3.631
 9501TIP3    H128380   7.933   4.242   3.586
 9501TIP3    H228381   7.861   4.249   3.718
 9502TIP3   OH228382   7.348   3.753   3.514
 9502TIP3    H128383   7.322   3.677   3.566
 9502TIP3    H228384   7.366   3.717   3.426
 9503TIP3   OH228385   7.837   4.194   3.896
 9503TIP3    H128386   7.750   4.228   3.916
 9503TIP3    H228387   7.896   4.248   3.949
 9504TIP3   OH228388   7.568   4.534   3.008
 9504TIP3    H128389   7.492   4.483   2.981
 9504TIP3    H228390   7.539   4.580   3.087
 9505TIP3   OH228391   8.451   4.807   3.617
 9505TIP3    H128392   8.488   4.856   3.544
 9505TIP3    H228393   8.372   4.765   3.581
 9506TIP3   OH228394   8.040   3.858   2.916
 9506TIP3    H128395   7.947   3.835   2.913
 9506TIP3    H228396   8.041   3.953   2.928
 9507TIP3   OH228397   7.926   4.904   4.038
 9507TIP3    H128398   7.987   4.916   4.111
 9507TIP3    H228399   7.881   4.988   4.030
 9508TIP3   OH228400   8.095   4.123   2.983
 9508TIP3    H128401   8.189   4.131   2.996
 9508TIP3    H228402   8.071   4.201   2.933
 9509TIP3   OH228403   7.254   4.550   3.651
 9509TIP3    H128404   7.293   4.535   3.565
 9509TIP3    H228405   7.322   4.524   3.714
 9510TIP3   OH228406   7.722   4.698   2.854
 9510TIP3    H128407   7.674   4.781   2.849
 9510TIP3    H228408   7.666   4.641   2.906
 9511TIP3   OH228409   7.183   4.469   4.311
 9511TIP3    H128410   7.222   4.490   4.396
 9511TIP3    H228411   7.114   4.406   4.331
 9512TIP3   OH228412   7.887   4.623   4.313
 9512TIP3    H128413   7.820   4.562   4.282
 9512TIP3    H228414   7.970   4.586   4.284
 9513TIP3   OH228415   8.096   5.169   3.926
 9513TIP3    H128416   8.000   5.164   3.931
 9513TIP3    H228417   8.122   5.210   4.008
 9514TIP3   OH228418   8.517   4.203   2.791
 9514TIP3    H128419   8.461   4.153   2.731
 9514TIP3    H228420   8.512   4.293   2.760
 9515TIP3   OH228421   8.757   5.044   3.889
 9515TIP3    H128422   8.663   5.060   3.876
 9515TIP3    H228423   8.794   5.051   3.801
 9516TIP3   OH228424   8.251   5.029   2.743
 9516TIP3    H128425   8.220   4.963   2.806
 9516TIP3    H228426   8.252   4.983   2.659
 9517TIP3   OH228427   8.232   4.668   3.505
 9517TIP3    H128428   8.143   4.651   3.536
 9517TIP3    H228429   8.260   4.584   3.467
 9518TIP3   OH228430   7.390   4.904   3.326
 9518TIP3    H128431   7.387   4.979   3.266
 9518TIP3    H228432   7.304   4.904   3.368
 9519TIP3   OH228433   6.951   4.186   3.040
 9519TIP3    H128434   6.993   4.269   3.062
 9519TIP3    H228435   6.869   4.186   3.090
 9520TIP3   OH228436   7.460   4.658   3.223
 9520TIP3    H128437   7.449   4.747   3.255
 9520TIP3    H228438   7.438   4.603   3.297
 9521TIP3   OH228439   7.303   5.125   3.173
 9521TIP3    H128440   7.218   5.131   3.217
 9521TIP3    H228441   7.340   5.213   3.181
 9522TIP3   OH228442   8.013   4.887   3.777
 9522TIP3    H128443   7.977   4.891   3.866
 9522TIP3    H228444   8.106   4.870   3.790
 9523TIP3   OH228445   8.019   4.763   2.616
 9523TIP3    H128446   8.069   4.729   2.690
 9523TIP3    H228447   7.934   4.718   2.623
 9524TIP3   OH228448   8.260   5.386   3.791
 9524TIP3    H128449   8.186   5.326   3.794
 9524TIP3    H228450   8.243   5.443   3.716
 9525TIP3   OH228451   8.332   5.238   2.423
 9525TIP3    H128452   8.376   5.308   2.374
 9525TIP3    H228453   8.258   5.281   2.466
 9526TIP3   OH228454   7.361   4.006   4.294
 9526TIP3    H128455   7.266   4.013   4.301
 9526TIP3    H228456   7.387   3.958   4.373
 9527TIP3   OH228457   8.192   4.657   2.799
 9527TIP3    H128458   8.178   4.611   2.882
 9527TIP3    H228459   8.287   4.671   2.796
 9528TIP3   OH228460   7.031   5.061   3.998
 9528TIP3    H128461   7.124   5.042   4.011
 9528TIP3    H228462   7.004   5.102   4.081
 9529TIP3   OH228463   7.369   4.728   2.639
 9529TIP3    H128464   7.379   4.636   2.613
 9529TIP3    H228465   7.356   4.724   2.734
 9530TIP3   OH228466   7.308   4.746   2.913
 9530TIP3    H128467   7.365   4.723   2.986
 9530TIP3    H228468   7.306   4.842   2.914
 9531TIP3   OH228469   7.041   4.438   3.121
 9531TIP3    H128470   6.976   4.487   3.172
 9531TIP3    H228471   7.061   4.495   3.047
 9532TIP3   OH228472   8.207   4.048   3.980
 9532TIP3    H128473   8.273   4.107   4.014
 9532TIP3    H228474   8.200   3.978   4.046
 9533TIP3   OH228475   8.097   3.813   3.186
 9533TIP3    H128476   8.075   3.832   3.095
 9533TIP3    H228477   8.139   3.892   3.218
 9534TIP3   OH228478   7.576   4.926   2.840
 9534TIP3    H128479   7.492   4.952   2.880
 9534TIP3    H228480   7.602   5.002   2.788
 9535TIP3   OH228481   7.742   4.008   3.268
 9535TIP3    H128482   7.803   4.077   3.243
 9535TIP3    H228483   7.764   3.988   3.359
 9536TIP3   OH228484   8.039   4.308   4.051
 9536TIP3    H128485   8.062   4.360   4.128
 9536TIP3    H228486   8.090   4.227   4.061
 9537TIP3   OH228487   7.909   3.705   3.358
 9537TIP3    H128488   7.882   3.781   3.410
 9537TIP3    H228489   7.979   3.737   3.302
 9538TIP3   OH228490   7.329   5.019   2.922
 9538TIP3    H128491   7.310   5.091   2.862
 9538TIP3    H228492   7.318   5.057   3.009
 9539TIP3   OH228493   7.421   3.730   3.169
 9539TIP3    H128494   7.409   3.821   3.195
 9539TIP3    H228495   7.515   3.715   3.176
 9540TIP3   OH228496   8.639   4.232   4.049
 9540TIP3    H128497   8.543   4.224   4.045
 9540TIP3    H228498   8.666   4.236   3.957
 9541TIP3   OH228499   8.313   4.405   3.416
 9541TIP3    H128500   8.234   4.352   3.428
 9541TIP3    H228501   8.377   4.367   3.477
 9542TIP3   OH228502   7.066   4.609   2.901
 9542TIP3    H128503   7.137   4.673   2.910
 9542TIP3    H228504   7.098   4.548   2.835
 9543TIP3   OH228505   6.970   3.907   3.031
 9543TIP3    H128506   6.985   4.001   3.044
 9543TIP3    H228507   6.920   3.901   2.949
 9544TIP3   OH228508   8.291   5.379   3.358
 9544TIP3    H128509   8.249   5.431   3.290
 9544TIP3    H228510   8.385   5.394   3.346
 9545TIP3   OH228511   7.369   3.628   3.900
 9545TIP3    H128512   7.340   3.597   3.814
 9545TIP3    H228513   7.361   3.551   3.957
 9546TIP3   OH228514   6.889   4.886   3.294
 9546TIP3    H128515   6.847   4.922   3.372
 9546TIP3    H228516   6.844   4.929   3.221
 9547TIP3   OH228517   7.519   4.929   2.524
 9547TIP3    H128518   7.473   4.860   2.571
 9547TIP3    H228519   7.594   4.886   2.484
 9548TIP3   OH228520   8.181   5.269   4.169
 9548TIP3    H128521   8.199   5.197   4.230
 9548TIP3    H228522   8.255   5.328   4.180
 9549TIP3   OH228523   7.965   4.973   2.448
 9549TIP3    H128524   8.000   4.909   2.510
 9549TIP3    H228525   8.026   4.971   2.374
 9550TIP3   OH228526   7.129   4.805   4.497
 9550TIP3    H128527   7.213   4.760   4.510
 9550TIP3    H228528   7.078   4.744   4.444
 9551TIP3   OH228529   7.186   4.420   2.744
 9551TIP3    H128530   7.237   4.397   2.822
 9551TIP3    H228531   7.252   4.435   2.676
 9552TIP3   OH228532   7.795   4.895   4.317
 9552TIP3    H128533   7.765   4.916   4.228
 9552TIP3    H228534   7.836   4.809   4.308
 9553TIP3   OH228535   7.770   4.642   2.590
 9553TIP3    H128536   7.744   4.653   2.681
 9553TIP3    H228537   7.747   4.551   2.569
 9554TIP3   OH228538   8.266   4.946   3.933
 9554TIP3    H128539   8.347   4.976   3.891
 9554TIP3    H228540   8.208   5.021   3.930
 9555TIP3   OH228541   7.315   4.552   4.540
 9555TIP3    H128542   7.373   4.613   4.495
 9555TIP3    H228543   7.331   4.569   4.633
 9556TIP3   OH228544   7.356   4.363   2.957
 9556TIP3    H128545   7.337   4.334   3.046
 9556TIP3    H228546   7.406   4.291   2.918
 9557TIP3   OH228547   7.699   4.442   4.202
 9557TIP3    H128548   7.611   4.478   4.211
 9557TIP3    H228549   7.730   4.475   4.117
 9558TIP3   OH228550   7.503   4.181   2.806
 9558TIP3    H128551   7.473   4.185   2.716
 9558TIP3    H228552   7.598   4.191   2.801
 9559TIP3   OH228553   8.178   4.824   4.304
 9559TIP3    H128554   8.236   4.784   4.239
 9559TIP3    H228555   8.176   4.762   4.376
 9560TIP3   OH228556   8.293   4.461   2.482
 9560TIP3    H128557   8.276   4.424   2.395
 9560TIP3    H228558   8.272   4.554   2.474
 9561TIP3   OH228559   7.782   4.212   4.323
 9561TIP3    H128560   7.787   4.141   4.258
 9561TIP3    H228561   7.755   4.289   4.273
 9562TIP3   OH228562   7.791   4.015   4.117
 9562TIP3    H128563   7.818   4.058   4.035
 9562TIP3    H228564   7.700   3.991   4.103
 9563TIP3   OH228565   7.797   4.560   3.978
 9563TIP3    H128566   7.878   4.611   3.972
 9563TIP3    H228567   7.731   4.614   3.936
 9564TIP3   OH228568   8.389   4.502   4.367
 9564TIP3    H128569   8.440   4.422   4.376
 9564TIP3    H228570   8.454   4.571   4.354
 9565TIP3   OH228571   8.403   4.778   4.103
 9565TIP3    H128572   8.348   4.837   4.052
 9565TIP3    H228573   8.492   4.794   4.071
 9566TIP3   OH228574   7.667   4.291   4.566
 9566TIP3    H128575   7.598   4.227   4.583
 9566TIP3    H228576   7.697   4.271   4.477
 9567TIP3   OH228577   7.909   3.786   4.224
 9567TIP3    H128578   7.871   3.867   4.189
 9567TIP3    H228579   7.842   3.720   4.210
 9568TIP3   OH228580   8.036   4.258   4.428
 9568TIP3    H128581   8.027   4.245   4.522
 9568TIP3    H228582   7.949   4.236   4.393
 9569TIP3   OH228583   8.271   4.203   4.290
 9569TIP3    H128584   8.193   4.209   4.346
 9569TIP3    H228585   8.343   4.186   4.351
 9570TIP3   OH228586   8.495   4.175   4.450
 9570TIP3    H128587   8.512   4.081   4.456
 9570TIP3    H228588   8.494   4.204   4.541
 9571TIP3   OH228589   7.491   4.081   4.632
 9571TIP3    H128590   7.498   3.993   4.595
 9571TIP3    H228591   7.530   4.074   4.719
 9572TIP3   OH228592   7.973   3.758   4.489
 9572TIP3    H128593   8.043   3.694   4.481
 9572TIP3    H228594   7.944   3.773   4.399
 9573TIP3   OH228595   8.073   3.972   4.633
 9573TIP3    H128596   8.040   3.901   4.578
 9573TIP3    H228597   8.001   4.036   4.635
 9574TIP3   OH228598   7.330   5.229   2.740
 9574TIP3    H128599   7.419   5.207   2.712
 9574TIP3    H228600   7.292   5.274   2.665
 9575TIP3   OH228601   6.792   4.613   2.911
 9575TIP3    H128602   6.888   4.622   2.911
 9575TIP3    H228603   6.777   4.526   2.874
 9576TIP3   OH228604   6.698   5.192   3.385
 9576TIP3    H128605   6.631   5.140   3.341
 9576TIP3    H228606   6.741   5.131   3.445
 9577TIP3   OH228607   6.843   5.022   3.552
 9577TIP3    H128608   6.841   4.953   3.618
 9577TIP3    H228609   6.893   5.093   3.591
 9578TIP3   OH228610   8.557   5.434   3.348
 9578TIP3    H128611   8.575   5.452   3.440
 9578TIP3    H228612   8.616   5.492   3.300
 9579TIP3   OH228613   8.589   5.469   3.622
 9579TIP3    H128614   8.558   5.381   3.642
 9579TIP3    H228615   8.682   5.467   3.643
 9580TIP3   OH228616   8.654   5.155   4.223
 9580TIP3    H128617   8.581   5.167   4.284
 9580TIP3    H228618   8.686   5.244   4.207
 9581TIP3   OH228619   8.472   4.667   2.812
 9581TIP3    H128620   8.526   4.741   2.785
 9581TIP3    H228621   8.517   4.632   2.889
 9582TIP3   OH228622   8.603   4.528   3.015
 9582TIP3    H128623   8.534   4.495   3.073
 9582TIP3    H228624   8.660   4.578   3.073
 9583TIP3   OH228625   8.628   4.937   3.448
 9583TIP3    H128626   8.671   4.865   3.400
 9583TIP3    H228627   8.624   5.009   3.385
 9584TIP3   OH228628   8.447   5.230   3.643
 9584TIP3    H128629   8.379   5.275   3.693
 9584TIP3    H228630   8.400   5.188   3.571
 9585TIP3   OH228631   8.500   4.441   2.661
 9585TIP3    H128632   8.429   4.444   2.597
 9585TIP3    H228633   8.489   4.521   2.713
 9586TIP3   OH228634   8.370   4.091   2.592
 9586TIP3    H128635   8.322   4.138   2.523
 9586TIP3    H228636   8.353   3.999   2.574
 9587TIP3   OH228637   8.399   4.399   3.154
 9587TIP3    H128638   8.400   4.304   3.141
 9587TIP3    H228639   8.375   4.411   3.246
 9588TIP3   OH228640   7.006   4.457   3.942
 9588TIP3    H128641   6.997   4.432   3.850
 9588TIP3    H228642   7.100   4.453   3.958
 9589TIP3   OH228643   8.663   4.813   4.014
 9589TIP3    H128644   8.726   4.744   3.994
 9589TIP3    H228645   8.693   4.888   3.963
 9590TIP3   OH228646   8.835   4.599   4.006
 9590TIP3    H128647   8.765   4.563   4.060
 9590TIP3    H228648   8.910   4.542   4.023
 9591TIP3   OH228649   8.316   3.820   2.563
 9591TIP3    H128650   8.378   3.804   2.634
 9591TIP3    H228651   8.231   3.790   2.597
 9592TIP3   OH228652   8.385   4.122   3.038
 9592TIP3    H128653   8.428   4.038   3.051
 9592TIP3    H228654   8.428   4.160   2.961
 9593TIP3   OH228655   8.519   4.285   3.566
 9593TIP3    H128656   8.598   4.311   3.519
 9593TIP3    H228657   8.528   4.327   3.652
 9594TIP3   OH228658   8.583   4.444   3.793
 9594TIP3    H128659   8.513   4.476   3.851
 9594TIP3    H228660   8.614   4.522   3.748
 9595TIP3   OH228661   7.227   4.136   4.563
 9595TIP3    H128662   7.320   4.138   4.585
 9595TIP3    H228663   7.195   4.056   4.604
 9596TIP3   OH228664   9.024   4.076   4.338
 9596TIP3    H128665   9.102   4.026   4.315
 9596TIP3    H228666   8.996   4.115   4.255
 9597TIP3   OH228667   8.492   3.870   3.089
 9597TIP3    H128668   8.540   3.858   3.171
 9597TIP3    H228669   8.428   3.799   3.088
 9598TIP3   OH228670   7.211   3.856   3.928
 9598TIP3    H128671   7.265   3.777   3.929
 9598TIP3    H228672   7.273   3.926   3.906
 9599TIP3   OH228673   6.981   4.121   3.976
 9599TIP3    H128674   7.039   4.114   3.900
 9599TIP3    H228675   6.994   4.211   4.008
 9600TIP3   OH228676   8.889   4.162   4.121
 9600TIP3    H128677   8.800   4.197   4.127
 9600TIP3    H228678   8.878   4.078   4.077
 9601TIP3   OH228679   8.541   3.781   2.720
 9601TIP3    H128680   8.594   3.720   2.668
 9601TIP3    H228681   8.598   3.857   2.733
 9602TIP3   OH228682   6.975   3.622   3.472
 9602TIP3    H128683   6.891   3.615   3.519
 9602TIP3    H228684   6.956   3.678   3.397
 9603TIP3   OH228685   8.130   5.339   2.996
 9603TIP3    H128686   8.189   5.332   2.921
 9603TIP3    H228687   8.169   5.407   3.050
 9604TIP3   OH228688   7.205   3.665   4.300
 9604TIP3    H128689   7.159   3.669   4.384
 9604TIP3    H228690   7.152   3.720   4.241
 9605TIP3   OH228691   7.877   5.415   4.072
 9605TIP3    H128692   7.908   5.408   4.162
 9605TIP3    H228693   7.948   5.460   4.026
 9606TIP3   OH228694   8.068   5.559   3.934
 9606TIP3    H128695   8.137   5.506   3.895
 9606TIP3    H228696   8.115   5.624   3.988
 9607TIP3   OH228697   8.807   3.916   4.025
 9607TIP3    H128698   8.726   3.923   3.974
 9607TIP3    H228699   8.836   3.826   4.012
 9608TIP3   OH228700   7.049   5.370   3.903
 9608TIP3    H128701   6.981   5.433   3.924
 9608TIP3    H228702   7.101   5.361   3.983
 9609TIP3   OH228703   7.773   5.454   3.556
 9609TIP3    H128704   7.679   5.444   3.542
 9609TIP3    H228705   7.781   5.525   3.620
 9610TIP3   OH228706   8.016   5.359   3.641
 9610TIP3    H128707   7.925   5.382   3.621
 9610TIP3    H228708   8.068   5.433   3.607
 9611TIP3   OH228709   8.219   5.544   3.566
 9611TIP3    H128710   8.215   5.631   3.526
 9611TIP3    H228711   8.244   5.486   3.494
 9612TIP3   OH228712   6.998   5.217   3.682
 9612TIP3    H128713   7.026   5.263   3.762
 9612TIP3    H228714   7.077   5.172   3.652
 9613TIP3   OH228715   7.211   5.080   3.570
 9613TIP3    H128716   7.219   4.994   3.611
 9613TIP3    H228717   7.296   5.122   3.585
 9614TIP3   OH228718   7.472   5.178   3.638
 9614TIP3    H128719   7.508   5.092   3.615
 9614TIP3    H228720   7.490   5.187   3.732
 9615TIP3   OH228721   8.028   3.823   3.667
 9615TIP3    H128722   7.989   3.754   3.721
 9615TIP3    H228723   8.094   3.778   3.614
 9616TIP3   OH228724   8.525   3.729   3.523
 9616TIP3    H128725   8.573   3.779   3.457
 9616TIP3    H228726   8.447   3.782   3.542
 9617TIP3   OH228727   8.657   3.816   3.302
 9617TIP3    H128728   8.729   3.758   3.277
 9617TIP3    H228729   8.691   3.904   3.289
 9618TIP3   OH228730   7.283   3.523   3.658
 9618TIP3    H128731   7.194   3.489   3.669
 9618TIP3    H228732   7.338   3.445   3.649
 9619TIP3   OH228733   7.115   3.434   3.315
 9619TIP3    H128734   7.137   3.483   3.236
 9619TIP3    H228735   7.073   3.499   3.372
 9620TIP3   OH228736   7.773   3.556   3.558
 9620TIP3    H128737   7.817   3.608   3.490
 9620TIP3    H228738   7.809   3.589   3.640
 9621TIP3   OH228739   8.228   3.702   3.529
 9621TIP3    H128740   8.257   3.675   3.442
 9621TIP3    H228741   8.249   3.627   3.585
 9622TIP3   OH228742   8.310   3.659   3.103
 9622TIP3    H128743   8.232   3.707   3.130
 9622TIP3    H228744   8.298   3.571   3.138
 9623TIP3   OH228745   6.768   5.005   3.075
 9623TIP3    H128746   6.685   4.976   3.037
 9623TIP3    H228747   6.778   5.095   3.045
 9624TIP3   OH228748   7.213   3.562   3.074
 9624TIP3    H128749   7.259   3.502   3.016
 9624TIP3    H228750   7.281   3.619   3.110
 9625TIP3   OH228751   7.697   3.755   3.175
 9625TIP3    H128752   7.756   3.706   3.230
 9625TIP3    H228753   7.710   3.846   3.201
 9626TIP3   OH228754   7.583   5.151   2.669
 9626TIP3    H128755   7.667   5.179   2.630
 9626TIP3    H228756   7.553   5.081   2.612
 9627TIP3   OH228757   8.283   5.298   2.767
 9627TIP3    H128758   8.277   5.202   2.763
 9627TIP3    H228759   8.239   5.328   2.687
 9628TIP3   OH228760   7.508   3.811   4.537
 9628TIP3    H128761   7.474   3.746   4.599
 9628TIP3    H228762   7.601   3.820   4.560
 9629TIP3   OH228763   7.756   3.812   4.659
 9629TIP3    H128764   7.835   3.791   4.608
 9629TIP3    H228765   7.752   3.743   4.725
 9630TIP3   OH228766   6.895   4.995   2.727
 9630TIP3    H128767   6.896   5.005   2.822
 9630TIP3    H228768   6.975   4.947   2.707
 9631TIP3   OH228769   8.570   3.908   4.457
 9631TIP3    H128770   8.591   3.886   4.547
 9631TIP3    H228771   8.654   3.906   4.411
 9632TIP3   OH228772   8.459   5.428   3.984
 9632TIP3    H128773   8.398   5.400   3.916
 9632TIP3    H228774   8.472   5.521   3.967
 9633TIP3   OH228775   9.013   4.705   3.526
 9633TIP3    H128776   9.054   4.632   3.573
 9633TIP3    H228777   9.053   4.783   3.565
 9634TIP3   OH228778   9.032   5.135   3.235
 9634TIP3    H128779   9.003   5.044   3.240
 9634TIP3    H228780   9.098   5.142   3.304
 9635TIP3   OH228781   8.745   4.311   2.915
 9635TIP3    H128782   8.707   4.391   2.952
 9635TIP3    H228783   8.670   4.264   2.878
 9636TIP3   OH228784   8.829   4.642   3.137
 9636TIP3    H128785   8.864   4.554   3.150
 9636TIP3    H228786   8.885   4.681   3.069
 9637TIP3   OH228787   9.661   5.322   2.798
 9637TIP3    H128788   9.736   5.363   2.840
 9637TIP3    H228789   9.585   5.364   2.837
 9638TIP3   OH228790   9.543   5.067   3.225
 9638TIP3    H128791   9.585   5.058   3.140
 9638TIP3    H228792   9.610   5.106   3.282
 9639TIP3   OH228793   9.360   4.135   3.125
 9639TIP3    H128794   9.335   4.204   3.065
 9639TIP3    H228795   9.315   4.156   3.207
 9640TIP3   OH228796   8.899   4.386   3.208
 9640TIP3    H128797   8.964   4.379   3.278
 9640TIP3    H228798   8.914   4.309   3.154
 9641TIP3   OH228799   9.441   4.572   2.948
 9641TIP3    H128800   9.524   4.619   2.953
 9641TIP3    H228801   9.422   4.548   3.039
 9642TIP3   OH228802   9.267   4.093   3.615
 9642TIP3    H128803   9.190   4.131   3.657
 9642TIP3    H228804   9.310   4.044   3.685
 9643TIP3   OH228805   9.329   4.956   3.358
 9643TIP3    H128806   9.275   5.021   3.403
 9643TIP3    H228807   9.404   5.004   3.325
 9644TIP3   OH228808   9.072   4.372   3.415
 9644TIP3    H128809   9.097   4.409   3.500
 9644TIP3    H228810   9.143   4.313   3.392
 9645TIP3   OH228811   9.164   5.142   3.482
 9645TIP3    H128812   9.155   5.237   3.473
 9645TIP3    H228813   9.101   5.119   3.551
 9646TIP3   OH228814   8.635   4.863   2.702
 9646TIP3    H128815   8.591   4.879   2.618
 9646TIP3    H228816   8.655   4.951   2.735
 9647TIP3   OH228817   9.017   4.776   2.986
 9647TIP3    H128818   9.074   4.721   2.933
 9647TIP3    H228819   9.072   4.851   3.011
 9648TIP3   OH228820   9.332   5.206   3.104
 9648TIP3    H128821   9.359   5.212   3.012
 9648TIP3    H228822   9.411   5.177   3.150
 9649TIP3   OH228823   9.421   4.735   3.204
 9649TIP3    H128824   9.426   4.767   3.114
 9649TIP3    H228825   9.376   4.804   3.253
 9650TIP3   OH228826   9.386   5.250   3.610
 9650TIP3    H128827   9.337   5.318   3.655
 9650TIP3    H228828   9.319   5.191   3.576
 9651TIP3   OH228829   9.128   4.901   3.695
 9651TIP3    H128830   9.134   4.986   3.739
 9651TIP3    H228831   9.058   4.855   3.741
 9652TIP3   OH228832   9.595   5.306   2.534
 9652TIP3    H128833   9.633   5.302   2.622
 9652TIP3    H228834   9.613   5.395   2.504
 9653TIP3   OH228835   9.202   5.441   3.677
 9653TIP3    H128836   9.195   5.440   3.582
 9653TIP3    H228837   9.111   5.444   3.708
 9654TIP3   OH228838   9.035   4.545   2.660
 9654TIP3    H128839   8.959   4.603   2.653
 9654TIP3    H228840   9.017   4.491   2.738
 9655TIP3   OH228841   8.837   4.998   3.626
 9655TIP3    H128842   8.762   4.979   3.570
 9655TIP3    H228843   8.859   4.914   3.666
 9656TIP3   OH228844   8.649   5.170   3.290
 9656TIP3    H128845   8.734   5.205   3.318
 9656TIP3    H228846   8.586   5.237   3.316
 9657TIP3   OH228847   9.566   5.372   3.445
 9657TIP3    H128848   9.594   5.440   3.507
 9657TIP3    H228849   9.508   5.316   3.496
 9658TIP3   OH228850   9.382   5.548   2.379
 9658TIP3    H128851   9.322   5.513   2.314
 9658TIP3    H228852   9.345   5.633   2.404
 9659TIP3   OH228853   8.844   5.356   2.808
 9659TIP3    H128854   8.888   5.343   2.892
 9659TIP3    H228855   8.790   5.278   2.797
 9660TIP3   OH228856   9.402   3.933   3.432
 9660TIP3    H128857   9.328   3.900   3.381
 9660TIP3    H228858   9.363   3.988   3.499
 9661TIP3   OH228859   9.503   4.521   3.369
 9661TIP3    H128860   9.432   4.475   3.414
 9661TIP3    H228861   9.457   4.581   3.309
 9662TIP3   OH228862   9.266   4.306   2.934
 9662TIP3    H128863   9.175   4.329   2.919
 9662TIP3    H228864   9.315   4.354   2.867
 9663TIP3   OH228865   9.149   4.488   3.654
 9663TIP3    H128866   9.191   4.545   3.719
 9663TIP3    H228867   9.116   4.414   3.705
 9664TIP3   OH228868   9.129   3.988   2.311
 9664TIP3    H128869   9.208   3.983   2.364
 9664TIP3    H228870   9.161   3.993   2.221
 9665TIP3   OH228871   8.762   4.054   3.243
 9665TIP3    H128872   8.804   4.086   3.323
 9665TIP3    H228873   8.817   4.085   3.172
 9666TIP3   OH228874   8.710   4.003   2.741
 9666TIP3    H128875   8.768   4.029   2.669
 9666TIP3    H228876   8.653   4.078   2.754
 9667TIP3   OH228877   8.928   4.155   3.054
 9667TIP3    H128878   8.865   4.197   2.994
 9667TIP3    H228879   8.977   4.094   2.998
 9668TIP3   OH228880   9.160   4.232   2.667
 9668TIP3    H128881   9.226   4.301   2.675
 9668TIP3    H228882   9.119   4.247   2.582
 9669TIP3   OH228883   9.060   4.245   2.417
 9669TIP3    H128884   9.023   4.333   2.408
 9669TIP3    H228885   9.135   4.244   2.357
 9670TIP3   OH228886   9.160   5.129   3.835
 9670TIP3    H128887   9.242   5.145   3.883
 9670TIP3    H228888   9.091   5.137   3.901
 9671TIP3   OH228889   9.066   3.969   2.904
 9671TIP3    H128890   9.059   3.894   2.962
 9671TIP3    H228891   9.158   3.972   2.879
 9672TIP3   OH228892   9.322   4.802   2.506
 9672TIP3    H128893   9.401   4.752   2.487
 9672TIP3    H228894   9.329   4.823   2.599
 9673TIP3   OH228895   9.743   5.158   3.387
 9673TIP3    H128896   9.827   5.140   3.429
 9673TIP3    H228897   9.727   5.251   3.404
 9674TIP3   OH228898   9.016   4.860   3.261
 9674TIP3    H128899   8.968   4.818   3.190
 9674TIP3    H228900   9.055   4.787   3.309
 9675TIP3   OH228901   8.905   4.774   3.794
 9675TIP3    H128902   8.924   4.740   3.881
 9675TIP3    H228903   8.834   4.719   3.761
 9676TIP3   OH228904   9.683   4.810   3.723
 9676TIP3    H128905   9.590   4.793   3.710
 9676TIP3    H228906   9.722   4.723   3.733
 9677TIP3   OH228907   9.085   5.119   2.735
 9677TIP3    H128908   9.090   5.210   2.708
 9677TIP3    H228909   9.001   5.111   2.780
 9678TIP3   OH228910   8.741   4.410   2.534
 9678TIP3    H128911   8.778   4.498   2.543
 9678TIP3    H228912   8.659   4.414   2.583
 9679TIP3   OH228913   9.266   4.910   2.751
 9679TIP3    H128914   9.203   4.981   2.763
 9679TIP3    H228915   9.222   4.833   2.786
 9680TIP3   OH228916   9.397   5.526   3.295
 9680TIP3    H128917   9.431   5.602   3.343
 9680TIP3    H228918   9.453   5.453   3.322
 9681TIP3   OH228919   9.064   5.392   2.657
 9681TIP3    H128920   8.980   5.389   2.702
 9681TIP3    H228921   9.085   5.485   2.651
 9682TIP3   OH228922   9.084   4.243   3.757
 9682TIP3    H128923   8.998   4.251   3.798
 9682TIP3    H228924   9.145   4.237   3.831
 9683TIP3   OH228925   8.861   5.322   3.385
 9683TIP3    H128926   8.929   5.255   3.385
 9683TIP3    H228927   8.867   5.363   3.471
 9684TIP3   OH228928   9.079   4.951   2.067
 9684TIP3    H128929   9.071   4.856   2.071
 9684TIP3    H228930   9.032   4.983   2.144
 9685TIP3   OH228931   9.008   5.065   2.313
 9685TIP3    H128932   9.077   5.041   2.374
 9685TIP3    H228933   9.000   5.160   2.321
 9686TIP3   OH228934   8.812   4.682   2.586
 9686TIP3    H128935   8.749   4.738   2.630
 9686TIP3    H228936   8.875   4.743   2.548
 9687TIP3   OH228937   9.347   5.237   2.270
 9687TIP3    H128938   9.320   5.271   2.356
 9687TIP3    H228939   9.442   5.225   2.278
 9688TIP3   OH228940   9.055   5.326   2.385
 9688TIP3    H128941   9.070   5.411   2.343
 9688TIP3    H228942   9.064   5.344   2.479
 9689TIP3   OH228943   9.249   3.988   2.589
 9689TIP3    H128944   9.210   4.068   2.622
 9689TIP3    H228945   9.295   3.950   2.664
 9690TIP3   OH228946   8.773   4.921   2.302
 9690TIP3    H128947   8.845   4.984   2.314
 9690TIP3    H228948   8.817   4.840   2.279
 9691TIP3   OH228949   8.786   4.134   2.474
 9691TIP3    H128950   8.779   4.226   2.499
 9691TIP3    H228951   8.698   4.109   2.447
 9692TIP3   OH228952   9.108   3.892   3.353
 9692TIP3    H128953   9.074   3.864   3.268
 9692TIP3    H228954   9.109   3.813   3.406
 9693TIP3   OH228955   8.681   5.132   2.782
 9693TIP3    H128956   8.635   5.166   2.858
 9693TIP3    H228957   8.638   5.173   2.707
 9694TIP3   OH228958   8.878   5.711   3.843
 9694TIP3    H128959   8.950   5.698   3.905
 9694TIP3    H228960   8.879   5.633   3.788
 9695TIP3   OH228961   9.286   5.631   3.853
 9695TIP3    H128962   9.381   5.640   3.862
 9695TIP3    H228963   9.274   5.549   3.805
 9696TIP3   OH228964   9.364   5.256   1.953
 9696TIP3    H128965   9.280   5.243   1.998
 9696TIP3    H228966   9.420   5.186   1.986
 9697TIP3   OH228967   8.977   5.078   4.045
 9697TIP3    H128968   9.011   4.988   4.041
 9697TIP3    H228969   8.893   5.074   4.000
 9698TIP3   OH228970   8.928   4.703   2.232
 9698TIP3    H128971   8.943   4.633   2.295
 9698TIP3    H228972   8.992   4.689   2.163
 9699TIP3   OH228973   9.577   5.161   3.778
 9699TIP3    H128974   9.517   5.189   3.709
 9699TIP3    H228975   9.641   5.105   3.734
 9700TIP3   OH228976   9.105   4.830   4.039
 9700TIP3    H128977   9.195   4.833   4.006
 9700TIP3    H228978   9.114   4.839   4.134
 9701TIP3   OH228979   9.046   4.517   2.392
 9701TIP3    H128980   9.032   4.533   2.485
 9701TIP3    H228981   9.140   4.529   2.380
 9702TIP3   OH228982   9.503   4.615   3.630
 9702TIP3    H128983   9.427   4.657   3.590
 9702TIP3    H228984   9.550   4.577   3.557
 9703TIP3   OH228985   9.281   4.313   2.253
 9703TIP3    H128986   9.258   4.346   2.166
 9703TIP3    H228987   9.377   4.314   2.254
 9704TIP3   OH228988   9.524   4.430   3.823
 9704TIP3    H128989   9.566   4.366   3.766
 9704TIP3    H228990   9.504   4.504   3.766
 9705TIP3   OH228991   9.614   4.229   3.668
 9705TIP3    H128992   9.708   4.219   3.655
 9705TIP3    H228993   9.578   4.235   3.579
 9706TIP3   OH228994   9.670   4.754   3.377
 9706TIP3    H128995   9.633   4.667   3.364
 9706TIP3    H228996   9.595   4.813   3.377
 9707TIP3   OH228997   9.439   4.538   4.073
 9707TIP3    H128998   9.369   4.475   4.092
 9707TIP3    H228999   9.474   4.510   3.988
 9708TIP3   OH229000   9.252   4.352   4.153
 9708TIP3    H129001   9.248   4.266   4.110
 9708TIP3    H229002   9.273   4.333   4.244
 9709TIP3   OH229003   9.122   5.536   2.221
 9709TIP3    H129004   9.201   5.532   2.166
 9709TIP3    H229005   9.062   5.592   2.172
 9710TIP3   OH229006   8.548   4.857   2.437
 9710TIP3    H129007   8.628   4.891   2.398
 9710TIP3    H229008   8.534   4.772   2.394
 9711TIP3   OH229009   8.483   5.452   2.868
 9711TIP3    H129010   8.418   5.399   2.821
 9711TIP3    H229011   8.527   5.389   2.925
 9712TIP3   OH229012   8.624   5.275   3.026
 9712TIP3    H129013   8.614   5.209   3.095
 9712TIP3    H229014   8.673   5.346   3.068
 9713TIP3   OH229015   8.774   4.696   3.401
 9713TIP3    H129016   8.785   4.683   3.306
 9713TIP3    H229017   8.862   4.709   3.434
 9714TIP3   OH229018   9.008   4.391   4.035
 9714TIP3    H129019   9.100   4.394   4.064
 9714TIP3    H229020   8.974   4.309   4.072
 9715TIP3   OH229021   8.926   4.112   3.454
 9715TIP3    H129022   8.992   4.044   3.441
 9715TIP3    H229023   8.975   4.194   3.450
 9716TIP3   OH229024   8.744   4.392   3.451
 9716TIP3    H129025   8.781   4.384   3.363
 9716TIP3    H229026   8.763   4.482   3.476
 9717TIP3   OH229027   8.748   3.835   2.958
 9717TIP3    H129028   8.668   3.847   3.009
 9717TIP3    H229029   8.746   3.906   2.893
 9718TIP3   OH229030   8.965   3.949   3.793
 9718TIP3    H129031   8.938   3.952   3.884
 9718TIP3    H229032   8.899   4.001   3.746
 9719TIP3   OH229033   9.171   5.406   3.407
 9719TIP3    H129034   9.096   5.461   3.384
 9719TIP3    H229035   9.245   5.447   3.362
 9720TIP3   OH229036   9.641   5.585   3.592
 9720TIP3    H129037   9.651   5.612   3.683
 9720TIP3    H229038   9.616   5.665   3.545
 9721TIP3   OH229039   8.885   5.681   3.414
 9721TIP3    H129040   8.798   5.719   3.413
 9721TIP3    H229041   8.886   5.625   3.492
 9722TIP3   OH229042   9.103   5.644   3.263
 9722TIP3    H129043   9.026   5.655   3.318
 9722TIP3    H229044   9.082   5.693   3.183
 9723TIP3   OH229045   9.489   5.732   3.123
 9723TIP3    H129046   9.423   5.673   3.160
 9723TIP3    H229047   9.572   5.700   3.160
 9724TIP3   OH229048   0.129   5.673   3.170
 9724TIP3    H129049   0.057   5.615   3.194
 9724TIP3    H229050   0.139   5.661   3.076
 9725TIP3   OH229051   8.791   5.460   3.160
 9725TIP3    H129052   8.807   5.429   3.249
 9725TIP3    H229053   8.863   5.422   3.108
 9726TIP3   OH229054   8.993   5.324   3.036
 9726TIP3    H129055   9.004   5.253   3.099
 9726TIP3    H229056   9.076   5.371   3.037
 9727TIP3   OH229057   9.237   5.460   3.061
 9727TIP3    H129058   9.272   5.374   3.083
 9727TIP3    H229059   9.237   5.508   3.143
 9728TIP3   OH229060   9.061   3.775   3.107
 9728TIP3    H129061   8.969   3.750   3.122
 9728TIP3    H229062   9.109   3.692   3.110
 9729TIP3   OH229063   8.920   3.690   2.801
 9729TIP3    H129064   8.947   3.761   2.743
 9729TIP3    H229065   8.861   3.732   2.863
 9730TIP3   OH229066   8.575   5.254   2.561
 9730TIP3    H129067   8.490   5.219   2.531
 9730TIP3    H229068   8.575   5.345   2.532
 9731TIP3   OH229069   8.983   3.907   2.536
 9731TIP3    H129070   8.990   3.822   2.494
 9731TIP3    H229071   9.072   3.927   2.567
 9732TIP3   OH229072   9.357   5.496   2.094
 9732TIP3    H129073   9.440   5.509   2.139
 9732TIP3    H229074   9.363   5.408   2.057
 9733TIP3   OH229075   9.185   4.088   4.062
 9733TIP3    H129076   9.209   4.027   4.132
 9733TIP3    H229077   9.243   4.065   3.989
 9734TIP3   OH229078   9.461   4.126   4.208
 9734TIP3    H129079   9.516   4.166   4.141
 9734TIP3    H229080   9.485   4.033   4.205
 9735TIP3   OH229081   8.643   5.239   2.232
 9735TIP3    H129082   8.661   5.245   2.326
 9735TIP3    H229083   8.723   5.202   2.195
 9736TIP3   OH229084   0.509   5.380   4.929
 9736TIP3    H129085   0.483   5.470   4.908
 9736TIP3    H229086   0.442   5.325   4.887
 9737TIP3   OH229087   0.488   5.366   5.308
 9737TIP3    H129088   0.479   5.332   5.397
 9737TIP3    H229089   0.424   5.316   5.257
 9738TIP3   OH229090   0.696   5.647   4.988
 9738TIP3    H129091   0.700   5.573   5.048
 9738TIP3    H229092   0.721   5.723   5.041
 9739TIP3   OH229093   0.314   6.039   5.066
 9739TIP3    H129094   0.329   5.945   5.080
 9739TIP3    H229095   0.384   6.082   5.115
 9740TIP3   OH229096   0.130   5.406   5.381
 9740TIP3    H129097   0.163   5.323   5.345
 9740TIP3    H229098   0.179   5.473   5.334
 9741TIP3   OH229099   1.280   4.883   5.339
 9741TIP3    H129100   1.297   4.968   5.380
 9741TIP3    H229101   1.307   4.893   5.248
 9742TIP3   OH229102   0.626   5.050   5.358
 9742TIP3    H129103   0.674   4.970   5.380
 9742TIP3    H229104   0.612   5.043   5.263
 9743TIP3   OH229105   9.787   4.876   5.307
 9743TIP3    H129106   9.731   4.921   5.370
 9743TIP3    H229107   9.786   4.785   5.335
 9744TIP3   OH229108   0.713   4.817   4.951
 9744TIP3    H129109   0.772   4.810   5.025
 9744TIP3    H229110   0.767   4.848   4.878
 9745TIP3   OH229111   9.760   5.178   5.270
 9745TIP3    H129112   9.778   5.261   5.225
 9745TIP3    H229113   9.726   5.120   5.201
 9746TIP3   OH229114   1.339   5.103   5.503
 9746TIP3    H129115   1.251   5.140   5.496
 9746TIP3    H229116   1.372   5.135   5.586
 9747TIP3   OH229117   0.343   5.543   4.757
 9747TIP3    H129118   0.299   5.515   4.677
 9747TIP3    H229119   0.402   5.614   4.729
 9748TIP3   OH229120   0.863   4.840   5.177
 9748TIP3    H129121   0.821   4.817   5.260
 9748TIP3    H229122   0.922   4.912   5.199
 9749TIP3   OH229123   0.750   5.870   5.153
 9749TIP3    H129124   0.670   5.866   5.205
 9749TIP3    H229125   0.755   5.961   5.123
 9750TIP3   OH229126   1.082   4.774   5.511
 9750TIP3    H129127   0.997   4.798   5.476
 9750TIP3    H229128   1.144   4.800   5.443
 9751TIP3   OH229129   0.368   4.397   5.497
 9751TIP3    H129130   0.375   4.304   5.523
 9751TIP3    H229131   0.277   4.420   5.516
 9752TIP3   OH229132   0.482   5.925   4.780
 9752TIP3    H129133   0.528   5.842   4.773
 9752TIP3    H229134   0.539   5.988   4.737
 9753TIP3   OH229135   0.594   5.686   4.739
 9753TIP3    H129136   0.629   5.625   4.674
 9753TIP3    H229137   0.641   5.664   4.819
 9754TIP3   OH229138   1.016   5.765   5.475
 9754TIP3    H129139   0.992   5.699   5.409
 9754TIP3    H229140   0.998   5.849   5.432
 9755TIP3   OH229141   0.353   5.231   4.762
 9755TIP3    H129142   0.264   5.263   4.747
 9755TIP3    H229143   0.389   5.215   4.675
 9756TIP3   OH229144   0.300   4.992   4.440
 9756TIP3    H129145   0.364   5.046   4.487
 9756TIP3    H229146   0.352   4.923   4.399
 9757TIP3   OH229147   1.161   5.448   5.343
 9757TIP3    H129148   1.075   5.489   5.341
 9757TIP3    H229149   1.197   5.463   5.256
 9758TIP3   OH229150   0.663   5.298   4.716
 9758TIP3    H129151   0.617   5.326   4.795
 9758TIP3    H229152   0.746   5.260   4.748
 9759TIP3   OH229153   0.900   5.327   5.659
 9759TIP3    H129154   0.885   5.407   5.710
 9759TIP3    H229155   0.822   5.319   5.604
 9760TIP3   OH229156   0.525   5.870   5.305
 9760TIP3    H129157   0.454   5.929   5.331
 9760TIP3    H229158   0.518   5.797   5.367
 9761TIP3   OH229159   0.508   5.148   4.547
 9761TIP3    H129160   0.569   5.204   4.594
 9761TIP3    H229161   0.528   5.164   4.454
 9762TIP3   OH229162   0.218   5.812   4.875
 9762TIP3    H129163   0.314   5.815   4.877
 9762TIP3    H229164   0.194   5.874   4.806
 9763TIP3   OH229165   0.962   4.366   4.598
 9763TIP3    H129166   0.886   4.386   4.653
 9763TIP3    H229167   0.973   4.443   4.542
 9764TIP3   OH229168   0.799   5.741   4.157
 9764TIP3    H129169   0.795   5.833   4.130
 9764TIP3    H229170   0.889   5.714   4.137
 9765TIP3   OH229171   1.215   6.169   5.538
 9765TIP3    H129172   1.224   6.074   5.544
 9765TIP3    H229173   1.132   6.187   5.584
 9766TIP3   OH229174   0.394   5.853   5.693
 9766TIP3    H129175   0.397   5.918   5.764
 9766TIP3    H229176   0.307   5.864   5.655
 9767TIP3   OH229177   0.171   5.994   4.680
 9767TIP3    H129178   0.130   6.002   4.594
 9767TIP3    H229179   0.151   6.077   4.724
 9768TIP3   OH229180   0.345   5.993   4.261
 9768TIP3    H129181   0.411   5.935   4.223
 9768TIP3    H229182   0.377   6.011   4.349
 9769TIP3   OH229183   0.393   6.069   4.522
 9769TIP3    H129184   0.325   6.040   4.583
 9769TIP3    H229185   0.468   6.090   4.577
 9770TIP3   OH229186   1.100   5.265   5.842
 9770TIP3    H129187   1.029   5.278   5.779
 9770TIP3    H229188   1.124   5.172   5.833
 9771TIP3   OH229189   0.090   4.492   5.603
 9771TIP3    H129190   0.016   4.461   5.551
 9771TIP3    H229191   0.125   4.566   5.553
 9772TIP3   OH229192   0.643   4.623   5.844
 9772TIP3    H129193   0.724   4.608   5.892
 9772TIP3    H229194   0.574   4.600   5.906
 9773TIP3   OH229195   0.867   5.053   5.738
 9773TIP3    H129196   0.832   5.029   5.823
 9773TIP3    H229197   0.844   5.146   5.728
 9774TIP3   OH229198   0.563   5.175   4.286
 9774TIP3    H129199   0.512   5.156   4.207
 9774TIP3    H229200   0.646   5.208   4.254
 9775TIP3   OH229201   0.246   4.544   4.563
 9775TIP3    H129202   0.215   4.545   4.654
 9775TIP3    H229203   0.235   4.454   4.535
 9776TIP3   OH229204   9.588   5.060   5.087
 9776TIP3    H129205   9.549   4.984   5.131
 9776TIP3    H229206   9.647   5.022   5.022
 9777TIP3   OH229207   0.411   4.985   4.858
 9777TIP3    H129208   0.400   5.077   4.835
 9777TIP3    H229209   0.478   4.953   4.797
 9778TIP3   OH229210   0.675   5.222   5.897
 9778TIP3    H129211   0.655   5.174   5.977
 9778TIP3    H229212   0.684   5.313   5.926
 9779TIP3   OH229213   0.580   5.013   5.092
 9779TIP3    H129214   0.497   5.027   5.046
 9779TIP3    H229215   0.620   4.938   5.048
 9780TIP3   OH229216   9.724   4.487   4.558
 9780TIP3    H129217   9.733   4.547   4.632
 9780TIP3    H229218   9.661   4.529   4.500
 9781TIP3   OH229219   0.672   5.267   5.524
 9781TIP3    H129220   0.668   5.215   5.444
 9781TIP3    H229221   0.633   5.211   5.591
 9782TIP3   OH229222   0.347   4.734   5.192
 9782TIP3    H129223   0.330   4.825   5.218
 9782TIP3    H229224   0.416   4.705   5.251
 9783TIP3   OH229225   9.746   4.899   4.935
 9783TIP3    H129226   9.782   4.845   5.006
 9783TIP3    H229227   9.728   4.837   4.865
 9784TIP3   OH229228   0.727   4.795   5.415
 9784TIP3    H129229   0.719   4.810   5.510
 9784TIP3    H229230   0.662   4.727   5.396
 9785TIP3   OH229231   9.486   4.885   4.632
 9785TIP3    H129232   9.431   4.823   4.679
 9785TIP3    H229233   9.524   4.834   4.560
 9786TIP3   OH229234   0.945   6.491   5.635
 9786TIP3    H129235   0.946   6.510   5.541
 9786TIP3    H229236   1.024   6.533   5.669
 9787TIP3   OH229237   0.367   4.953   5.364
 9787TIP3    H129238   0.454   4.993   5.365
 9787TIP3    H229239   0.344   4.943   5.456
 9788TIP3   OH229240   9.580   4.523   5.132
 9788TIP3    H129241   9.594   4.434   5.165
 9788TIP3    H229242   9.620   4.522   5.045
 9789TIP3   OH229243   0.329   4.952   5.634
 9789TIP3    H129244   0.256   4.993   5.680
 9789TIP3    H229245   0.407   4.983   5.680
 9790TIP3   OH229246   0.093   5.299   4.716
 9790TIP3    H129247   0.062   5.209   4.703
 9790TIP3    H229248   0.021   5.343   4.760
 9791TIP3   OH229249   0.932   5.585   5.291
 9791TIP3    H129250   0.964   5.638   5.218
 9791TIP3    H229251   0.854   5.541   5.256
 9792TIP3   OH229252   0.499   4.649   4.606
 9792TIP3    H129253   0.406   4.637   4.590
 9792TIP3    H229254   0.511   4.744   4.611
 9793TIP3   OH229255   0.507   5.605   5.738
 9793TIP3    H129256   0.561   5.601   5.817
 9793TIP3    H229257   0.466   5.692   5.742
 9794TIP3   OH229258   0.584   4.907   4.659
 9794TIP3    H129259   0.678   4.905   4.674
 9794TIP3    H229260   0.570   4.986   4.606
 9795TIP3   OH229261   0.187   5.484   4.532
 9795TIP3    H129262   0.133   5.564   4.536
 9795TIP3    H229263   0.137   5.419   4.581
 9796TIP3   OH229264   0.433   5.364   6.040
 9796TIP3    H129265   0.422   5.335   5.950
 9796TIP3    H229266   0.513   5.416   6.040
 9797TIP3   OH229267   0.644   5.897   5.597
 9797TIP3    H129268   0.559   5.867   5.628
 9797TIP3    H229269   0.683   5.940   5.672
 9798TIP3   OH229270   0.968   5.005   4.489
 9798TIP3    H129271   0.909   4.961   4.429
 9798TIP3    H229272   0.976   5.094   4.455
 9799TIP3   OH229273   1.244   5.897   5.562
 9799TIP3    H129274   1.155   5.865   5.575
 9799TIP3    H229275   1.272   5.857   5.479
 9800TIP3   OH229276   0.696   5.803   4.410
 9800TIP3    H129277   0.660   5.727   4.456
 9800TIP3    H229278   0.726   5.768   4.326
 9801TIP3   OH229279   0.721   5.445   5.181
 9801TIP3    H129280   0.638   5.420   5.222
 9801TIP3    H229281   0.753   5.364   5.140
 9802TIP3   OH229282   9.698   5.412   4.869
 9802TIP3    H129283   9.735   5.420   4.957
 9802TIP3    H229284   9.614   5.367   4.882
 9803TIP3   OH229285   0.505   5.628   5.461
 9803TIP3    H129286   0.528   5.619   5.553
 9803TIP3    H229287   0.559   5.564   5.416
 9804TIP3   OH229288   0.506   5.552   4.301
 9804TIP3    H129289   0.543   5.530   4.387
 9804TIP3    H229290   0.424   5.502   4.297
 9805TIP3   OH229291   0.753   6.166   5.435
 9805TIP3    H129292   0.679   6.115   5.403
 9805TIP3    H229293   0.760   6.240   5.374
 9806TIP3   OH229294   0.801   6.007   4.100
 9806TIP3    H129295   0.813   6.062   4.022
 9806TIP3    H229296   0.732   6.051   4.150
 9807TIP3   OH229297   0.661   5.505   4.534
 9807TIP3    H129298   0.647   5.431   4.592
 9807TIP3    H229299   0.754   5.501   4.511
 9808TIP3   OH229300   9.702   5.554   4.322
 9808TIP3    H129301   9.748   5.472   4.306
 9808TIP3    H229302   9.643   5.535   4.395
 9809TIP3   OH229303   0.687   4.840   5.680
 9809TIP3    H129304   0.761   4.886   5.721
 9809TIP3    H229305   0.665   4.770   5.742
 9810TIP3   OH229306   0.567   4.597   4.867
 9810TIP3    H129307   0.542   4.616   4.777
 9810TIP3    H229308   0.609   4.678   4.897
 9811TIP3   OH229309   0.042   5.721   4.561
 9811TIP3    H129310  -0.018   5.712   4.635
 9811TIP3    H229311  -0.014   5.741   4.486
 9812TIP3   OH229312   0.273   4.762   4.929
 9812TIP3    H129313   0.323   4.833   4.889
 9812TIP3    H229314   0.287   4.772   5.023
 9813TIP3   OH229315   0.556   5.088   5.693
 9813TIP3    H129316   0.584   5.128   5.775
 9813TIP3    H229317   0.601   5.004   5.690
 9814TIP3   OH229318   0.377   4.504   5.041
 9814TIP3    H129319   0.358   4.587   5.085
 9814TIP3    H229320   0.445   4.525   4.978
 9815TIP3   OH229321   9.708   4.498   4.889
 9815TIP3    H129322   9.686   4.580   4.845
 9815TIP3    H229323   9.803   4.493   4.882
 9816TIP3   OH229324   1.130   5.000   5.722
 9816TIP3    H129325   1.035   5.011   5.727
 9816TIP3    H229326   1.143   4.943   5.646
 9817TIP3   OH229327   0.800   5.187   5.101
 9817TIP3    H129328   0.721   5.133   5.105
 9817TIP3    H229329   0.861   5.145   5.161
 9818TIP3   OH229330   0.794   6.139   5.102
 9818TIP3    H129331   0.721   6.142   5.041
 9818TIP3    H229332   0.870   6.163   5.050
 9819TIP3   OH229333   9.784   5.824   4.283
 9819TIP3    H129334   9.719   5.753   4.286
 9819TIP3    H229335   9.868   5.779   4.287
 9820TIP3   OH229336   0.725   6.026   5.818
 9820TIP3    H129337   0.704   5.984   5.902
 9820TIP3    H229338   0.783   6.098   5.841
 9821TIP3   OH229339   0.472   5.779   4.146
 9821TIP3    H129340   0.501   5.706   4.201
 9821TIP3    H229341   0.514   5.765   4.062
 9822TIP3   OH229342   0.259   5.711   6.027
 9822TIP3    H129343   0.205   5.686   5.952
 9822TIP3    H229344   0.222   5.661   6.100
 9823TIP3   OH229345   0.261   5.423   4.275
 9823TIP3    H129346   0.238   5.455   4.362
 9823TIP3    H229347   0.196   5.357   4.255
 9824TIP3   OH229348   0.791   5.670   5.602
 9824TIP3    H129349   0.871   5.697   5.557
 9824TIP3    H229350   0.731   5.743   5.589
 9825TIP3   OH229351   9.670   5.106   4.699
 9825TIP3    H129352   9.626   5.032   4.740
 9825TIP3    H229353   9.727   5.066   4.634
 9826TIP3   OH229354   0.170   5.144   5.840
 9826TIP3    H129355   0.086   5.105   5.813
 9826TIP3    H229356   0.179   5.222   5.786
 9827TIP3   OH229357   0.019   4.967   4.506
 9827TIP3    H129358   0.007   4.998   4.416
 9827TIP3    H229359   0.113   4.969   4.520
 9828TIP3   OH229360   0.667   5.501   5.961
 9828TIP3    H129361   0.756   5.521   5.931
 9828TIP3    H229362   0.649   5.568   6.027
 9829TIP3   OH229363   0.783   5.267   4.149
 9829TIP3    H129364   0.768   5.220   4.067
 9829TIP3    H229365   0.755   5.356   4.131
 9830TIP3   OH229366   0.131   4.929   6.020
 9830TIP3    H129367   0.174   4.875   6.087
 9830TIP3    H229368   0.203   4.974   5.976
 9831TIP3   OH229369   0.262   4.716   5.756
 9831TIP3    H129370   0.288   4.780   5.690
 9831TIP3    H229371   0.167   4.724   5.763
 9832TIP3   OH229372   0.147   5.364   5.663
 9832TIP3    H129373   0.216   5.332   5.605
 9832TIP3    H229374   0.193   5.395   5.740
 9833TIP3   OH229375   0.920   5.264   6.087
 9833TIP3    H129376   0.935   5.171   6.105
 9833TIP3    H229377   0.980   5.286   6.016
 9834TIP3   OH229378   0.902   5.560   5.818
 9834TIP3    H129379   0.849   5.603   5.751
 9834TIP3    H229380   0.992   5.571   5.788
 9835TIP3   OH229381   0.368   4.509   5.895
 9835TIP3    H129382   0.345   4.579   5.834
 9835TIP3    H229383   0.326   4.431   5.859
 9836TIP3   OH229384   0.593   5.068   6.110
 9836TIP3    H129385   0.619   5.050   6.200
 9836TIP3    H229386   0.497   5.063   6.111
 9837TIP3   OH229387   0.779   4.930   5.960
 9837TIP3    H129388   0.702   4.961   6.008
 9837TIP3    H229389   0.850   4.932   6.025
 9838TIP3   OH229390   0.990   4.966   6.140
 9838TIP3    H129391   1.003   4.872   6.150
 9838TIP3    H229392   0.975   4.997   6.230
 9839TIP3   OH229393   0.456   4.527   6.152
 9839TIP3    H129394   0.530   4.466   6.152
 9839TIP3    H229395   0.416   4.516   6.066
 9840TIP3   OH229396   0.597   4.733   6.295
 9840TIP3    H129397   0.576   4.657   6.240
 9840TIP3    H229398   0.538   4.724   6.370
 9841TIP3   OH229399   1.042   6.229   5.031
 9841TIP3    H129400   1.057   6.261   5.120
 9841TIP3    H229401   1.096   6.286   4.976
 9842TIP3   OH229402   1.051   6.254   5.315
 9842TIP3    H129403   1.013   6.167   5.308
 9842TIP3    H229404   1.123   6.244   5.377
 9843TIP3   OH229405   1.123   5.956   5.874
 9843TIP3    H129406   1.050   5.957   5.936
 9843TIP3    H229407   1.169   6.038   5.889
 9844TIP3   OH229408   0.932   5.471   4.504
 9844TIP3    H129409   0.990   5.539   4.472
 9844TIP3    H229410   0.980   5.430   4.576
 9845TIP3   OH229411   1.066   5.329   4.701
 9845TIP3    H129412   1.005   5.284   4.759
 9845TIP3    H229413   1.133   5.364   4.759
 9846TIP3   OH229414   1.108   5.734   5.137
 9846TIP3    H129415   1.160   5.666   5.094
 9846TIP3    H229416   1.112   5.808   5.077
 9847TIP3   OH229417   0.942   5.990   5.334
 9847TIP3    H129418   0.872   6.039   5.376
 9847TIP3    H229419   0.900   5.946   5.260
 9848TIP3   OH229420   0.966   5.243   4.352
 9848TIP3    H129421   0.902   5.245   4.281
 9848TIP3    H229422   0.948   5.322   4.403
 9849TIP3   OH229423   0.810   4.896   4.300
 9849TIP3    H129424   0.762   4.929   4.224
 9849TIP3    H229425   0.807   4.801   4.291
 9850TIP3   OH229426   0.879   5.175   4.837
 9850TIP3    H129427   0.881   5.080   4.822
 9850TIP3    H229428   0.858   5.184   4.930
 9851TIP3   OH229429   1.144   5.603   5.696
 9851TIP3    H129430   1.208   5.534   5.678
 9851TIP3    H229431   1.130   5.646   5.612
 9852TIP3   OH229432   1.307   5.381   5.693
 9852TIP3    H129433   1.236   5.345   5.747
 9852TIP3    H229434   1.381   5.324   5.710
 9853TIP3   OH229435   0.782   4.627   4.266
 9853TIP3    H129436   0.852   4.596   4.322
 9853TIP3    H229437   0.704   4.580   4.296
 9854TIP3   OH229438   0.861   4.904   4.727
 9854TIP3    H129439   0.904   4.820   4.739
 9854TIP3    H229440   0.902   4.942   4.649
 9855TIP3   OH229441   1.001   5.068   5.256
 9855TIP3    H129442   1.080   5.086   5.206
 9855TIP3    H229443   1.017   5.109   5.341
 9856TIP3   OH229444   1.085   5.218   5.477
 9856TIP3    H129445   1.021   5.248   5.541
 9856TIP3    H229446   1.113   5.298   5.432
 9857TIP3   OH229447   1.540   4.813   6.022
 9857TIP3    H129448   1.601   4.756   5.976
 9857TIP3    H229449   1.500   4.866   5.953
 9858TIP3   OH229450   0.964   4.652   4.779
 9858TIP3    H129451   1.007   4.638   4.863
 9858TIP3    H229452   0.901   4.579   4.772
 9859TIP3   OH229453   1.388   4.933   5.831
 9859TIP3    H129454   1.312   4.975   5.871
 9859TIP3    H229455   1.352   4.865   5.775
 9860TIP3   OH229456   1.006   4.568   4.417
 9860TIP3    H129457   1.057   4.506   4.364
 9860TIP3    H229458   1.061   4.646   4.422
 9861TIP3   OH229459   0.616   6.136   4.663
 9861TIP3    H129460   0.680   6.117   4.594
 9861TIP3    H229461   0.632   6.228   4.686
 9862TIP3   OH229462   0.213   6.150   5.672
 9862TIP3    H129463   0.210   6.189   5.760
 9862TIP3    H229464   0.235   6.222   5.614
 9863TIP3   OH229465   0.568   6.380   5.513
 9863TIP3    H129466   0.593   6.288   5.516
 9863TIP3    H229467   0.611   6.419   5.590
 9864TIP3   OH229468   1.291   4.690   5.716
 9864TIP3    H129469   1.206   4.689   5.673
 9864TIP3    H229470   1.323   4.600   5.709
 9865TIP3   OH229471   0.211   6.266   5.228
 9865TIP3    H129472   0.120   6.278   5.203
 9865TIP3    H229473   0.217   6.308   5.314
 9866TIP3   OH229474   0.511   6.205   5.270
 9866TIP3    H129475   0.459   6.236   5.344
 9866TIP3    H229476   0.576   6.273   5.255
 9867TIP3   OH229477   0.737   6.367   5.243
 9867TIP3    H129478   0.742   6.450   5.196
 9867TIP3    H229479   0.767   6.302   5.180
 9868TIP3   OH229480   0.514   4.603   5.370
 9868TIP3    H129481   0.473   4.528   5.413
 9868TIP3    H229482   0.582   4.565   5.314
 9869TIP3   OH229483   1.003   4.529   5.244
 9869TIP3    H129484   1.038   4.577   5.170
 9869TIP3    H229485   0.909   4.547   5.243
 9870TIP3   OH229486   1.114   4.607   5.006
 9870TIP3    H129487   1.182   4.545   4.980
 9870TIP3    H229488   1.153   4.693   4.993
 9871TIP3   OH229489   0.361   4.304   5.223
 9871TIP3    H129490   0.352   4.383   5.170
 9871TIP3    H229491   0.374   4.337   5.312
 9872TIP3   OH229492   0.718   4.491   5.226
 9872TIP3    H129493   0.726   4.459   5.137
 9872TIP3    H229494   0.726   4.413   5.281
 9873TIP3   OH229495   0.778   4.441   4.787
 9873TIP3    H129496   0.700   4.490   4.813
 9873TIP3    H229497   0.765   4.354   4.825
 9874TIP3   OH229498   9.414   4.396   4.797
 9874TIP3    H129499   9.340   4.343   4.769
 9874TIP3    H229500   9.466   4.337   4.852
 9875TIP3   OH229501   0.175   4.527   4.826
 9875TIP3    H129502   0.219   4.453   4.867
 9875TIP3    H229503   0.221   4.604   4.861
 9876TIP3   OH229504   0.107   6.031   4.419
 9876TIP3    H129505   0.183   6.023   4.361
 9876TIP3    H229506   0.047   5.963   4.390
 9877TIP3   OH229507   0.759   6.067   4.441
 9877TIP3    H129508   0.743   5.973   4.436
 9877TIP3    H229509   0.718   6.103   4.362
 9878TIP3   OH229510   0.232   4.539   6.325
 9878TIP3    H129511   0.319   4.524   6.286
 9878TIP3    H229512   0.249   4.550   6.418
 9879TIP3   OH229513   1.050   4.697   6.144
 9879TIP3    H129514   1.067   4.666   6.233
 9879TIP3    H229515   1.134   4.689   6.100
 9880TIP3   OH229516   0.959   6.216   5.632
 9880TIP3    H129517   0.888   6.184   5.577
 9880TIP3    H229518   0.948   6.310   5.636
 9881TIP3   OH229519   2.233   5.614   4.382
 9881TIP3    H129520   2.201   5.700   4.356
 9881TIP3    H229521   2.163   5.554   4.357
 9882TIP3   OH229522   2.229   5.602   4.813
 9882TIP3    H129523   2.285   5.584   4.888
 9882TIP3    H229524   2.184   5.519   4.795
 9883TIP3   OH229525   1.527   5.460   5.154
 9883TIP3    H129526   1.566   5.409   5.225
 9883TIP3    H229527   1.600   5.485   5.098
 9884TIP3   OH229528   2.499   5.913   4.485
 9884TIP3    H129529   2.488   5.845   4.552
 9884TIP3    H229530   2.519   5.992   4.535
 9885TIP3   OH229531   1.524   5.884   4.832
 9885TIP3    H129532   1.504   5.791   4.840
 9885TIP3    H229533   1.619   5.889   4.827
 9886TIP3   OH229534   1.207   5.097   4.621
 9886TIP3    H129535   1.171   5.182   4.643
 9886TIP3    H229536   1.134   5.050   4.581
 9887TIP3   OH229537   1.290   5.409   4.846
 9887TIP3    H129538   1.340   5.331   4.872
 9887TIP3    H229539   1.357   5.474   4.824
 9888TIP3   OH229540   2.162   6.334   4.503
 9888TIP3    H129541   2.185   6.272   4.434
 9888TIP3    H229542   2.172   6.285   4.584
 9889TIP3   OH229543   2.040   5.823   4.814
 9889TIP3    H129544   2.086   5.743   4.789
 9889TIP3    H229545   2.108   5.881   4.846
 9890TIP3   OH229546   3.087   5.140   4.819
 9890TIP3    H129547   3.092   5.226   4.860
 9890TIP3    H229548   3.118   5.154   4.730
 9891TIP3   OH229549   2.439   5.305   4.852
 9891TIP3    H129550   2.472   5.219   4.878
 9891TIP3    H229551   2.405   5.291   4.764
 9892TIP3   OH229552   1.801   4.968   4.810
 9892TIP3    H129553   1.778   5.039   4.750
 9892TIP3    H229554   1.749   4.893   4.781
 9893TIP3   OH229555   2.495   5.075   4.443
 9893TIP3    H129556   2.558   5.068   4.515
 9893TIP3    H229557   2.546   5.108   4.370
 9894TIP3   OH229558   1.426   5.185   4.938
 9894TIP3    H129559   1.509   5.165   4.982
 9894TIP3    H229560   1.428   5.132   4.858
 9895TIP3   OH229561   1.840   5.383   4.756
 9895TIP3    H129562   1.934   5.368   4.763
 9895TIP3    H229563   1.805   5.301   4.722
 9896TIP3   OH229564   3.108   5.362   4.985
 9896TIP3    H129565   3.022   5.401   4.974
 9896TIP3    H229566   3.124   5.363   5.079
 9897TIP3   OH229567   1.787   4.978   5.263
 9897TIP3    H129568   1.738   5.012   5.188
 9897TIP3    H229569   1.731   4.995   5.338
 9898TIP3   OH229570   2.129   5.832   4.245
 9898TIP3    H129571   2.090   5.799   4.165
 9898TIP3    H229572   2.075   5.907   4.270
 9899TIP3   OH229573   1.868   5.749   5.019
 9899TIP3    H129574   1.816   5.823   5.053
 9899TIP3    H229575   1.919   5.787   4.947
 9900TIP3   OH229576   2.650   5.099   4.666
 9900TIP3    H129577   2.610   5.072   4.749
 9900TIP3    H229578   2.706   5.173   4.689
 9901TIP3   OH229579   1.673   5.080   5.031
 9901TIP3    H129580   1.728   5.156   5.051
 9901TIP3    H229581   1.719   5.037   4.958
 9902TIP3   OH229582   1.719   5.956   5.127
 9902TIP3    H129583   1.706   6.046   5.098
 9902TIP3    H229584   1.642   5.938   5.181
 9903TIP3   OH229585   1.099   5.658   4.386
 9903TIP3    H129586   1.069   5.677   4.297
 9903TIP3    H229587   1.123   5.744   4.421
 9904TIP3   OH229588   2.529   6.160   4.626
 9904TIP3    H129589   2.441   6.153   4.663
 9904TIP3    H229590   2.529   6.243   4.579
 9905TIP3   OH229591   2.872   5.066   4.987
 9905TIP3    H129592   2.788   5.078   4.942
 9905TIP3    H229593   2.938   5.083   4.919
 9906TIP3   OH229594   2.100   4.672   4.976
 9906TIP3    H129595   2.090   4.579   4.995
 9906TIP3    H229596   2.030   4.715   5.024
 9907TIP3   OH229597   2.240   6.192   4.277
 9907TIP3    H129598   2.293   6.113   4.267
 9907TIP3    H229599   2.297   6.263   4.248
 9908TIP3   OH229600   2.379   5.961   4.241
 9908TIP3    H129601   2.306   5.899   4.239
 9908TIP3    H229602   2.430   5.936   4.318
 9909TIP3   OH229603   2.766   6.048   4.966
 9909TIP3    H129604   2.748   5.974   4.908
 9909TIP3    H229605   2.752   6.125   4.910
 9910TIP3   OH229606   2.058   5.451   4.238
 9910TIP3    H129607   1.974   5.492   4.219
 9910TIP3    H229608   2.104   5.448   4.154
 9911TIP3   OH229609   2.025   5.261   3.923
 9911TIP3    H129610   2.091   5.309   3.973
 9911TIP3    H229611   2.074   5.192   3.878
 9912TIP3   OH229612   2.944   5.713   4.835
 9912TIP3    H129613   2.860   5.758   4.834
 9912TIP3    H229614   2.979   5.724   4.747
 9913TIP3   OH229615   2.419   5.541   4.195
 9913TIP3    H129616   2.365   5.570   4.268
 9913TIP3    H229617   2.502   5.515   4.235
 9914TIP3   OH229618   2.647   5.573   5.144
 9914TIP3    H129619   2.644   5.658   5.189
 9914TIP3    H229620   2.565   5.569   5.094
 9915TIP3   OH229621   1.644   5.516   4.599
 9915TIP3    H129622   1.609   5.455   4.535
 9915TIP3    H229623   1.717   5.469   4.640
 9916TIP3   OH229624   1.788   5.939   4.743
 9916TIP3    H129625   1.765   5.926   4.651
 9916TIP3    H229626   1.875   5.901   4.751
 9917TIP3   OH229627   1.737   5.513   4.977
 9917TIP3    H129628   1.776   5.475   4.898
 9917TIP3    H229629   1.784   5.594   4.991
 9918TIP3   OH229630   2.287   6.154   4.752
 9918TIP3    H129631   2.277   6.235   4.802
 9918TIP3    H229632   2.273   6.084   4.815
 9919TIP3   OH229633   1.918   6.047   5.299
 9919TIP3    H129634   1.857   6.104   5.346
 9919TIP3    H229635   1.863   5.997   5.239
 9920TIP3   OH229636   2.246   5.401   4.030
 9920TIP3    H129637   2.307   5.459   4.077
 9920TIP3    H229638   2.277   5.404   3.940
 9921TIP3   OH229639   1.671   5.591   5.454
 9921TIP3    H129640   1.676   5.686   5.468
 9921TIP3    H229641   1.577   5.573   5.445
 9922TIP3   OH229642   1.992   6.071   4.283
 9922TIP3    H129643   2.074   6.120   4.290
 9922TIP3    H229644   1.933   6.130   4.235
 9923TIP3   OH229645   1.710   6.206   5.386
 9923TIP3    H129646   1.683   6.219   5.295
 9923TIP3    H229647   1.629   6.191   5.434
 9924TIP3   OH229648   2.755   4.625   4.091
 9924TIP3    H129649   2.679   4.646   4.145
 9924TIP3    H229650   2.764   4.701   4.033
 9925TIP3   OH229651   1.520   5.356   4.402
 9925TIP3    H129652   1.441   5.402   4.374
 9925TIP3    H229653   1.491   5.266   4.416
 9926TIP3   OH229654   2.586   6.003   3.647
 9926TIP3    H129655   2.578   6.096   3.627
 9926TIP3    H229656   2.675   5.980   3.621
 9927TIP3   OH229657   1.312   5.765   5.332
 9927TIP3    H129658   1.240   5.749   5.271
 9927TIP3    H229659   1.342   5.678   5.357
 9928TIP3   OH229660   1.150   5.972   4.991
 9928TIP3    H129661   1.240   5.994   5.013
 9928TIP3    H229662   1.100   6.051   5.014
 9929TIP3   OH229663   2.998   6.407   5.038
 9929TIP3    H129664   3.002   6.313   5.052
 9929TIP3    H229665   2.919   6.435   5.085
 9930TIP3   OH229666   2.105   6.198   5.164
 9930TIP3    H129667   2.095   6.288   5.194
 9930TIP3    H229668   2.038   6.149   5.213
 9931TIP3   OH229669   1.884   6.290   4.115
 9931TIP3    H129670   1.838   6.270   4.034
 9931TIP3    H229671   1.846   6.373   4.144
 9932TIP3   OH229672   1.327   6.143   4.492
 9932TIP3    H129673   1.371   6.135   4.577
 9932TIP3    H229674   1.277   6.062   4.483
 9933TIP3   OH229675   2.084   6.227   3.740
 9933TIP3    H129676   2.135   6.154   3.705
 9933TIP3    H229677   2.119   6.241   3.828
 9934TIP3   OH229678   2.138   6.269   4.010
 9934TIP3    H129679   2.051   6.271   4.052
 9934TIP3    H229680   2.195   6.230   4.076
 9935TIP3   OH229681   2.899   5.518   5.301
 9935TIP3    H129682   2.817   5.537   5.257
 9935TIP3    H229683   2.912   5.424   5.288
 9936TIP3   OH229684   1.506   5.958   5.302
 9936TIP3    H129685   1.555   5.945   5.383
 9936TIP3    H229686   1.435   5.893   5.306
 9937TIP3   OH229687   1.879   4.751   5.130
 9937TIP3    H129688   1.794   4.719   5.097
 9937TIP3    H229689   1.857   4.834   5.174
 9938TIP3   OH229690   2.642   5.312   5.235
 9938TIP3    H129691   2.598   5.305   5.319
 9938TIP3    H229692   2.631   5.404   5.209
 9939TIP3   OH229693   2.328   5.377   3.769
 9939TIP3    H129694   2.280   5.380   3.687
 9939TIP3    H229695   2.409   5.424   3.752
 9940TIP3   OH229696   2.034   4.804   4.084
 9940TIP3    H129697   1.995   4.810   4.171
 9940TIP3    H229698   1.999   4.723   4.048
 9941TIP3   OH229699   1.824   5.294   5.126
 9941TIP3    H129700   1.778   5.300   5.210
 9941TIP3    H229701   1.801   5.374   5.080
 9942TIP3   OH229702   1.701   5.167   4.649
 9942TIP3    H129703   1.612   5.141   4.675
 9942TIP3    H229704   1.710   5.137   4.559
 9943TIP3   OH229705   2.179   5.245   4.376
 9943TIP3    H129706   2.132   5.319   4.335
 9943TIP3    H229707   2.237   5.213   4.307
 9944TIP3   OH229708   2.368   5.507   5.454
 9944TIP3    H129709   2.341   5.442   5.519
 9944TIP3    H229710   2.460   5.524   5.475
 9945TIP3   OH229711   2.349   5.259   4.597
 9945TIP3    H129712   2.280   5.279   4.534
 9945TIP3    H229713   2.397   5.186   4.558
 9946TIP3   OH229714   1.663   5.310   5.349
 9946TIP3    H129715   1.671   5.375   5.418
 9946TIP3    H229716   1.646   5.228   5.395
 9947TIP3   OH229717   1.701   4.779   4.064
 9947TIP3    H129718   1.692   4.782   4.159
 9947TIP3    H229719   1.622   4.823   4.031
 9948TIP3   OH229720   1.248   4.827   4.927
 9948TIP3    H129721   1.323   4.861   4.977
 9948TIP3    H229722   1.285   4.804   4.842
 9949TIP3   OH229723   1.152   4.804   4.430
 9949TIP3    H129724   1.197   4.838   4.353
 9949TIP3    H229725   1.089   4.873   4.452
 9950TIP3   OH229726   2.398   5.511   5.023
 9950TIP3    H129727   2.420   5.443   4.960
 9950TIP3    H229728   2.353   5.464   5.093
 9951TIP3   OH229729   2.070   4.969   4.699
 9951TIP3    H129730   1.992   4.961   4.755
 9951TIP3    H229731   2.144   4.955   4.759
 9952TIP3   OH229732   1.464   5.039   4.709
 9952TIP3    H129733   1.377   5.045   4.669
 9952TIP3    H229734   1.492   4.949   4.693
 9953TIP3   OH229735   1.712   5.051   4.401
 9953TIP3    H129736   1.807   5.058   4.391
 9953TIP3    H229737   1.678   5.066   4.313
 9954TIP3   OH229738   2.516   5.045   4.907
 9954TIP3    H129739   2.508   5.051   5.002
 9954TIP3    H229740   2.447   4.984   4.881
 9955TIP3   OH229741   1.603   5.073   4.150
 9955TIP3    H129742   1.541   5.022   4.098
 9955TIP3    H229743   1.658   5.117   4.085
 9956TIP3   OH229744   2.714   6.755   5.129
 9956TIP3    H129745   2.713   6.771   5.034
 9956TIP3    H229746   2.793   6.799   5.159
 9957TIP3   OH229747   1.655   5.861   5.537
 9957TIP3    H129748   1.736   5.882   5.582
 9957TIP3    H229749   1.586   5.873   5.602
 9958TIP3   OH229750   2.113   5.333   4.808
 9958TIP3    H129751   2.177   5.283   4.757
 9958TIP3    H229752   2.113   5.291   4.895
 9959TIP3   OH229753   1.608   4.791   4.698
 9959TIP3    H129754   1.578   4.716   4.750
 9959TIP3    H229755   1.638   4.752   4.616
 9960TIP3   OH229756   2.091   5.236   5.076
 9960TIP3    H129757   2.003   5.267   5.096
 9960TIP3    H229758   2.149   5.292   5.127
 9961TIP3   OH229759   1.818   5.580   4.181
 9961TIP3    H129760   1.743   5.526   4.156
 9961TIP3    H229761   1.790   5.623   4.262
 9962TIP3   OH229762   2.708   5.846   4.787
 9962TIP3    H129763   2.744   5.895   4.713
 9962TIP3    H229764   2.630   5.803   4.751
 9963TIP3   OH229765   2.287   4.906   4.093
 9963TIP3    H129766   2.194   4.883   4.088
 9963TIP3    H229767   2.288   5.000   4.105
 9964TIP3   OH229768   2.233   5.929   5.207
 9964TIP3    H129769   2.286   5.917   5.286
 9964TIP3    H229770   2.194   6.015   5.217
 9965TIP3   OH229771   2.343   5.171   4.160
 9965TIP3    H129772   2.438   5.174   4.170
 9965TIP3    H229773   2.322   5.249   4.108
 9966TIP3   OH229774   1.508   5.595   4.827
 9966TIP3    H129775   1.547   5.578   4.741
 9966TIP3    H229776   1.576   5.567   4.889
 9967TIP3   OH229777   1.972   5.744   4.028
 9967TIP3    H129778   1.924   5.826   4.024
 9967TIP3    H229779   1.917   5.686   4.080
 9968TIP3   OH229780   1.398   5.528   5.467
 9968TIP3    H129781   1.398   5.500   5.559
 9968TIP3    H229782   1.323   5.483   5.428
 9969TIP3   OH229783   2.138   5.669   5.491
 9969TIP3    H129784   2.068   5.610   5.463
 9969TIP3    H229785   2.218   5.627   5.461
 9970TIP3   OH229786   2.375   6.219   5.090
 9970TIP3    H129787   2.280   6.206   5.093
 9970TIP3    H229788   2.397   6.254   5.176
 9971TIP3   OH229789   2.755   5.254   3.972
 9971TIP3    H129790   2.699   5.209   3.909
 9971TIP3    H229791   2.761   5.344   3.938
 9972TIP3   OH229792   3.012   6.125   5.060
 9972TIP3    H129793   2.917   6.109   5.052
 9972TIP3    H229794   3.047   6.098   4.975
 9973TIP3   OH229795   2.500   6.073   3.912
 9973TIP3    H129796   2.473   6.004   3.972
 9973TIP3    H229797   2.521   6.028   3.831
 9974TIP3   OH229798   2.483   5.706   4.682
 9974TIP3    H129799   2.393   5.685   4.708
 9974TIP3    H229800   2.517   5.625   4.645
 9975TIP3   OH229801   1.642   5.945   4.502
 9975TIP3    H129802   1.639   6.020   4.442
 9975TIP3    H229803   1.554   5.942   4.541
 9976TIP3   OH229804   1.203   5.228   4.212
 9976TIP3    H129805   1.246   5.311   4.234
 9976TIP3    H229806   1.123   5.228   4.264
 9977TIP3   OH229807   1.713   5.700   4.400
 9977TIP3    H129808   1.700   5.789   4.433
 9977TIP3    H229809   1.690   5.643   4.473
 9978TIP3   OH229810   1.924   6.267   4.956
 9978TIP3    H129811   1.958   6.342   4.907
 9978TIP3    H229812   1.998   6.236   5.007
 9979TIP3   OH229813   1.560   6.166   4.348
 9979TIP3    H129814   1.473   6.171   4.388
 9979TIP3    H229815   1.594   6.256   4.355
 9980TIP3   OH229816   2.268   5.936   4.931
 9980TIP3    H129817   2.254   5.932   5.026
 9980TIP3    H229818   2.348   5.886   4.916
 9981TIP3   OH229819   2.268   5.810   3.794
 9981TIP3    H129820   2.319   5.781   3.869
 9981TIP3    H229821   2.185   5.762   3.801
 9982TIP3   OH229822   2.527   6.425   4.969
 9982TIP3    H129823   2.458   6.362   4.992
 9982TIP3    H229824   2.489   6.477   4.899
 9983TIP3   OH229825   2.576   6.276   3.603
 9983TIP3    H129826   2.597   6.338   3.533
 9983TIP3    H229827   2.505   6.317   3.652
 9984TIP3   OH229828   1.613   5.055   5.465
 9984TIP3    H129829   1.517   5.062   5.466
 9984TIP3    H229830   1.633   5.003   5.543
 9985TIP3   OH229831   2.444   5.723   3.985
 9985TIP3    H129832   2.428   5.670   4.063
 9985TIP3    H229833   2.539   5.730   3.980
 9986TIP3   OH229834   1.354   6.168   5.112
 9986TIP3    H129835   1.408   6.112   5.168
 9986TIP3    H229836   1.364   6.256   5.148
 9987TIP3   OH229837   1.618   5.771   3.815
 9987TIP3    H129838   1.629   5.680   3.788
 9987TIP3    H229839   1.606   5.767   3.910
 9988TIP3   OH229840   1.562   5.790   4.088
 9988TIP3    H129841   1.623   5.766   4.158
 9988TIP3    H229842   1.560   5.886   4.091
 9989TIP3   OH229843   1.294   5.478   4.296
 9989TIP3    H129844   1.230   5.528   4.347
 9989TIP3    H229845   1.316   5.536   4.223
 9990TIP3   OH229846   2.487   5.095   5.177
 9990TIP3    H129847   2.551   5.167   5.184
 9990TIP3    H229848   2.484   5.056   5.264
 9991TIP3   OH229849   2.347   4.856   4.360
 9991TIP3    H129850   2.327   4.873   4.268
 9991TIP3    H229851   2.391   4.935   4.390
 9992TIP3   OH229852   1.827   5.972   4.018
 9992TIP3    H129853   1.743   5.997   4.055
 9992TIP3    H229854   1.852   6.047   3.964
 9993TIP3   OH229855   1.991   5.056   4.448
 9993TIP3    H129856   2.054   5.123   4.420
 9993TIP3    H229857   2.016   5.036   4.538
 9994TIP3   OH229858   2.296   5.356   5.229
 9994TIP3    H129859   2.315   5.408   5.307
 9994TIP3    H229860   2.345   5.274   5.242
 9995TIP3   OH229861   2.155   4.758   4.532
 9995TIP3    H129862   2.135   4.836   4.584
 9995TIP3    H229863   2.226   4.784   4.474
 9996TIP3   OH229864   1.579   6.064   4.096
 9996TIP3    H129865   1.560   6.137   4.037
 9996TIP3    H229866   1.571   6.101   4.184
 9997TIP3   OH229867   1.668   4.775   4.341
 9997TIP3    H129868   1.656   4.865   4.372
 9997TIP3    H229869   1.762   4.760   4.348
 9998TIP3   OH229870   2.905   5.252   5.201
 9998TIP3    H129871   2.811   5.261   5.217
 9998TIP3    H229872   2.911   5.189   5.129
 9999TIP3   OH229873   2.573   5.447   4.597
 9999TIP3    H129874   2.497   5.390   4.606
 9999TIP3    H229875   2.640   5.406   4.652
10000TIP3   OH229876   1.323   5.653   4.080
10000TIP3    H129877   1.396   5.715   4.088
10000TIP3    H229878   1.352   5.591   4.013
10001TIP3   OH229879   1.221   4.949   4.208
10001TIP3    H129880   1.236   5.043   4.217
10001TIP3    H229881   1.172   4.941   4.127
10002TIP3   OH229882   2.553   6.425   4.538
10002TIP3    H129883   2.512   6.478   4.470
10002TIP3    H229884   2.647   6.437   4.526
10003TIP3   OH229885   1.618   4.667   5.083
10003TIP3    H129886   1.591   4.635   4.997
10003TIP3    H229887   1.610   4.591   5.140
10004TIP3   OH229888   1.148   5.924   4.470
10004TIP3    H129889   1.108   5.961   4.549
10004TIP3    H229890   1.104   5.969   4.397
10005TIP3   OH229891   1.359   6.452   5.528
10005TIP3    H129892   1.440   6.454   5.578
10005TIP3    H229893   1.339   6.359   5.518
10006TIP3   OH229894   1.815   6.368   5.582
10006TIP3    H129895   1.907   6.342   5.592
10006TIP3    H229896   1.783   6.315   5.509
10007TIP3   OH229897   1.768   5.973   3.699
10007TIP3    H129898   1.721   5.904   3.746
10007TIP3    H229899   1.843   5.929   3.660
10008TIP3   OH229900   2.430   6.314   5.341
10008TIP3    H129901   2.445   6.244   5.404
10008TIP3    H229902   2.504   6.374   5.353
10009TIP3   OH229903   2.213   6.016   3.623
10009TIP3    H129904   2.246   5.952   3.686
10009TIP3    H229905   2.272   6.008   3.548
10010TIP3   OH229906   1.456   5.868   5.733
10010TIP3    H129907   1.468   5.774   5.745
10010TIP3    H229908   1.374   5.876   5.686
10011TIP3   OH229909   1.438   5.465   3.920
10011TIP3    H129910   1.488   5.438   3.997
10011TIP3    H229911   1.504   5.478   3.852
10012TIP3   OH229912   2.072   5.947   5.506
10012TIP3    H129913   2.028   5.968   5.423
10012TIP3    H229914   2.107   5.859   5.491
10013TIP3   OH229915   2.018   5.686   3.764
10013TIP3    H129916   1.993   5.695   3.856
10013TIP3    H229917   1.997   5.594   3.743
10014TIP3   OH229918   2.544   5.994   5.121
10014TIP3    H129919   2.621   6.022   5.071
10014TIP3    H229920   2.480   6.064   5.107
10015TIP3   OH229921   1.561   5.606   5.740
10015TIP3    H129922   1.635   5.595   5.680
10015TIP3    H229923   1.602   5.628   5.824
10016TIP3   OH229924   1.608   5.405   4.133
10016TIP3    H129925   1.589   5.375   4.222
10016TIP3    H229926   1.657   5.334   4.093
10017TIP3   OH229927   1.934   5.493   5.398
10017TIP3    H129928   1.846   5.531   5.410
10017TIP3    H229929   1.961   5.522   5.311
10018TIP3   OH229930   1.754   5.226   3.978
10018TIP3    H129931   1.724   5.230   3.887
10018TIP3    H229932   1.849   5.235   3.973
10019TIP3   OH229933   2.422   5.865   5.466
10019TIP3    H129934   2.496   5.834   5.413
10019TIP3    H229935   2.423   5.809   5.543
10020TIP3   OH229936   2.544   5.513   3.658
10020TIP3    H129937   2.530   5.472   3.572
10020TIP3    H229938   2.521   5.605   3.645
10021TIP3   OH229939   2.034   5.257   5.500
10021TIP3    H129940   2.037   5.188   5.435
10021TIP3    H229941   2.000   5.333   5.454
10022TIP3   OH229942   2.051   5.054   5.298
10022TIP3    H129943   2.075   5.094   5.215
10022TIP3    H229944   1.959   5.027   5.286
10023TIP3   OH229945   2.038   5.593   5.168
10023TIP3    H129946   2.125   5.630   5.154
10023TIP3    H229947   1.980   5.649   5.116
10024TIP3   OH229948   2.637   5.532   5.549
10024TIP3    H129949   2.682   5.449   5.564
10024TIP3    H229950   2.708   5.596   5.540
10025TIP3   OH229951   2.671   5.817   5.282
10025TIP3    H129952   2.619   5.880   5.233
10025TIP3    H229953   2.760   5.830   5.251
10026TIP3   OH229954   1.920   5.339   5.746
10026TIP3    H129955   1.846   5.281   5.766
10026TIP3    H229956   1.945   5.316   5.656
10027TIP3   OH229957   2.172   4.794   5.347
10027TIP3    H129958   2.141   4.883   5.333
10027TIP3    H229959   2.092   4.743   5.362
10028TIP3   OH229960   2.285   5.293   5.611
10028TIP3    H129961   2.273   5.293   5.706
10028TIP3    H229962   2.197   5.278   5.576
10029TIP3   OH229963   2.511   5.234   5.462
10029TIP3    H129964   2.435   5.248   5.519
10029TIP3    H229965   2.586   5.236   5.521
10030TIP3   OH229966   2.732   5.261   5.627
10030TIP3    H129967   2.768   5.173   5.635
10030TIP3    H229968   2.735   5.297   5.716
10031TIP3   OH229969   1.744   5.127   5.808
10031TIP3    H129970   1.750   5.036   5.777
10031TIP3    H229971   1.776   5.124   5.898
10032TIP3   OH229972   2.274   4.999   5.787
10032TIP3    H129973   2.278   5.007   5.692
10032TIP3    H229974   2.225   5.076   5.816
10033TIP3   OH229975   1.580   6.278   3.918
10033TIP3    H129976   1.667   6.253   3.889
10033TIP3    H229977   1.541   6.321   3.842
10034TIP3   OH229978   1.052   5.655   4.096
10034TIP3    H129979   1.147   5.665   4.093
10034TIP3    H229980   1.036   5.568   4.058
10035TIP3   OH229981   0.972   6.217   4.529
10035TIP3    H129982   0.908   6.160   4.485
10035TIP3    H229983   1.011   6.161   4.597
10036TIP3   OH229984   1.099   6.066   4.721
10036TIP3    H129985   1.094   6.000   4.790
10036TIP3    H229986   1.150   6.137   4.760
10037TIP3   OH229987   2.824   6.475   4.535
10037TIP3    H129988   2.843   6.501   4.625
10037TIP3    H229989   2.878   6.534   4.482
10038TIP3   OH229990   2.843   6.507   4.815
10038TIP3    H129991   2.795   6.424   4.811
10038TIP3    H229992   2.912   6.491   4.879
10039TIP3   OH229993   2.902   6.203   5.382
10039TIP3    H129994   2.829   6.213   5.443
10039TIP3    H229995   2.949   6.287   5.386
10040TIP3   OH229996   2.724   5.723   3.989
10040TIP3    H129997   2.780   5.794   3.961
10040TIP3    H229998   2.769   5.685   4.064
10041TIP3   OH229999   2.852   5.580   4.192
10041TIP3    H130000   2.785   5.543   4.249
10041TIP3    H230001   2.917   5.617   4.251
10042TIP3   OH230002   2.895   5.984   4.630
10042TIP3    H130003   2.946   5.916   4.585
10042TIP3    H230004   2.897   6.059   4.570
10043TIP3   OH230005   2.700   6.269   4.817
10043TIP3    H130006   2.633   6.314   4.870
10043TIP3    H230007   2.650   6.228   4.746
10044TIP3   OH230008   2.752   5.495   3.838
10044TIP3    H130009   2.680   5.495   3.774
10044TIP3    H230010   2.738   5.574   3.890
10045TIP3   OH230011   2.605   5.140   3.773
10045TIP3    H130012   2.558   5.176   3.698
10045TIP3    H230013   2.599   5.045   3.763
10046TIP3   OH230014   2.646   5.441   4.327
10046TIP3    H130015   2.650   5.347   4.312
10046TIP3    H230016   2.626   5.450   4.421
10047TIP3   OH230017   1.266   5.507   5.099
10047TIP3    H130018   1.256   5.474   5.010
10047TIP3    H230019   1.360   5.500   5.118
10048TIP3   OH230020   2.936   5.847   5.191
10048TIP3    H130021   3.003   5.781   5.178
10048TIP3    H230022   2.956   5.916   5.128
10049TIP3   OH230023   3.121   5.630   5.184
10049TIP3    H130024   3.046   5.592   5.229
10049TIP3    H230025   3.192   5.568   5.200
10050TIP3   OH230026   2.570   4.868   3.743
10050TIP3    H130027   2.634   4.843   3.810
10050TIP3    H230028   2.487   4.833   3.776
10051TIP3   OH230029   2.637   5.163   4.215
10051TIP3    H130030   2.684   5.081   4.229
10051TIP3    H230031   2.677   5.200   4.136
10052TIP3   OH230032   2.791   5.327   4.740
10052TIP3    H130033   2.871   5.345   4.692
10052TIP3    H230034   2.803   5.371   4.824
10053TIP3   OH230035   2.856   5.484   4.962
10053TIP3    H130036   2.786   5.512   5.021
10053TIP3    H230037   2.887   5.565   4.922
10054TIP3   OH230038   1.482   5.175   5.739
10054TIP3    H130039   1.576   5.176   5.759
10054TIP3    H230040   1.450   5.094   5.779
10055TIP3   OH230041   2.755   4.914   4.272
10055TIP3    H130042   2.798   4.899   4.356
10055TIP3    H230043   2.692   4.843   4.264
10056TIP3   OH230044   1.461   4.896   5.097
10056TIP3    H130045   1.513   4.815   5.101
10056TIP3    H230046   1.525   4.964   5.078
10057TIP3   OH230047   1.239   5.160   5.150
10057TIP3    H130048   1.291   5.149   5.071
10057TIP3    H230049   1.267   5.245   5.186
10058TIP3   OH230050   3.176   5.183   5.305
10058TIP3    H130051   3.108   5.219   5.362
10058TIP3    H230052   3.134   5.109   5.261
10059TIP3   OH230053   2.794   4.823   3.903
10059TIP3    H130054   2.844   4.762   3.849
10059TIP3    H230055   2.849   4.902   3.908
10060TIP3   OH230056   1.230   4.682   4.662
10060TIP3    H130057   1.144   4.662   4.700
10060TIP3    H230058   1.210   4.732   4.583
10061TIP3   OH230059   2.380   6.396   4.173
10061TIP3    H130060   2.437   6.384   4.097
10061TIP3    H230061   2.424   6.464   4.225
10062TIP3   OH230062   1.454   4.724   5.486
10062TIP3    H130063   1.403   4.720   5.566
10062TIP3    H230064   1.399   4.771   5.423
10063TIP3   OH230065   1.492   6.177   5.556
10063TIP3    H130066   1.398   6.161   5.546
10063TIP3    H230067   1.508   6.170   5.650
10064TIP3   OH230068   1.694   6.233   5.103
10064TIP3    H130069   1.644   6.309   5.073
10064TIP3    H230070   1.779   6.241   5.060
10065TIP3   OH230071   2.087   6.464   5.243
10065TIP3    H130072   2.124   6.456   5.331
10065TIP3    H230073   2.150   6.518   5.195
10066TIP3   OH230074   2.281   6.618   5.119
10066TIP3    H130075   2.345   6.564   5.073
10066TIP3    H230076   2.334   6.677   5.173
10067TIP3   OH230077   3.067   4.941   5.201
10067TIP3    H130078   2.980   4.953   5.165
10067TIP3    H230079   3.069   4.849   5.229
10068TIP3   OH230080   1.353   6.461   5.153
10068TIP3    H130081   1.263   6.481   5.128
10068TIP3    H230082   1.376   6.528   5.217
10069TIP3   OH230083   1.585   6.465   5.002
10069TIP3    H130084   1.501   6.466   5.049
10069TIP3    H230085   1.562   6.487   4.912
10070TIP3   OH230086   1.995   6.482   4.796
10070TIP3    H130087   1.923   6.493   4.734
10070TIP3    H230088   2.005   6.568   4.837
10071TIP3   OH230089   2.257   6.413   4.842
10071TIP3    H130090   2.166   6.435   4.823
10071TIP3    H230091   2.308   6.480   4.797
10072TIP3   OH230092   2.458   6.582   4.743
10072TIP3    H130093   2.460   6.670   4.705
10072TIP3    H230094   2.489   6.525   4.673
10073TIP3   OH230095   1.274   6.252   4.858
10073TIP3    H130096   1.296   6.228   4.948
10073TIP3    H230097   1.345   6.216   4.805
10074TIP3   OH230098   1.475   6.128   4.723
10074TIP3    H130099   1.485   6.044   4.767
10074TIP3    H230100   1.561   6.169   4.730
10075TIP3   OH230101   1.740   6.216   4.753
10075TIP3    H130102   1.760   6.124   4.737
10075TIP3    H230103   1.794   6.241   4.827
10076TIP3   OH230104   2.298   4.870   4.832
10076TIP3    H130105   2.258   4.796   4.877
10076TIP3    H230106   2.366   4.830   4.777
10077TIP3   OH230107   2.800   4.789   4.744
10077TIP3    H130108   2.837   4.834   4.668
10077TIP3    H230109   2.706   4.802   4.737
10078TIP3   OH230110   2.910   4.857   4.499
10078TIP3    H130111   2.978   4.797   4.469
10078TIP3    H230112   2.947   4.944   4.485
10079TIP3   OH230113   1.534   4.563   4.842
10079TIP3    H130114   1.444   4.529   4.849
10079TIP3    H230115   1.588   4.485   4.835
10080TIP3   OH230116   1.341   4.482   4.486
10080TIP3    H130117   1.374   4.530   4.410
10080TIP3    H230118   1.314   4.551   4.548
10081TIP3   OH230119   1.979   4.645   4.723
10081TIP3    H130120   2.039   4.673   4.654
10081TIP3    H230121   2.026   4.662   4.804
10082TIP3   OH230122   2.516   4.758   4.698
10082TIP3    H130123   2.533   4.724   4.611
10082TIP3    H230124   2.514   4.681   4.755
10083TIP3   OH230125   2.568   4.705   4.277
10083TIP3    H130126   2.488   4.751   4.302
10083TIP3    H230127   2.558   4.617   4.314
10084TIP3   OH230128   1.033   6.045   4.251
10084TIP3    H130129   0.954   6.011   4.208
10084TIP3    H230130   1.040   6.136   4.221
10085TIP3   OH230131   1.461   4.605   4.253
10085TIP3    H130132   1.508   4.542   4.199
10085TIP3    H230133   1.530   4.661   4.289
10086TIP3   OH230134   1.943   4.805   4.346
10086TIP3    H130135   2.001   4.750   4.399
10086TIP3    H230136   1.960   4.894   4.377
10087TIP3   OH230137   1.831   6.195   3.844
10087TIP3    H130138   1.914   6.222   3.806
10087TIP3    H230139   1.801   6.124   3.788
10088TIP3   OH230140   2.533   6.342   3.947
10088TIP3    H130141   2.526   6.247   3.940
10088TIP3    H230142   2.490   6.375   3.868
10089TIP3   OH230143   1.761   4.853   5.726
10089TIP3    H130144   1.726   4.781   5.780
10089TIP3    H230145   1.851   4.864   5.758
10090TIP3   OH230146   1.999   4.882   5.866
10090TIP3    H130147   2.094   4.882   5.857
10090TIP3    H230148   1.981   4.812   5.930
10091TIP3   OH230149   1.147   6.032   3.902
10091TIP3    H130150   1.149   6.041   3.997
10091TIP3    H230151   1.229   5.987   3.880
10092TIP3   OH230152   2.856   5.027   5.683
10092TIP3    H130153   2.867   4.973   5.761
10092TIP3    H230154   2.919   4.993   5.620
10093TIP3   OH230155   2.749   6.481   5.132
10093TIP3    H130156   2.674   6.452   5.081
10093TIP3    H230157   2.737   6.575   5.142
10094TIP3   OH230158   4.029   5.871   3.869
10094TIP3    H130159   3.998   5.957   3.842
10094TIP3    H230160   3.959   5.811   3.844
10095TIP3   OH230161   4.024   5.861   4.299
10095TIP3    H130162   4.080   5.843   4.374
10095TIP3    H230163   3.981   5.778   4.280
10096TIP3   OH230164   3.320   5.726   4.634
10096TIP3    H130165   3.360   5.677   4.706
10096TIP3    H230166   3.394   5.750   4.577
10097TIP3   OH230167   4.295   6.171   3.971
10097TIP3    H130168   4.283   6.102   4.037
10097TIP3    H230169   4.315   6.250   4.021
10098TIP3   OH230170   3.319   6.144   4.315
10098TIP3    H130171   3.299   6.051   4.325
10098TIP3    H230172   3.415   6.148   4.311
10099TIP3   OH230173   2.997   5.351   4.107
10099TIP3    H130174   2.958   5.435   4.132
10099TIP3    H230175   2.924   5.303   4.067
10100TIP3   OH230176   3.080   5.668   4.334
10100TIP3    H130177   3.131   5.591   4.359
10100TIP3    H230178   3.146   5.733   4.310
10101TIP3   OH230179   3.960   6.589   3.990
10101TIP3    H130180   3.981   6.527   3.920
10101TIP3    H230181   3.970   6.539   4.071
10102TIP3   OH230182   3.836   6.082   4.299
10102TIP3    H130183   3.882   6.001   4.275
10102TIP3    H230184   3.904   6.140   4.331
10103TIP3   OH230185   4.866   5.404   4.295
10103TIP3    H130186   4.875   5.489   4.336
10103TIP3    H230187   4.897   5.417   4.206
10104TIP3   OH230188   4.235   5.571   4.334
10104TIP3    H130189   4.268   5.486   4.363
10104TIP3    H230190   4.200   5.555   4.246
10105TIP3   OH230191   3.592   5.223   4.294
10105TIP3    H130192   3.573   5.297   4.236
10105TIP3    H230193   3.538   5.151   4.261
10106TIP3   OH230194   4.290   5.328   3.931
10106TIP3    H130195   4.351   5.324   4.005
10106TIP3    H230196   4.342   5.362   3.859
10107TIP3   OH230197   3.219   5.445   4.424
10107TIP3    H130198   3.303   5.428   4.466
10107TIP3    H230199   3.221   5.392   4.344
10108TIP3   OH230200   3.637   5.642   4.240
10108TIP3    H130201   3.731   5.627   4.246
10108TIP3    H230202   3.601   5.559   4.207
10109TIP3   OH230203   4.895   5.607   4.487
10109TIP3    H130204   4.816   5.658   4.471
10109TIP3    H230205   4.885   5.574   4.577
10110TIP3   OH230206   3.558   5.238   4.758
10110TIP3    H130207   3.513   5.272   4.680
10110TIP3    H230208   3.504   5.265   4.831
10111TIP3   OH230209   3.927   6.088   3.730
10111TIP3    H130210   3.887   6.056   3.650
10111TIP3    H230211   3.872   6.163   3.756
10112TIP3   OH230212   3.665   6.009   4.505
10112TIP3    H130213   3.613   6.081   4.540
10112TIP3    H230214   3.716   6.047   4.434
10113TIP3   OH230215   4.439   5.363   4.157
10113TIP3    H130216   4.402   5.335   4.241
10113TIP3    H230217   4.499   5.434   4.180
10114TIP3   OH230218   3.468   5.339   4.515
10114TIP3    H130219   3.523   5.415   4.536
10114TIP3    H230220   3.513   5.295   4.443
10115TIP3   OH230221   3.513   6.213   4.615
10115TIP3    H130222   3.500   6.303   4.587
10115TIP3    H230223   3.435   6.193   4.667
10116TIP3   OH230224   2.892   5.917   3.872
10116TIP3    H130225   2.856   5.937   3.786
10116TIP3    H230226   2.914   6.002   3.910
10117TIP3   OH230227   4.326   6.417   4.114
10117TIP3    H130228   4.237   6.410   4.150
10117TIP3    H230229   4.326   6.500   4.067
10118TIP3   OH230230   4.693   5.308   4.497
10118TIP3    H130231   4.613   5.271   4.459
10118TIP3    H230232   4.744   5.336   4.421
10119TIP3   OH230233   3.902   4.923   4.479
10119TIP3    H130234   3.890   4.834   4.511
10119TIP3    H230235   3.828   4.972   4.513
10120TIP3   OH230236   4.036   6.448   3.762
10120TIP3    H130237   4.090   6.369   3.753
10120TIP3    H230238   4.093   6.519   3.735
10121TIP3   OH230239   4.177   6.219   3.725
10121TIP3    H130240   4.105   6.156   3.723
10121TIP3    H230241   4.227   6.195   3.803
10122TIP3   OH230242   4.565   6.302   4.453
10122TIP3    H130243   4.545   6.228   4.396
10122TIP3    H230244   4.551   6.379   4.398
10123TIP3   OH230245   3.855   5.707   3.724
10123TIP3    H130246   3.771   5.748   3.704
10123TIP3    H230247   3.901   5.704   3.641
10124TIP3   OH230248   3.822   5.519   3.407
10124TIP3    H130249   3.888   5.567   3.457
10124TIP3    H230250   3.871   5.450   3.362
10125TIP3   OH230251   4.739   5.971   4.319
10125TIP3    H130252   4.654   6.015   4.316
10125TIP3    H230253   4.774   5.981   4.231
10126TIP3   OH230254   4.214   5.797   3.681
10126TIP3    H130255   4.161   5.826   3.755
10126TIP3    H230256   4.297   5.771   3.721
10127TIP3   OH230257   4.440   5.822   4.639
10127TIP3    H130258   4.434   5.906   4.684
10127TIP3    H230259   4.360   5.817   4.587
10128TIP3   OH230260   3.440   5.774   4.084
10128TIP3    H130261   3.404   5.712   4.021
10128TIP3    H230262   3.513   5.727   4.125
10129TIP3   OH230263   3.584   6.198   4.228
10129TIP3    H130264   3.561   6.184   4.137
10129TIP3    H230265   3.672   6.159   4.237
10130TIP3   OH230266   3.533   5.773   4.459
10130TIP3    H130267   3.573   5.736   4.381
10130TIP3    H230268   3.581   5.854   4.474
10131TIP3   OH230269   4.083   6.414   4.238
10131TIP3    H130270   4.073   6.494   4.290
10131TIP3    H230271   4.070   6.343   4.301
10132TIP3   OH230272   3.711   6.305   4.788
10132TIP3    H130273   3.650   6.361   4.836
10132TIP3    H230274   3.656   6.255   4.728
10133TIP3   OH230275   4.042   5.658   3.515
10133TIP3    H130276   4.103   5.715   3.562
10133TIP3    H230277   4.072   5.661   3.424
10134TIP3   OH230278   3.460   5.848   4.943
10134TIP3    H130279   3.467   5.942   4.957
10134TIP3    H230280   3.365   5.832   4.937
10135TIP3   OH230281   3.788   6.327   3.769
10135TIP3    H130282   3.870   6.376   3.776
10135TIP3    H230283   3.729   6.386   3.722
10136TIP3   OH230284   3.500   6.460   4.876
10136TIP3    H130285   3.474   6.474   4.785
10136TIP3    H230286   3.417   6.448   4.923
10137TIP3   OH230287   4.553   4.882   3.580
10137TIP3    H130288   4.477   4.904   3.634
10137TIP3    H230289   4.562   4.957   3.521
10138TIP3   OH230290   3.314   5.614   3.887
10138TIP3    H130291   3.235   5.661   3.860
10138TIP3    H230292   3.284   5.524   3.903
10139TIP3   OH230293   4.375   6.253   3.137
10139TIP3    H130294   4.368   6.346   3.114
10139TIP3    H230295   4.465   6.230   3.116
10140TIP3   OH230296   3.099   6.021   4.823
10140TIP3    H130297   3.028   6.004   4.761
10140TIP3    H230298   3.131   5.934   4.847
10141TIP3   OH230299   2.937   6.222   4.482
10141TIP3    H130300   3.027   6.249   4.504
10141TIP3    H230301   2.883   6.297   4.507
10142TIP3   OH230302   4.794   6.670   4.523
10142TIP3    H130303   4.799   6.575   4.534
10142TIP3    H230304   4.715   6.696   4.571
10143TIP3   OH230305   3.899   6.453   4.652
10143TIP3    H130306   3.889   6.544   4.681
10143TIP3    H230307   3.832   6.405   4.700
10144TIP3   OH230308   3.679   6.547   3.602
10144TIP3    H130309   3.633   6.527   3.521
10144TIP3    H230310   3.641   6.630   3.631
10145TIP3   OH230311   3.115   6.406   3.981
10145TIP3    H130312   3.160   6.398   4.065
10145TIP3    H230313   3.066   6.325   3.971
10146TIP3   OH230314   3.882   6.482   3.228
10146TIP3    H130315   3.932   6.408   3.193
10146TIP3    H230316   3.916   6.495   3.316
10147TIP3   OH230317   3.933   6.524   3.498
10147TIP3    H130318   3.847   6.528   3.538
10147TIP3    H230319   3.989   6.485   3.564
10148TIP3   OH230320   4.689   5.780   4.783
10148TIP3    H130321   4.606   5.794   4.738
10148TIP3    H230322   4.703   5.685   4.778
10149TIP3   OH230323   3.296   6.211   4.787
10149TIP3    H130324   3.347   6.200   4.868
10149TIP3    H230325   3.224   6.148   4.795
10150TIP3   OH230326   3.669   5.027   4.601
10150TIP3    H130327   3.587   4.995   4.562
10150TIP3    H230328   3.643   5.105   4.650
10151TIP3   OH230329   4.196   5.107   4.767
10151TIP3    H130330   4.252   5.050   4.821
10151TIP3    H230331   4.111   5.103   4.810
10152TIP3   OH230332   4.432   5.554   4.735
10152TIP3    H130333   4.400   5.552   4.825
10152TIP3    H230334   4.419   5.645   4.707
10153TIP3   OH230335   4.120   5.637   3.253
10153TIP3    H130336   4.076   5.638   3.168
10153TIP3    H230337   4.204   5.681   3.237
10154TIP3   OH230338   3.828   5.057   3.574
10154TIP3    H130339   3.792   5.064   3.662
10154TIP3    H230340   3.794   4.974   3.541
10155TIP3   OH230341   3.616   5.553   4.609
10155TIP3    H130342   3.572   5.563   4.693
10155TIP3    H230343   3.596   5.634   4.561
10156TIP3   OH230344   3.495   5.426   4.135
10156TIP3    H130345   3.406   5.401   4.160
10156TIP3    H230346   3.505   5.394   4.046
10157TIP3   OH230347   3.975   5.500   3.861
10157TIP3    H130348   3.929   5.574   3.821
10157TIP3    H230349   4.033   5.468   3.793
10158TIP3   OH230350   4.165   5.760   4.929
10158TIP3    H130351   4.140   5.693   4.993
10158TIP3    H230352   4.255   5.781   4.951
10159TIP3   OH230353   4.143   5.516   4.082
10159TIP3    H130354   4.075   5.533   4.017
10159TIP3    H230355   4.192   5.442   4.046
10160TIP3   OH230356   3.458   5.582   4.829
10160TIP3    H130357   3.464   5.652   4.895
10160TIP3    H230358   3.433   5.504   4.880
10161TIP3   OH230359   3.497   5.035   3.553
10161TIP3    H130360   3.488   5.041   3.648
10161TIP3    H230361   3.419   5.078   3.519
10162TIP3   OH230362   3.041   5.079   4.417
10162TIP3    H130363   3.113   5.120   4.464
10162TIP3    H230364   3.075   5.062   4.329
10163TIP3   OH230365   2.944   5.057   3.916
10163TIP3    H130366   2.990   5.093   3.840
10163TIP3    H230367   2.880   5.125   3.939
10164TIP3   OH230368   4.193   5.772   4.509
10164TIP3    H130369   4.217   5.706   4.444
10164TIP3    H230370   4.147   5.723   4.577
10165TIP3   OH230371   3.864   5.213   4.183
10165TIP3    H130372   3.788   5.210   4.242
10165TIP3    H230373   3.939   5.202   4.241
10166TIP3   OH230374   3.255   5.301   4.194
10166TIP3    H130375   3.168   5.306   4.155
10166TIP3    H230376   3.284   5.211   4.176
10167TIP3   OH230377   3.509   5.307   3.888
10167TIP3    H130378   3.604   5.316   3.880
10167TIP3    H230379   3.475   5.323   3.800
10168TIP3   OH230380   4.297   5.310   4.396
10168TIP3    H130381   4.276   5.325   4.488
10168TIP3    H230382   4.232   5.246   4.366
10169TIP3   OH230383   3.401   5.328   3.637
10169TIP3    H130384   3.338   5.278   3.585
10169TIP3    H230385   3.455   5.373   3.573
10170TIP3   OH230386   4.508   7.011   4.615
10170TIP3    H130387   4.507   7.025   4.520
10170TIP3    H230388   4.588   7.055   4.644
10171TIP3   OH230389   3.449   6.118   5.022
10171TIP3    H130390   3.529   6.140   5.070
10171TIP3    H230391   3.379   6.131   5.087
10172TIP3   OH230392   3.910   5.591   4.290
10172TIP3    H130393   3.977   5.543   4.240
10172TIP3    H230394   3.908   5.548   4.375
10173TIP3   OH230395   3.398   5.053   4.171
10173TIP3    H130396   3.369   4.976   4.220
10173TIP3    H230397   3.419   5.020   4.084
10174TIP3   OH230398   3.880   5.490   4.553
10174TIP3    H130399   3.794   5.525   4.576
10174TIP3    H230400   3.942   5.542   4.605
10175TIP3   OH230401   3.615   5.837   3.668
10175TIP3    H130402   3.540   5.783   3.642
10175TIP3    H230403   3.587   5.881   3.748
10176TIP3   OH230404   4.502   6.104   4.272
10176TIP3    H130405   4.539   6.152   4.198
10176TIP3    H230406   4.425   6.060   4.237
10177TIP3   OH230407   4.081   5.160   3.580
10177TIP3    H130408   3.988   5.139   3.576
10177TIP3    H230409   4.084   5.255   3.591
10178TIP3   OH230410   4.030   6.187   4.691
10178TIP3    H130411   4.082   6.174   4.770
10178TIP3    H230412   3.990   6.273   4.702
10179TIP3   OH230413   4.139   5.426   3.645
10179TIP3    H130414   4.234   5.429   3.657
10179TIP3    H230415   4.119   5.504   3.593
10180TIP3   OH230416   3.302   5.854   4.311
10180TIP3    H130417   3.341   5.836   4.225
10180TIP3    H230418   3.369   5.826   4.373
10181TIP3   OH230419   3.768   6.000   3.513
10181TIP3    H130420   3.720   6.083   3.510
10181TIP3    H230421   3.713   5.942   3.566
10182TIP3   OH230422   3.186   5.782   4.956
10182TIP3    H130423   3.189   5.745   5.045
10182TIP3    H230424   3.109   5.742   4.916
10183TIP3   OH230425   3.937   5.924   4.975
10183TIP3    H130426   3.866   5.866   4.950
10183TIP3    H230427   4.016   5.880   4.944
10184TIP3   OH230428   4.170   6.478   4.577
10184TIP3    H130429   4.076   6.463   4.580
10184TIP3    H230430   4.192   6.511   4.664
10185TIP3   OH230431   4.550   5.515   3.461
10185TIP3    H130432   4.491   5.470   3.400
10185TIP3    H230433   4.559   5.603   3.425
10186TIP3   OH230434   4.809   6.393   4.541
10186TIP3    H130435   4.716   6.372   4.537
10186TIP3    H230436   4.845   6.360   4.458
10187TIP3   OH230437   4.297   6.329   3.402
10187TIP3    H130438   4.271   6.261   3.464
10187TIP3    H230439   4.315   6.282   3.320
10188TIP3   OH230440   4.278   5.964   4.167
10188TIP3    H130441   4.189   5.943   4.193
10188TIP3    H230442   4.313   5.883   4.130
10189TIP3   OH230443   3.435   6.202   3.989
10189TIP3    H130444   3.429   6.277   3.930
10189TIP3    H230445   3.349   6.197   4.030
10190TIP3   OH230446   2.993   5.484   3.704
10190TIP3    H130447   3.035   5.567   3.727
10190TIP3    H230448   2.911   5.484   3.753
10191TIP3   OH230449   3.508   5.958   3.884
10191TIP3    H130450   3.494   6.046   3.918
10191TIP3    H230451   3.486   5.901   3.958
10192TIP3   OH230452   3.718   6.524   4.443
10192TIP3    H130453   3.753   6.598   4.394
10192TIP3    H230454   3.792   6.491   4.494
10193TIP3   OH230455   3.350   6.423   3.837
10193TIP3    H130456   3.263   6.430   3.876
10193TIP3    H230457   3.386   6.511   3.844
10194TIP3   OH230458   4.065   6.194   4.416
10194TIP3    H130459   4.052   6.190   4.510
10194TIP3    H230460   4.142   6.139   4.400
10195TIP3   OH230461   4.061   6.067   3.285
10195TIP3    H130462   4.113   6.040   3.360
10195TIP3    H230463   3.978   6.020   3.295
10196TIP3   OH230464   4.325   6.680   4.456
10196TIP3    H130465   4.256   6.617   4.480
10196TIP3    H230466   4.286   6.732   4.386
10197TIP3   OH230467   4.366   6.525   3.090
10197TIP3    H130468   4.385   6.584   3.017
10197TIP3    H230469   4.298   6.571   3.140
10198TIP3   OH230470   3.386   5.343   4.957
10198TIP3    H130471   3.292   5.342   4.942
10198TIP3    H230472   3.395   5.352   5.052
10199TIP3   OH230473   4.240   5.984   3.475
10199TIP3    H130474   4.224   5.928   3.551
10199TIP3    H230475   4.335   5.990   3.469
10200TIP3   OH230476   3.145   6.418   4.604
10200TIP3    H130477   3.198   6.359   4.658
10200TIP3    H230478   3.159   6.505   4.642
10201TIP3   OH230479   3.412   6.028   3.302
10201TIP3    H130480   3.423   5.936   3.275
10201TIP3    H230481   3.400   6.024   3.397
10202TIP3   OH230482   3.354   6.046   3.575
10202TIP3    H130483   3.413   6.021   3.646
10202TIP3    H230484   3.352   6.142   3.578
10203TIP3   OH230485   3.086   5.736   3.783
10203TIP3    H130486   3.022   5.785   3.835
10203TIP3    H230487   3.106   5.793   3.709
10204TIP3   OH230488   4.236   5.366   4.662
10204TIP3    H130489   4.317   5.404   4.695
10204TIP3    H230490   4.230   5.281   4.706
10205TIP3   OH230491   4.143   5.109   3.846
10205TIP3    H130492   4.122   5.128   3.755
10205TIP3    H230493   4.187   5.188   3.878
10206TIP3   OH230494   3.622   6.228   3.505
10206TIP3    H130495   3.538   6.253   3.543
10206TIP3    H230496   3.647   6.304   3.451
10207TIP3   OH230497   3.788   5.311   3.935
10207TIP3    H130498   3.850   5.379   3.908
10207TIP3    H230499   3.813   5.288   4.024
10208TIP3   OH230500   4.086   5.606   4.701
10208TIP3    H130501   4.112   5.647   4.784
10208TIP3    H230502   4.135   5.523   4.699
10209TIP3   OH230503   3.955   5.002   4.018
10209TIP3    H130504   3.933   5.079   4.071
10209TIP3    H230505   4.026   5.031   3.961
10210TIP3   OH230506   3.375   6.320   3.585
10210TIP3    H130507   3.356   6.393   3.525
10210TIP3    H230508   3.364   6.357   3.672
10211TIP3   OH230509   3.466   5.032   3.833
10211TIP3    H130510   3.456   5.124   3.859
10211TIP3    H230511   3.561   5.017   3.839
10212TIP3   OH230512   4.696   5.507   4.691
10212TIP3    H130513   4.602   5.516   4.709
10212TIP3    H230514   4.701   5.440   4.624
10213TIP3   OH230515   4.368   5.706   4.080
10213TIP3    H130516   4.293   5.648   4.091
10213TIP3    H230517   4.437   5.667   4.135
10214TIP3   OH230518   3.112   5.909   3.565
10214TIP3    H130519   3.184   5.972   3.574
10214TIP3    H230520   3.143   5.847   3.499
10215TIP3   OH230521   3.014   5.206   3.696
10215TIP3    H130522   3.027   5.300   3.706
10215TIP3    H230523   2.955   5.198   3.622
10216TIP3   OH230524   4.351   6.682   4.028
10216TIP3    H130525   4.310   6.735   3.960
10216TIP3    H230526   4.445   6.693   4.013
10217TIP3   OH230527   3.412   4.938   4.544
10217TIP3    H130528   3.385   4.906   4.458
10217TIP3    H230529   3.398   4.864   4.603
10218TIP3   OH230530   2.938   6.186   3.957
10218TIP3    H130531   2.896   6.222   4.035
10218TIP3    H230532   2.894   6.229   3.884
10219TIP3   OH230533   3.146   6.720   5.026
10219TIP3    H130534   3.228   6.726   5.076
10219TIP3    H230535   3.131   6.626   5.017
10220TIP3   OH230536   3.610   6.623   5.070
10220TIP3    H130537   3.700   6.595   5.079
10220TIP3    H230538   3.575   6.569   4.999
10221TIP3   OH230539   3.564   6.228   3.187
10221TIP3    H130540   3.518   6.159   3.234
10221TIP3    H230541   3.640   6.185   3.148
10222TIP3   OH230542   4.227   6.568   4.829
10222TIP3    H130543   4.243   6.498   4.893
10222TIP3    H230544   4.300   6.629   4.841
10223TIP3   OH230545   4.010   6.271   3.110
10223TIP3    H130546   4.042   6.207   3.174
10223TIP3    H230547   4.069   6.262   3.035
10224TIP3   OH230548   3.243   6.123   5.212
10224TIP3    H130549   3.263   6.031   5.226
10224TIP3    H230550   3.156   6.124   5.174
10225TIP3   OH230551   3.232   5.721   3.407
10225TIP3    H130552   3.282   5.696   3.484
10225TIP3    H230553   3.298   5.735   3.339
10226TIP3   OH230554   3.868   6.202   4.991
10226TIP3    H130555   3.823   6.223   4.910
10226TIP3    H230556   3.904   6.114   4.977
10227TIP3   OH230557   3.808   5.942   3.248
10227TIP3    H130558   3.785   5.952   3.340
10227TIP3    H230559   3.789   5.851   3.228
10228TIP3   OH230560   4.340   6.253   4.608
10228TIP3    H130561   4.418   6.279   4.558
10228TIP3    H230562   4.277   6.323   4.592
10229TIP3   OH230563   3.358   5.870   5.229
10229TIP3    H130564   3.431   5.852   5.170
10229TIP3    H230565   3.398   5.888   5.314
10230TIP3   OH230566   3.403   5.663   3.620
10230TIP3    H130567   3.383   5.634   3.709
10230TIP3    H230568   3.454   5.592   3.581
10231TIP3   OH230569   3.727   5.754   4.887
10231TIP3    H130570   3.640   5.791   4.898
10231TIP3    H230571   3.754   5.780   4.799
10232TIP3   OH230572   3.551   5.483   3.467
10232TIP3    H130573   3.521   5.487   3.376
10232TIP3    H230574   3.646   5.492   3.461
10233TIP3   OH230575   4.219   6.123   4.952
10233TIP3    H130576   4.289   6.086   4.898
10233TIP3    H230577   4.216   6.067   5.030
10234TIP3   OH230578   4.341   5.767   3.146
10234TIP3    H130579   4.330   5.726   3.060
10234TIP3    H230580   4.315   5.859   3.132
10235TIP3   OH230581   3.827   5.517   4.988
10235TIP3    H130582   3.827   5.448   4.922
10235TIP3    H230583   3.794   5.595   4.942
10236TIP3   OH230584   3.823   5.320   4.784
10236TIP3    H130585   3.851   5.355   4.699
10236TIP3    H230586   3.731   5.295   4.770
10237TIP3   OH230587   3.829   5.845   4.653
10237TIP3    H130588   3.919   5.876   4.639
10237TIP3    H230589   3.775   5.905   4.601
10238TIP3   OH230590   4.430   5.815   5.026
10238TIP3    H130591   4.477   5.732   5.025
10238TIP3    H230592   4.498   5.882   5.022
10239TIP3   OH230593   4.458   6.071   4.771
10239TIP3    H130594   4.407   6.135   4.721
10239TIP3    H230595   4.548   6.083   4.740
10240TIP3   OH230596   3.719   5.601   5.234
10240TIP3    H130597   3.648   5.540   5.254
10240TIP3    H230598   3.744   5.579   5.144
10241TIP3   OH230599   3.950   5.091   4.886
10241TIP3    H130600   3.906   5.170   4.855
10241TIP3    H230601   3.888   5.020   4.868
10242TIP3   OH230602   4.084   5.553   5.092
10242TIP3    H130603   4.074   5.540   5.186
10242TIP3    H230604   3.998   5.534   5.055
10243TIP3   OH230605   4.347   5.516   4.988
10243TIP3    H130606   4.265   5.513   5.038
10243TIP3    H230607   4.413   5.482   5.049
10244TIP3   OH230608   4.581   5.451   5.140
10244TIP3    H130609   4.606   5.365   5.173
10244TIP3    H230610   4.569   5.504   5.218
10245TIP3   OH230611   3.571   5.369   5.303
10245TIP3    H130612   3.629   5.296   5.282
10245TIP3    H230613   3.580   5.379   5.398
10246TIP3   OH230614   3.970   5.045   5.159
10246TIP3    H130615   3.955   4.951   5.169
10246TIP3    H230616   3.973   5.060   5.065
10247TIP3   OH230617   4.109   5.261   5.283
10247TIP3    H130618   4.068   5.188   5.236
10247TIP3    H230619   4.040   5.327   5.290
10248TIP3   OH230620   3.377   6.532   3.405
10248TIP3    H130621   3.464   6.508   3.376
10248TIP3    H230622   3.337   6.577   3.330
10249TIP3   OH230623   2.838   5.917   3.573
10249TIP3    H130624   2.934   5.924   3.574
10249TIP3    H230625   2.822   5.830   3.536
10250TIP3   OH230626   2.740   6.494   4.046
10250TIP3    H130627   2.675   6.440   4.000
10250TIP3    H230628   2.785   6.433   4.104
10251TIP3   OH230629   2.886   6.324   4.210
10251TIP3    H130630   2.878   6.255   4.276
10251TIP3    H230631   2.939   6.392   4.253
10252TIP3   OH230632   4.624   6.727   4.021
10252TIP3    H130633   4.643   6.754   4.111
10252TIP3    H230634   4.681   6.782   3.967
10253TIP3   OH230635   4.641   6.762   4.300
10253TIP3    H130636   4.593   6.679   4.296
10253TIP3    H230637   4.710   6.746   4.365
10254TIP3   OH230638   4.700   6.463   4.869
10254TIP3    H130639   4.626   6.472   4.929
10254TIP3    H230640   4.746   6.546   4.875
10255TIP3   OH230641   4.520   5.980   3.476
10255TIP3    H130642   4.579   6.049   3.447
10255TIP3    H230643   4.564   5.940   3.551
10256TIP3   OH230644   4.646   5.836   3.678
10256TIP3    H130645   4.579   5.798   3.734
10256TIP3    H230646   4.711   5.872   3.738
10257TIP3   OH230647   4.692   6.239   4.115
10257TIP3    H130648   4.743   6.170   4.073
10257TIP3    H230649   4.694   6.312   4.053
10258TIP3   OH230650   4.498   6.524   4.305
10258TIP3    H130651   4.431   6.569   4.357
10258TIP3    H230652   4.449   6.483   4.234
10259TIP3   OH230653   4.552   5.754   3.322
10259TIP3    H130654   4.480   5.752   3.259
10259TIP3    H230655   4.537   5.832   3.374
10260TIP3   OH230656   4.392   5.402   3.269
10260TIP3    H130657   4.347   5.436   3.192
10260TIP3    H230658   4.388   5.306   3.259
10261TIP3   OH230659   4.441   5.697   3.812
10261TIP3    H130660   4.445   5.603   3.798
10261TIP3    H230661   4.421   5.706   3.905
10262TIP3   OH230662   3.055   5.757   4.591
10262TIP3    H130663   3.046   5.727   4.500
10262TIP3    H230664   3.150   5.756   4.606
10263TIP3   OH230665   4.718   6.108   4.677
10263TIP3    H130666   4.788   6.044   4.665
10263TIP3    H230667   4.729   6.168   4.604
10264TIP3   OH230668   4.908   5.905   4.673
10264TIP3    H130669   4.834   5.858   4.711
10264TIP3    H230670   4.985   5.856   4.702
10265TIP3   OH230671   4.363   5.130   3.237
10265TIP3    H130672   4.429   5.102   3.300
10265TIP3    H230673   4.282   5.091   3.269
10266TIP3   OH230674   4.433   5.420   3.703
10266TIP3    H130675   4.481   5.338   3.716
10266TIP3    H230676   4.473   5.458   3.624
10267TIP3   OH230677   4.585   5.591   4.222
10267TIP3    H130678   4.668   5.605   4.176
10267TIP3    H230679   4.598   5.631   4.308
10268TIP3   OH230680   4.652   5.742   4.449
10268TIP3    H130681   4.581   5.769   4.507
10268TIP3    H230682   4.682   5.824   4.409
10269TIP3   OH230683   3.304   5.413   5.229
10269TIP3    H130684   3.393   5.410   5.264
10269TIP3    H230685   3.262   5.334   5.263
10270TIP3   OH230686   5.096   5.394   4.998
10270TIP3    H130687   5.050   5.312   5.015
10270TIP3    H230688   5.064   5.423   4.913
10271TIP3   OH230689   4.553   5.171   3.760
10271TIP3    H130690   4.596   5.157   3.844
10271TIP3    H230691   4.490   5.099   3.753
10272TIP3   OH230692   3.254   5.162   4.580
10272TIP3    H130693   3.306   5.081   4.576
10272TIP3    H230694   3.316   5.231   4.558
10273TIP3   OH230695   3.032   5.421   4.639
10273TIP3    H130696   3.085   5.409   4.560
10273TIP3    H230697   3.054   5.510   4.669
10274TIP3   OH230698   4.970   5.479   4.766
10274TIP3    H130699   4.886   5.503   4.804
10274TIP3    H230700   4.956   5.390   4.732
10275TIP3   OH230701   4.590   5.080   3.392
10275TIP3    H130702   4.641   5.020   3.337
10275TIP3    H230703   4.643   5.159   3.397
10276TIP3   OH230704   3.023   4.937   4.149
10276TIP3    H130705   2.938   4.920   4.190
10276TIP3    H230706   3.002   4.986   4.070
10277TIP3   OH230707   4.176   6.654   3.661
10277TIP3    H130708   4.232   6.640   3.585
10277TIP3    H230709   4.221   6.720   3.713
10278TIP3   OH230710   3.217   4.944   4.966
10278TIP3    H130711   3.172   4.951   5.050
10278TIP3    H230712   3.173   5.008   4.910
10279TIP3   OH230713   3.274   6.438   5.043
10279TIP3    H130714   3.181   6.417   5.034
10279TIP3    H230715   3.291   6.430   5.136
10280TIP3   OH230716   3.489   6.490   4.593
10280TIP3    H130717   3.439   6.565   4.562
10280TIP3    H230718   3.574   6.498   4.549
10281TIP3   OH230719   3.882   6.720   4.729
10281TIP3    H130720   3.919   6.711   4.817
10281TIP3    H230721   3.945   6.774   4.682
10282TIP3   OH230722   4.075   6.875   4.605
10282TIP3    H130723   4.136   6.821   4.557
10282TIP3    H230724   4.130   6.933   4.658
10283TIP3   OH230725   4.905   5.221   4.678
10283TIP3    H130726   4.815   5.222   4.645
10283TIP3    H230727   4.912   5.138   4.727
10284TIP3   OH230728   3.149   6.723   4.640
10284TIP3    H130729   3.058   6.739   4.617
10284TIP3    H230730   3.170   6.789   4.705
10285TIP3   OH230731   3.380   6.722   4.490
10285TIP3    H130732   3.297   6.724   4.538
10285TIP3    H230733   3.357   6.743   4.400
10286TIP3   OH230734   3.791   6.738   4.283
10286TIP3    H130735   3.719   6.748   4.222
10286TIP3    H230736   3.800   6.824   4.324
10287TIP3   OH230737   4.055   6.673   4.330
10287TIP3    H130738   3.963   6.693   4.310
10287TIP3    H230739   4.105   6.740   4.284
10288TIP3   OH230740   4.257   6.842   4.232
10288TIP3    H130741   4.257   6.929   4.192
10288TIP3    H230742   4.288   6.784   4.162
10289TIP3   OH230743   3.061   6.503   4.352
10289TIP3    H130744   3.084   6.479   4.442
10289TIP3    H230745   3.133   6.470   4.299
10290TIP3   OH230746   3.265   6.390   4.212
10290TIP3    H130747   3.276   6.305   4.254
10290TIP3    H230748   3.352   6.431   4.218
10291TIP3   OH230749   3.533   6.474   4.240
10291TIP3    H130750   3.553   6.382   4.224
10291TIP3    H230751   3.587   6.498   4.315
10292TIP3   OH230752   4.100   5.125   4.309
10292TIP3    H130753   4.079   5.049   4.364
10292TIP3    H230754   4.169   5.094   4.251
10293TIP3   OH230755   4.598   5.034   4.227
10293TIP3    H130756   4.638   5.080   4.153
10293TIP3    H230757   4.504   5.054   4.220
10294TIP3   OH230758   4.708   5.115   3.987
10294TIP3    H130759   4.776   5.054   3.959
10294TIP3    H230760   4.746   5.202   3.972
10295TIP3   OH230761   3.326   4.823   4.311
10295TIP3    H130762   3.237   4.789   4.322
10295TIP3    H230763   3.381   4.745   4.305
10296TIP3   OH230764   3.154   4.742   3.983
10296TIP3    H130765   3.178   4.790   3.903
10296TIP3    H230766   3.118   4.810   4.041
10297TIP3   OH230767   3.811   4.861   4.217
10297TIP3    H130768   3.860   4.907   4.149
10297TIP3    H230769   3.851   4.891   4.299
10298TIP3   OH230770   4.318   5.029   4.162
10298TIP3    H130771   4.341   4.994   4.076
10298TIP3    H230772   4.308   4.951   4.217
10299TIP3   OH230773   4.365   4.961   3.766
10299TIP3    H130774   4.285   5.008   3.789
10299TIP3    H230775   4.355   4.874   3.804
10300TIP3   OH230776   2.819   6.307   3.740
10300TIP3    H130777   2.736   6.273   3.707
10300TIP3    H230778   2.824   6.396   3.706
10301TIP3   OH230779   3.258   4.865   3.739
10301TIP3    H130780   3.304   4.802   3.683
10301TIP3    H230781   3.327   4.920   3.776
10302TIP3   OH230782   3.742   5.059   3.837
10302TIP3    H130783   3.802   5.006   3.890
10302TIP3    H230784   3.757   5.149   3.867
10303TIP3   OH230785   3.628   6.451   3.331
10303TIP3    H130786   3.712   6.478   3.293
10303TIP3    H230787   3.598   6.380   3.275
10304TIP3   OH230788   4.328   6.599   3.435
10304TIP3    H130789   4.322   6.504   3.428
10304TIP3    H230790   4.286   6.631   3.355
10305TIP3   OH230791   3.777   5.148   5.333
10305TIP3    H130792   3.844   5.131   5.267
10305TIP3    H230793   3.765   5.064   5.377
10306TIP3   OH230794   2.940   6.297   3.389
10306TIP3    H130795   2.941   6.304   3.484
10306TIP3    H230796   3.020   6.249   3.368
10307TIP3   OH230797   4.544   6.737   4.620
10307TIP3    H130798   4.470   6.707   4.568
10307TIP3    H230799   4.531   6.832   4.628
10308TIP3   OH230800   5.836   6.099   3.369
10308TIP3    H130801   5.785   6.179   3.386
10308TIP3    H230802   5.772   6.038   3.334
10309TIP3   OH230803   5.821   6.120   3.785
10309TIP3    H130804   5.875   6.101   3.861
10309TIP3    H230805   5.777   6.037   3.764
10310TIP3   OH230806   5.116   5.978   4.123
10310TIP3    H130807   5.156   5.927   4.194
10310TIP3    H230808   5.190   6.001   4.066
10311TIP3   OH230809   6.083   6.427   3.453
10311TIP3    H130810   6.077   6.357   3.518
10311TIP3    H230811   6.105   6.505   3.504
10312TIP3   OH230812   5.112   6.405   3.812
10312TIP3    H130813   5.093   6.311   3.817
10312TIP3    H230814   5.207   6.409   3.803
10313TIP3   OH230815   4.792   5.608   3.596
10313TIP3    H130816   4.754   5.692   3.619
10313TIP3    H230817   4.720   5.560   3.555
10314TIP3   OH230818   4.875   5.921   3.820
10314TIP3    H130819   4.925   5.843   3.845
10314TIP3    H230820   4.940   5.985   3.792
10315TIP3   OH230821   5.767   6.844   3.494
10315TIP3    H130822   5.790   6.787   3.420
10315TIP3    H230823   5.784   6.791   3.572
10316TIP3   OH230824   5.627   6.339   3.785
10316TIP3    H130825   5.673   6.259   3.761
10316TIP3    H230826   5.696   6.398   3.815
10317TIP3   OH230827   6.685   5.672   3.775
10317TIP3    H130828   6.676   5.767   3.786
10317TIP3    H230829   6.726   5.661   3.689
10318TIP3   OH230830   6.036   5.831   3.824
10318TIP3    H130831   6.068   5.745   3.852
10318TIP3    H230832   6.001   5.815   3.736
10319TIP3   OH230833   5.389   5.480   3.778
10319TIP3    H130834   5.370   5.553   3.719
10319TIP3    H230835   5.333   5.409   3.747
10320TIP3   OH230836   6.091   5.584   3.423
10320TIP3    H130837   6.156   5.577   3.493
10320TIP3    H230838   6.139   5.621   3.349
10321TIP3   OH230839   5.015   5.699   3.911
10321TIP3    H130840   5.099   5.681   3.953
10321TIP3    H230841   5.017   5.648   3.830
10322TIP3   OH230842   5.433   5.897   3.729
10322TIP3    H130843   5.527   5.882   3.733
10322TIP3    H230844   5.398   5.815   3.693
10323TIP3   OH230845   6.709   5.909   3.962
10323TIP3    H130846   6.615   5.925   3.952
10323TIP3    H230847   6.731   5.944   4.048
10324TIP3   OH230848   5.359   5.493   4.237
10324TIP3    H130849   5.315   5.527   4.160
10324TIP3    H230850   5.298   5.509   4.309
10325TIP3   OH230851   5.686   6.338   3.289
10325TIP3    H130852   5.705   6.289   3.209
10325TIP3    H230853   5.759   6.398   3.298
10326TIP3   OH230854   5.461   6.264   3.994
10326TIP3    H130855   5.409   6.336   4.028
10326TIP3    H230856   5.511   6.302   3.922
10327TIP3   OH230857   6.247   5.610   3.646
10327TIP3    H130858   6.202   5.590   3.728
10327TIP3    H230859   6.301   5.687   3.667
10328TIP3   OH230860   5.265   5.596   3.998
10328TIP3    H130861   5.320   5.671   4.020
10328TIP3    H230862   5.311   5.553   3.926
10329TIP3   OH230863   5.309   6.469   4.102
10329TIP3    H130864   5.296   6.559   4.073
10329TIP3    H230865   5.231   6.449   4.153
10330TIP3   OH230866   4.693   6.168   3.362
10330TIP3    H130867   4.657   6.187   3.275
10330TIP3    H230868   4.716   6.255   3.397
10331TIP3   OH230869   6.117   6.671   3.600
10331TIP3    H130870   6.028   6.668   3.634
10331TIP3    H230871   6.122   6.755   3.553
10332TIP3   OH230872   6.471   5.606   3.943
10332TIP3    H130873   6.398   5.565   3.897
10332TIP3    H230874   6.538   5.620   3.875
10333TIP3   OH230875   5.701   5.193   3.951
10333TIP3    H130876   5.695   5.101   3.975
10333TIP3    H230877   5.628   5.235   3.997
10334TIP3   OH230878   5.840   6.703   3.270
10334TIP3    H130879   5.890   6.623   3.251
10334TIP3    H230880   5.877   6.768   3.210
10335TIP3   OH230881   5.946   6.455   3.217
10335TIP3    H130882   5.989   6.409   3.144
10335TIP3    H230883   6.003   6.439   3.292
10336TIP3   OH230884   6.361   6.556   3.941
10336TIP3    H130885   6.340   6.483   3.883
10336TIP3    H230886   6.347   6.634   3.887
10337TIP3   OH230887   5.658   5.953   3.216
10337TIP3    H130888   5.576   5.994   3.191
10337TIP3    H230889   5.706   5.942   3.134
10338TIP3   OH230890   6.533   6.228   3.812
10338TIP3    H130891   6.449   6.272   3.806
10338TIP3    H230892   6.570   6.235   3.724
10339TIP3   OH230893   6.017   6.077   3.163
10339TIP3    H130894   5.962   6.085   3.240
10339TIP3    H230895   6.099   6.039   3.196
10340TIP3   OH230896   6.234   6.077   4.125
10340TIP3    H130897   6.229   6.161   4.171
10340TIP3    H230898   6.153   6.073   4.075
10341TIP3   OH230899   5.239   6.035   3.575
10341TIP3    H130900   5.198   5.975   3.512
10341TIP3    H230901   5.310   5.985   3.614
10342TIP3   OH230902   5.374   6.455   3.715
10342TIP3    H130903   5.350   6.439   3.623
10342TIP3    H230904   5.461   6.415   3.723
10343TIP3   OH230905   5.329   6.028   3.949
10343TIP3    H130906   5.368   5.990   3.870
10343TIP3    H230907   5.378   6.109   3.963
10344TIP3   OH230908   5.870   6.677   3.720
10344TIP3    H130909   5.865   6.754   3.776
10344TIP3    H230910   5.860   6.603   3.779
10345TIP3   OH230911   5.507   6.563   4.274
10345TIP3    H130912   5.445   6.619   4.321
10345TIP3    H230913   5.452   6.512   4.214
10346TIP3   OH230914   5.834   5.931   3.006
10346TIP3    H130915   5.908   5.980   3.043
10346TIP3    H230916   5.858   5.919   2.914
10347TIP3   OH230917   5.256   6.105   4.428
10347TIP3    H130918   5.261   6.199   4.442
10347TIP3    H230919   5.162   6.087   4.420
10348TIP3   OH230920   5.600   6.606   3.178
10348TIP3    H130921   5.681   6.635   3.219
10348TIP3    H230922   5.556   6.686   3.150
10349TIP3   OH230923   5.296   6.720   4.360
10349TIP3    H130924   5.272   6.732   4.268
10349TIP3    H230925   5.212   6.707   4.405
10350TIP3   OH230926   6.349   5.139   3.070
10350TIP3    H130927   6.272   5.164   3.121
10350TIP3    H230928   6.364   5.213   3.012
10351TIP3   OH230929   5.105   5.876   3.388
10351TIP3    H130930   5.034   5.922   3.344
10351TIP3    H230931   5.075   5.785   3.394
10352TIP3   OH230932   6.180   6.521   2.619
10352TIP3    H130933   6.173   6.612   2.591
10352TIP3    H230934   6.268   6.494   2.593
10353TIP3   OH230935   4.894   6.278   4.309
10353TIP3    H130936   4.824   6.260   4.247
10353TIP3    H230937   4.927   6.192   4.334
10354TIP3   OH230938   4.738   6.472   3.962
10354TIP3    H130939   4.830   6.492   3.976
10354TIP3    H230940   4.691   6.549   3.994
10355TIP3   OH230941   6.589   6.923   4.011
10355TIP3    H130942   6.594   6.828   4.023
10355TIP3    H230943   6.510   6.949   4.059
10356TIP3   OH230944   5.696   6.710   4.138
10356TIP3    H130945   5.685   6.801   4.167
10356TIP3    H230946   5.628   6.662   4.187
10357TIP3   OH230947   5.472   6.821   3.077
10357TIP3    H130948   5.448   6.799   2.987
10357TIP3    H230949   5.429   6.905   3.093
10358TIP3   OH230950   4.909   6.663   3.476
10358TIP3    H130951   4.954   6.653   3.559
10358TIP3    H230952   4.861   6.581   3.464
10359TIP3   OH230953   6.486   6.023   4.267
10359TIP3    H130954   6.403   6.040   4.222
10359TIP3    H230955   6.502   5.929   4.253
10360TIP3   OH230956   5.091   6.469   4.273
10360TIP3    H130957   5.143   6.455   4.352
10360TIP3    H230958   5.020   6.405   4.280
10361TIP3   OH230959   5.473   5.270   4.102
10361TIP3    H130960   5.390   5.234   4.070
10361TIP3    H230961   5.448   5.350   4.149
10362TIP3   OH230962   6.001   5.371   4.284
10362TIP3    H130963   6.044   5.336   4.362
10362TIP3    H230964   5.908   5.368   4.303
10363TIP3   OH230965   6.241   5.810   4.221
10363TIP3    H130966   6.201   5.807   4.308
10363TIP3    H230967   6.224   5.898   4.189
10364TIP3   OH230968   5.913   5.878   2.744
10364TIP3    H130969   5.868   5.872   2.660
10364TIP3    H230970   5.993   5.928   2.724
10365TIP3   OH230971   5.622   5.300   3.058
10365TIP3    H130972   5.585   5.311   3.146
10365TIP3    H230973   5.584   5.219   3.026
10366TIP3   OH230974   5.414   5.808   4.098
10366TIP3    H130975   5.368   5.815   4.182
10366TIP3    H230976   5.393   5.889   4.052
10367TIP3   OH230977   5.293   5.682   3.618
10367TIP3    H130978   5.204   5.659   3.643
10367TIP3    H230979   5.301   5.654   3.527
10368TIP3   OH230980   5.768   5.751   3.362
10368TIP3    H130981   5.721   5.822   3.318
10368TIP3    H230982   5.837   5.726   3.300
10369TIP3   OH230983   5.956   6.019   4.419
10369TIP3    H130984   5.931   5.952   4.482
10369TIP3    H230985   6.048   6.036   4.438
10370TIP3   OH230986   5.946   5.772   3.573
10370TIP3    H130987   5.875   5.788   3.510
10370TIP3    H230988   5.994   5.698   3.536
10371TIP3   OH230989   5.251   5.829   4.318
10371TIP3    H130990   5.257   5.895   4.387
10371TIP3    H230991   5.223   5.749   4.363
10372TIP3   OH230992   5.291   5.291   3.036
10372TIP3    H130993   5.283   5.299   3.131
10372TIP3    H230994   5.215   5.336   3.001
10373TIP3   OH230995   4.841   5.334   3.902
10373TIP3    H130996   4.916   5.371   3.949
10373TIP3    H230997   4.875   5.315   3.814
10374TIP3   OH230998   4.736   5.316   3.405
10374TIP3    H130999   4.784   5.352   3.331
10374TIP3    H231000   4.672   5.383   3.428
10375TIP3   OH231001   5.985   6.029   3.998
10375TIP3    H131002   6.011   5.964   3.933
10375TIP3    H231003   5.941   5.978   4.067
10376TIP3   OH231004   5.658   5.465   3.668
10376TIP3    H131005   5.582   5.465   3.725
10376TIP3    H231006   5.733   5.461   3.728
10377TIP3   OH231007   5.053   5.559   3.679
10377TIP3    H131008   4.965   5.563   3.640
10377TIP3    H231009   5.081   5.469   3.663
10378TIP3   OH231010   5.301   5.567   3.366
10378TIP3    H131011   5.397   5.573   3.362
10378TIP3    H231012   5.272   5.586   3.277
10379TIP3   OH231013   6.098   5.569   3.882
10379TIP3    H131014   6.082   5.581   3.975
10379TIP3    H231015   6.030   5.506   3.854
10380TIP3   OH231016   5.201   5.596   3.110
10380TIP3    H131017   5.135   5.541   3.067
10380TIP3    H231018   5.251   5.634   3.038
10381TIP3   OH231019   6.302   7.265   4.098
10381TIP3    H131020   6.299   7.278   4.003
10381TIP3    H231021   6.381   7.312   4.126
10382TIP3   OH231022   5.244   6.378   4.506
10382TIP3    H131023   5.325   6.396   4.554
10382TIP3    H231024   5.174   6.389   4.571
10383TIP3   OH231025   5.708   5.849   3.776
10383TIP3    H131026   5.774   5.801   3.725
10383TIP3    H231027   5.707   5.804   3.861
10384TIP3   OH231028   5.193   5.309   3.663
10384TIP3    H131029   5.166   5.234   3.716
10384TIP3    H231030   5.211   5.273   3.577
10385TIP3   OH231031   5.679   5.745   4.040
10385TIP3    H131032   5.593   5.780   4.064
10385TIP3    H231033   5.740   5.796   4.093
10386TIP3   OH231034   5.427   6.092   3.154
10386TIP3    H131035   5.353   6.039   3.123
10386TIP3    H231036   5.395   6.133   3.234
10387TIP3   OH231037   6.297   6.360   3.758
10387TIP3    H131038   6.335   6.408   3.685
10387TIP3    H231039   6.221   6.316   3.721
10388TIP3   OH231040   5.868   5.417   3.047
10388TIP3    H131041   5.778   5.385   3.048
10388TIP3    H231042   5.866   5.496   2.994
10389TIP3   OH231043   5.826   6.447   4.168
10389TIP3    H131044   5.877   6.433   4.248
10389TIP3    H231045   5.785   6.532   4.180
10390TIP3   OH231046   5.952   5.710   3.167
10390TIP3    H131047   6.045   5.695   3.150
10390TIP3    H231048   5.919   5.745   3.084
10391TIP3   OH231049   5.101   6.117   3.800
10391TIP3    H131050   5.140   6.099   3.714
10391TIP3    H231051   5.166   6.087   3.863
10392TIP3   OH231052   5.577   6.283   3.033
10392TIP3    H131053   5.573   6.270   2.938
10392TIP3    H231054   5.532   6.206   3.069
10393TIP3   OH231055   4.981   6.040   4.439
10393TIP3    H131056   4.981   6.009   4.530
10393TIP3    H231057   4.905   5.998   4.399
10394TIP3   OH231058   5.731   6.183   4.462
10394TIP3    H131059   5.659   6.125   4.437
10394TIP3    H231060   5.810   6.138   4.431
10395TIP3   OH231061   5.967   6.735   4.064
10395TIP3    H131062   5.872   6.721   4.066
10395TIP3    H231063   5.988   6.768   4.151
10396TIP3   OH231064   6.351   5.767   2.942
10396TIP3    H131065   6.297   5.720   2.878
10396TIP3    H231066   6.353   5.857   2.910
10397TIP3   OH231067   6.605   6.647   4.031
10397TIP3    H131068   6.512   6.625   4.026
10397TIP3    H231069   6.641   6.615   3.948
10398TIP3   OH231070   6.092   6.570   2.879
10398TIP3    H131071   6.062   6.488   2.917
10398TIP3    H231072   6.120   6.546   2.790
10399TIP3   OH231073   6.075   6.219   3.649
10399TIP3    H131074   5.986   6.196   3.677
10399TIP3    H231075   6.110   6.138   3.612
10400TIP3   OH231076   5.232   6.458   3.469
10400TIP3    H131077   5.225   6.539   3.419
10400TIP3    H231078   5.142   6.434   3.490
10401TIP3   OH231079   4.789   5.741   3.179
10401TIP3    H131080   4.833   5.824   3.199
10401TIP3    H231081   4.709   5.742   3.231
10402TIP3   OH231082   5.331   6.213   3.379
10402TIP3    H131083   5.305   6.301   3.407
10402TIP3    H231084   5.301   6.156   3.449
10403TIP3   OH231085   5.514   6.780   3.929
10403TIP3    H131086   5.549   6.854   3.880
10403TIP3    H231087   5.588   6.748   3.980
10404TIP3   OH231088   5.147   6.697   3.343
10404TIP3    H131089   5.060   6.695   3.383
10404TIP3    H231090   5.171   6.790   3.343
10405TIP3   OH231091   5.859   6.453   3.893
10405TIP3    H131092   5.848   6.449   3.988
10405TIP3    H231093   5.931   6.393   3.875
10406TIP3   OH231094   5.835   6.349   2.771
10406TIP3    H131095   5.882   6.325   2.850
10406TIP3    H231096   5.752   6.302   2.777
10407TIP3   OH231097   6.123   6.936   3.941
10407TIP3    H131098   6.054   6.874   3.965
10407TIP3    H231099   6.084   6.988   3.870
10408TIP3   OH231100   6.167   6.791   2.567
10408TIP3    H131101   6.170   6.842   2.487
10408TIP3    H231102   6.100   6.835   2.621
10409TIP3   OH231103   5.169   5.586   4.435
10409TIP3    H131104   5.075   5.598   4.438
10409TIP3    H231105   5.192   5.545   4.518
10410TIP3   OH231106   6.035   6.295   2.991
10410TIP3    H131107   6.015   6.219   3.046
10410TIP3    H231108   6.127   6.283   2.968
10411TIP3   OH231109   4.942   6.675   4.095
10411TIP3    H131110   4.993   6.614   4.148
10411TIP3    H231111   4.958   6.760   4.135
10412TIP3   OH231112   4.887   5.995   3.256
10412TIP3    H131113   4.824   6.041   3.310
10412TIP3    H231114   4.908   6.057   3.185
10413TIP3   OH231115   6.045   5.620   4.151
10413TIP3    H131116   6.127   5.659   4.181
10413TIP3    H231117   6.039   5.538   4.200
10414TIP3   OH231118   5.930   5.381   3.317
10414TIP3    H131119   5.908   5.404   3.227
10414TIP3    H231120   5.975   5.458   3.351
10415TIP3   OH231121   5.352   6.482   3.032
10415TIP3    H131122   5.269   6.520   3.059
10415TIP3    H231123   5.343   6.468   2.937
10416TIP3   OH231124   5.577   5.564   3.422
10416TIP3    H131125   5.642   5.629   3.395
10416TIP3    H231126   5.603   5.539   3.511
10417TIP3   OH231127   5.887   5.857   4.190
10417TIP3    H131128   5.911   5.898   4.273
10417TIP3    H231129   5.937   5.775   4.188
10418TIP3   OH231130   5.755   5.261   3.496
10418TIP3    H131131   5.732   5.337   3.550
10418TIP3    H231132   5.820   5.295   3.435
10419TIP3   OH231133   5.117   6.611   3.082
10419TIP3    H131134   5.118   6.689   3.026
10419TIP3    H231135   5.125   6.646   3.171
10420TIP3   OH231136   5.258   5.292   3.318
10420TIP3    H131137   5.248   5.384   3.343
10420TIP3    H231138   5.353   5.276   3.323
10421TIP3   OH231139   6.504   5.752   4.172
10421TIP3    H131140   6.411   5.760   4.195
10421TIP3    H231141   6.504   5.704   4.089
10422TIP3   OH231142   6.166   5.963   3.563
10422TIP3    H131143   6.091   5.904   3.571
10422TIP3    H231144   6.234   5.922   3.617
10423TIP3   OH231145   4.901   6.192   3.043
10423TIP3    H131146   4.951   6.273   3.031
10423TIP3    H231147   4.945   6.129   2.986
10424TIP3   OH231148   4.818   5.463   3.191
10424TIP3    H131149   4.824   5.559   3.193
10424TIP3    H231150   4.796   5.443   3.100
10425TIP3   OH231151   6.145   6.934   3.511
10425TIP3    H131152   6.103   6.979   3.438
10425TIP3    H231153   6.239   6.950   3.499
10426TIP3   OH231154   5.213   5.179   4.057
10426TIP3    H131155   5.184   5.149   3.971
10426TIP3    H231156   5.201   5.103   4.115
10427TIP3   OH231157   4.739   6.440   3.448
10427TIP3    H131158   4.693   6.472   3.526
10427TIP3    H231159   4.691   6.477   3.374
10428TIP3   OH231160   4.945   6.977   4.513
10428TIP3    H131161   5.027   6.983   4.562
10428TIP3    H231162   4.932   6.884   4.499
10429TIP3   OH231163   5.406   6.879   4.555
10429TIP3    H131164   5.497   6.849   4.564
10429TIP3    H231165   5.370   6.827   4.483
10430TIP3   OH231166   6.021   6.824   4.318
10430TIP3    H131167   6.039   6.753   4.380
10430TIP3    H231168   6.094   6.885   4.328
10431TIP3   OH231169   5.781   6.561   2.588
10431TIP3    H131170   5.812   6.505   2.659
10431TIP3    H231171   5.845   6.547   2.518
10432TIP3   OH231172   5.038   6.390   4.697
10432TIP3    H131173   5.059   6.298   4.709
10432TIP3    H231174   4.951   6.389   4.657
10433TIP3   OH231175   5.030   5.997   2.903
10433TIP3    H131176   5.084   5.965   2.975
10433TIP3    H231177   5.090   6.003   2.829
10434TIP3   OH231178   5.662   6.459   4.477
10434TIP3    H131179   5.618   6.480   4.395
10434TIP3    H231180   5.699   6.371   4.463
10435TIP3   OH231181   5.533   6.253   2.762
10435TIP3    H131182   5.459   6.314   2.756
10435TIP3    H231183   5.497   6.169   2.734
10436TIP3   OH231184   6.139   6.512   4.102
10436TIP3    H131185   6.215   6.536   4.049
10436TIP3    H231186   6.074   6.580   4.082
10437TIP3   OH231187   5.150   6.139   4.708
10437TIP3    H131188   5.221   6.107   4.653
10437TIP3    H231189   5.188   6.146   4.795
10438TIP3   OH231190   5.223   5.910   3.087
10438TIP3    H131191   5.204   5.858   3.165
10438TIP3    H231192   5.265   5.849   3.026
10439TIP3   OH231193   5.521   6.011   4.375
10439TIP3    H131194   5.433   6.047   4.385
10439TIP3    H231195   5.548   6.036   4.287
10440TIP3   OH231196   5.343   5.724   2.911
10440TIP3    H131197   5.316   5.725   2.819
10440TIP3    H231198   5.437   5.708   2.909
10441TIP3   OH231199   6.021   6.379   4.441
10441TIP3    H131200   6.088   6.342   4.385
10441TIP3    H231201   6.017   6.322   4.517
10442TIP3   OH231202   6.126   6.028   2.642
10442TIP3    H131203   6.122   5.991   2.554
10442TIP3    H231204   6.101   6.120   2.632
10443TIP3   OH231205   5.619   5.774   4.476
10443TIP3    H131206   5.620   5.705   4.410
10443TIP3    H231207   5.586   5.851   4.430
10444TIP3   OH231208   5.620   5.578   4.273
10444TIP3    H131209   5.649   5.612   4.188
10444TIP3    H231210   5.529   5.552   4.258
10445TIP3   OH231211   5.625   6.099   4.140
10445TIP3    H131212   5.715   6.126   4.122
10445TIP3    H231213   5.571   6.159   4.090
10446TIP3   OH231214   6.226   6.058   4.512
10446TIP3    H131215   6.258   5.968   4.513
10446TIP3    H231216   6.304   6.111   4.498
10447TIP3   OH231217   6.254   6.325   4.262
10447TIP3    H131218   6.204   6.390   4.212
10447TIP3    H231219   6.344   6.336   4.230
10448TIP3   OH231220   5.524   5.867   4.724
10448TIP3    H131221   5.448   5.813   4.746
10448TIP3    H231222   5.544   5.845   4.634
10449TIP3   OH231223   5.741   5.346   4.373
10449TIP3    H131224   5.697   5.426   4.344
10449TIP3    H231225   5.673   5.278   4.368
10450TIP3   OH231226   5.876   5.809   4.579
10450TIP3    H131227   5.865   5.793   4.673
10450TIP3    H231228   5.790   5.790   4.541
10451TIP3   OH231229   6.132   5.775   4.465
10451TIP3    H131230   6.050   5.770   4.516
10451TIP3    H231231   6.199   5.745   4.526
10452TIP3   OH231232   6.365   5.737   4.614
10452TIP3    H131233   6.394   5.647   4.626
10452TIP3    H231234   6.357   5.772   4.703
10453TIP3   OH231235   5.367   5.636   4.772
10453TIP3    H131236   5.422   5.575   4.723
10453TIP3    H231237   5.398   5.628   4.862
10454TIP3   OH231238   5.877   5.302   4.611
10454TIP3    H131239   5.869   5.208   4.628
10454TIP3    H231240   5.829   5.316   4.530
10455TIP3   OH231241   5.925   5.515   4.783
10455TIP3    H131242   5.907   5.444   4.720
10455TIP3    H231243   5.849   5.572   4.777
10456TIP3   OH231244   5.159   6.827   2.902
10456TIP3    H131245   5.246   6.796   2.878
10456TIP3    H231246   5.116   6.846   2.819
10457TIP3   OH231247   4.631   6.167   3.078
10457TIP3    H131248   4.725   6.182   3.068
10457TIP3    H231249   4.615   6.082   3.036
10458TIP3   OH231250   4.533   6.752   3.532
10458TIP3    H131251   4.469   6.697   3.487
10458TIP3    H231252   4.578   6.692   3.591
10459TIP3   OH231253   4.678   6.586   3.700
10459TIP3    H131254   4.670   6.516   3.764
10459TIP3    H231255   4.733   6.652   3.743
10460TIP3   OH231256   6.412   6.996   3.502
10460TIP3    H131257   6.441   7.020   3.590
10460TIP3    H231258   6.477   7.036   3.444
10461TIP3   OH231259   6.439   7.014   3.786
10461TIP3    H131260   6.393   6.931   3.777
10461TIP3    H231261   6.507   6.998   3.851
10462TIP3   OH231262   6.499   6.722   4.363
10462TIP3    H131263   6.427   6.732   4.426
10462TIP3    H231264   6.543   6.806   4.362
10463TIP3   OH231265   6.308   6.243   2.964
10463TIP3    H131266   6.368   6.310   2.931
10463TIP3    H231267   6.355   6.202   3.036
10464TIP3   OH231268   6.440   6.097   3.161
10464TIP3    H131269   6.373   6.055   3.215
10464TIP3    H231270   6.505   6.129   3.224
10465TIP3   OH231271   6.488   6.493   3.600
10465TIP3    H131272   6.539   6.421   3.564
10465TIP3    H231273   6.497   6.564   3.537
10466TIP3   OH231274   6.294   6.776   3.791
10466TIP3    H131275   6.229   6.824   3.842
10466TIP3    H231276   6.244   6.737   3.719
10467TIP3   OH231277   6.341   6.012   2.814
10467TIP3    H131278   6.268   6.009   2.752
10467TIP3    H231279   6.325   6.091   2.866
10468TIP3   OH231280   6.211   5.648   2.738
10468TIP3    H131281   6.153   5.682   2.670
10468TIP3    H231282   6.200   5.553   2.734
10469TIP3   OH231283   6.237   5.954   3.292
10469TIP3    H131284   6.239   5.860   3.275
10469TIP3    H231285   6.215   5.961   3.385
10470TIP3   OH231286   4.852   6.014   4.075
10470TIP3    H131287   4.843   5.983   3.985
10470TIP3    H231288   4.947   6.011   4.092
10471TIP3   OH231289   6.512   6.361   4.164
10471TIP3    H131290   6.582   6.297   4.151
10471TIP3    H231291   6.518   6.418   4.087
10472TIP3   OH231292   6.700   6.157   4.161
10472TIP3    H131293   6.627   6.110   4.201
10472TIP3    H231294   6.778   6.111   4.191
10473TIP3   OH231295   6.166   5.375   2.725
10473TIP3    H131296   6.221   5.352   2.800
10473TIP3    H231297   6.079   5.346   2.750
10474TIP3   OH231298   6.243   5.679   3.192
10474TIP3    H131299   6.287   5.596   3.207
10474TIP3    H231300   6.280   5.712   3.110
10475TIP3   OH231301   6.381   5.847   3.707
10475TIP3    H131302   6.465   5.863   3.663
10475TIP3    H231303   6.393   5.883   3.795
10476TIP3   OH231304   6.444   5.997   3.937
10476TIP3    H131305   6.370   6.024   3.992
10476TIP3    H231306   6.474   6.079   3.897
10477TIP3   OH231307   5.106   5.729   4.763
10477TIP3    H131308   5.198   5.702   4.767
10477TIP3    H231309   5.057   5.647   4.771
10478TIP3   OH231310   6.935   5.606   4.460
10478TIP3    H131311   6.922   5.511   4.453
10478TIP3    H231312   6.883   5.642   4.388
10479TIP3   OH231313   6.353   5.428   3.244
10479TIP3    H131314   6.395   5.410   3.328
10479TIP3    H231315   6.286   5.361   3.236
10480TIP3   OH231316   5.056   5.410   4.063
10480TIP3    H131317   5.108   5.331   4.071
10480TIP3    H231318   5.120   5.479   4.042
10481TIP3   OH231319   4.835   5.675   4.129
10481TIP3    H131320   4.885   5.663   4.049
10481TIP3    H231321   4.856   5.764   4.157
10482TIP3   OH231322   6.752   5.740   4.296
10482TIP3    H131323   6.705   5.771   4.373
10482TIP3    H231324   6.684   5.723   4.231
10483TIP3   OH231325   6.395   5.334   2.884
10483TIP3    H131326   6.442   5.275   2.825
10483TIP3    H231327   6.447   5.414   2.886
10484TIP3   OH231328   4.819   5.189   3.633
10484TIP3    H131329   4.735   5.175   3.676
10484TIP3    H231330   4.798   5.241   3.556
10485TIP3   OH231331   5.935   6.914   3.118
10485TIP3    H131332   6.006   6.888   3.058
10485TIP3    H231333   5.979   6.967   3.185
10486TIP3   OH231334   5.009   5.209   4.423
10486TIP3    H131335   4.976   5.221   4.512
10486TIP3    H231336   4.960   5.273   4.371
10487TIP3   OH231337   5.069   6.699   4.524
10487TIP3    H131338   4.976   6.677   4.517
10487TIP3    H231339   5.091   6.685   4.616
10488TIP3   OH231340   5.285   6.746   4.078
10488TIP3    H131341   5.236   6.822   4.047
10488TIP3    H231342   5.370   6.754   4.034
10489TIP3   OH231343   5.678   6.977   4.217
10489TIP3    H131344   5.716   6.969   4.305
10489TIP3    H231345   5.740   7.031   4.169
10490TIP3   OH231346   5.869   7.132   4.091
10490TIP3    H131347   5.928   7.078   4.039
10490TIP3    H231348   5.927   7.188   4.143
10491TIP3   OH231349   4.946   6.985   4.126
10491TIP3    H131350   4.854   7.002   4.104
10491TIP3    H231351   4.967   7.052   4.191
10492TIP3   OH231352   5.177   6.979   3.977
10492TIP3    H131353   5.094   6.983   4.024
10492TIP3    H231354   5.154   7.000   3.886
10493TIP3   OH231355   5.585   6.995   3.770
10493TIP3    H131356   5.516   7.006   3.704
10493TIP3    H231357   5.594   7.082   3.810
10494TIP3   OH231358   5.849   6.933   3.822
10494TIP3    H131359   5.759   6.952   3.799
10494TIP3    H231360   5.901   6.996   3.772
10495TIP3   OH231361   6.051   7.094   3.715
10495TIP3    H131362   6.054   7.181   3.675
10495TIP3    H231363   6.082   7.035   3.645
10496TIP3   OH231364   4.857   6.761   3.845
10496TIP3    H131365   4.882   6.737   3.934
10496TIP3    H231366   4.928   6.728   3.790
10497TIP3   OH231367   5.061   6.650   3.705
10497TIP3    H131368   5.072   6.564   3.745
10497TIP3    H231369   5.148   6.689   3.708
10498TIP3   OH231370   5.329   6.731   3.725
10498TIP3    H131371   5.348   6.639   3.710
10498TIP3    H231372   5.385   6.755   3.800
10499TIP3   OH231373   5.888   5.387   3.808
10499TIP3    H131374   5.848   5.312   3.852
10499TIP3    H231375   5.957   5.349   3.754
10500TIP3   OH231376   6.392   5.272   3.701
10500TIP3    H131377   6.432   5.323   3.630
10500TIP3    H231378   6.303   5.307   3.708
10501TIP3   OH231379   6.505   5.373   3.471
10501TIP3    H131380   6.574   5.312   3.445
10501TIP3    H231381   6.543   5.459   3.457
10502TIP3   OH231382   5.125   5.083   3.813
10502TIP3    H131383   5.036   5.048   3.822
10502TIP3    H231384   5.180   5.005   3.802
10503TIP3   OH231385   4.954   4.996   3.470
10503TIP3    H131386   4.978   5.043   3.390
10503TIP3    H231387   4.916   5.063   3.526
10504TIP3   OH231388   5.607   5.121   3.694
10504TIP3    H131389   5.654   5.165   3.623
10504TIP3    H231390   5.644   5.158   3.774
10505TIP3   OH231391   6.103   5.281   3.668
10505TIP3    H131392   6.121   5.249   3.580
10505TIP3    H231393   6.098   5.202   3.722
10506TIP3   OH231394   6.154   5.231   3.242
10506TIP3    H131395   6.073   5.279   3.260
10506TIP3    H231396   6.138   5.144   3.280
10507TIP3   OH231397   4.607   6.549   3.235
10507TIP3    H131398   4.527   6.514   3.197
10507TIP3    H231399   4.605   6.642   3.213
10508TIP3   OH231400   5.054   5.120   3.226
10508TIP3    H131401   5.100   5.060   3.168
10508TIP3    H231402   5.122   5.177   3.261
10509TIP3   OH231403   5.533   5.312   3.322
10509TIP3    H131404   5.597   5.261   3.371
10509TIP3    H231405   5.549   5.403   3.350
10510TIP3   OH231406   5.408   6.750   2.810
10510TIP3    H131407   5.476   6.768   2.745
10510TIP3    H231408   5.378   6.661   2.789
10511TIP3   OH231409   6.119   6.840   2.926
10511TIP3    H131410   6.114   6.745   2.915
10511TIP3    H231411   6.083   6.875   2.844
10512TIP3   OH231412   4.758   6.567   2.872
10512TIP3    H131413   4.763   6.561   2.967
10512TIP3    H231414   4.837   6.523   2.841
10513TIP3   OH231415   6.468   5.487   4.651
10513TIP3    H131416   6.462   5.448   4.738
10513TIP3    H231417   6.538   5.437   4.608
10514TIP3   OH231418   6.339   6.991   4.110
10514TIP3    H131419   6.267   6.962   4.055
10514TIP3    H231420   6.328   7.086   4.115
10515TIP3   OH231421   7.614   6.386   2.873
10515TIP3    H131422   7.584   6.470   2.839
10515TIP3    H231423   7.552   6.322   2.839
10516TIP3   OH231424   7.702   6.314   3.231
10516TIP3    H131425   7.624   6.259   3.243
10516TIP3    H231426   7.698   6.340   3.139
10517TIP3   OH231427   6.910   6.228   3.618
10517TIP3    H131428   6.950   6.176   3.688
10517TIP3    H231429   6.983   6.251   3.560
10518TIP3   OH231430   7.878   6.712   2.904
10518TIP3    H131431   7.856   6.642   2.965
10518TIP3    H231432   7.907   6.784   2.959
10519TIP3   OH231433   6.882   6.662   3.314
10519TIP3    H131434   6.868   6.568   3.311
10519TIP3    H231435   6.976   6.674   3.303
10520TIP3   OH231436   6.589   5.869   3.078
10520TIP3    H131437   6.549   5.953   3.101
10520TIP3    H231438   6.518   5.819   3.038
10521TIP3   OH231439   6.668   6.175   3.311
10521TIP3    H131440   6.719   6.097   3.335
10521TIP3    H231441   6.733   6.238   3.282
10522TIP3   OH231442   7.533   7.112   2.941
10522TIP3    H131443   7.566   7.045   2.881
10522TIP3    H231444   7.503   7.063   3.018
10523TIP3   OH231445   7.396   6.625   3.265
10523TIP3    H131446   7.436   6.559   3.208
10523TIP3    H231447   7.468   6.684   3.287
10524TIP3   OH231448   8.432   5.939   3.304
10524TIP3    H131449   8.458   6.012   3.361
10524TIP3    H231450   8.439   5.974   3.216
10525TIP3   OH231451   7.838   6.072   3.288
10525TIP3    H131452   7.867   5.988   3.324
10525TIP3    H231453   7.783   6.048   3.213
10526TIP3   OH231454   7.183   5.740   3.265
10526TIP3    H131455   7.160   5.813   3.207
10526TIP3    H231456   7.128   5.667   3.236
10527TIP3   OH231457   7.880   5.841   2.903
10527TIP3    H131458   7.943   5.833   2.975
10527TIP3    H231459   7.931   5.877   2.831
10528TIP3   OH231460   6.812   5.954   3.401
10528TIP3    H131461   6.896   5.935   3.442
10528TIP3    H231462   6.813   5.903   3.320
10529TIP3   OH231463   7.227   6.156   3.217
10529TIP3    H131464   7.322   6.141   3.222
10529TIP3    H231465   7.192   6.074   3.183
10530TIP3   OH231466   8.508   6.151   3.463
10530TIP3    H131467   8.469   6.224   3.416
10530TIP3    H231468   8.542   6.189   3.543
10531TIP3   OH231469   7.162   5.750   3.732
10531TIP3    H131470   7.116   5.777   3.652
10531TIP3    H231471   7.098   5.763   3.801
10532TIP3   OH231472   7.494   6.590   2.734
10532TIP3    H131473   7.466   6.566   2.646
10532TIP3    H231474   7.450   6.673   2.752
10533TIP3   OH231475   7.245   6.521   3.476
10533TIP3    H131476   7.193   6.591   3.515
10533TIP3    H231477   7.293   6.564   3.405
10534TIP3   OH231478   8.044   5.848   3.120
10534TIP3    H131479   8.004   5.827   3.204
10534TIP3    H231480   8.134   5.872   3.142
10535TIP3   OH231481   7.061   5.849   3.490
10535TIP3    H131482   7.117   5.923   3.514
10535TIP3    H231483   7.108   5.806   3.419
10536TIP3   OH231484   7.100   6.726   3.590
10536TIP3    H131485   7.088   6.817   3.562
10536TIP3    H231486   7.022   6.708   3.643
10537TIP3   OH231487   6.481   6.429   2.844
10537TIP3    H131488   6.448   6.446   2.756
10537TIP3    H231489   6.503   6.516   2.878
10538TIP3   OH231490   7.921   6.922   3.088
10538TIP3    H131491   7.844   6.915   3.143
10538TIP3    H231492   7.914   7.009   3.047
10539TIP3   OH231493   8.248   5.801   3.462
10539TIP3    H131494   8.165   5.845   3.445
10539TIP3    H231495   8.308   5.839   3.398
10540TIP3   OH231496   7.504   5.422   3.474
10540TIP3    H131497   7.497   5.335   3.513
10540TIP3    H231498   7.429   5.470   3.509
10541TIP3   OH231499   7.632   6.949   2.736
10541TIP3    H131500   7.682   6.871   2.711
10541TIP3    H231501   7.689   7.023   2.712
10542TIP3   OH231502   7.791   6.744   2.642
10542TIP3    H131503   7.784   6.658   2.603
10542TIP3    H231504   7.828   6.728   2.729
10543TIP3   OH231505   8.158   6.825   3.463
10543TIP3    H131506   8.154   6.752   3.401
10543TIP3    H231507   8.141   6.903   3.410
10544TIP3   OH231508   7.451   6.230   2.706
10544TIP3    H131509   7.366   6.271   2.687
10544TIP3    H231510   7.495   6.227   2.621
10545TIP3   OH231511   7.418   6.030   2.387
10545TIP3    H131512   7.483   6.078   2.438
10545TIP3    H231513   7.467   5.961   2.342
10546TIP3   OH231514   8.378   6.382   3.293
10546TIP3    H131515   8.289   6.367   3.324
10546TIP3    H231516   8.368   6.440   3.217
10547TIP3   OH231517   7.802   6.307   2.680
10547TIP3    H131518   7.748   6.335   2.753
10547TIP3    H231519   7.883   6.277   2.720
10548TIP3   OH231520   7.026   6.286   3.064
10548TIP3    H131521   6.990   6.225   2.999
10548TIP3    H231522   7.099   6.237   3.104
10549TIP3   OH231523   7.138   6.722   3.210
10549TIP3    H131524   7.115   6.706   3.118
10549TIP3    H231525   7.227   6.686   3.219
10550TIP3   OH231526   7.119   6.281   3.439
10550TIP3    H131527   7.159   6.243   3.361
10550TIP3    H231528   7.166   6.363   3.453
10551TIP3   OH231529   7.717   6.920   3.272
10551TIP3    H131530   7.681   7.008   3.266
10551TIP3    H231531   7.735   6.908   3.366
10552TIP3   OH231532   7.302   6.819   3.757
10552TIP3    H131533   7.242   6.876   3.806
10552TIP3    H231534   7.245   6.768   3.700
10553TIP3   OH231535   7.637   6.172   2.500
10553TIP3    H131536   7.696   6.227   2.551
10553TIP3    H231537   7.669   6.179   2.410
10554TIP3   OH231538   7.055   6.364   3.912
10554TIP3    H131539   7.058   6.459   3.926
10554TIP3    H231540   6.961   6.344   3.903
10555TIP3   OH231541   7.378   6.844   2.757
10555TIP3    H131542   7.465   6.885   2.752
10555TIP3    H231543   7.322   6.900   2.704
10556TIP3   OH231544   7.092   6.978   3.845
10556TIP3    H131545   7.069   6.991   3.753
10556TIP3    H231546   7.007   6.967   3.889
10557TIP3   OH231547   8.144   5.395   2.548
10557TIP3    H131548   8.068   5.416   2.603
10557TIP3    H231549   8.153   5.472   2.491
10558TIP3   OH231550   6.903   6.127   2.863
10558TIP3    H131551   6.825   6.174   2.835
10558TIP3    H231552   6.874   6.037   2.877
10559TIP3   OH231553   7.965   6.766   2.114
10559TIP3    H131554   7.956   6.860   2.099
10559TIP3    H231555   8.056   6.746   2.091
10560TIP3   OH231556   6.689   6.535   3.797
10560TIP3    H131557   6.620   6.516   3.734
10560TIP3    H231558   6.723   6.449   3.822
10561TIP3   OH231559   6.564   6.712   3.436
10561TIP3    H131560   6.658   6.712   3.421
10561TIP3    H231561   6.548   6.791   3.487
10562TIP3   OH231562   8.383   7.198   3.496
10562TIP3    H131563   8.391   7.103   3.504
10562TIP3    H231564   8.301   7.218   3.542
10563TIP3   OH231565   7.482   6.971   3.616
10563TIP3    H131566   7.476   7.060   3.651
10563TIP3    H231567   7.422   6.920   3.670
10564TIP3   OH231568   7.273   7.059   2.580
10564TIP3    H131569   7.228   7.037   2.499
10564TIP3    H231570   7.234   7.142   2.607
10565TIP3   OH231571   6.704   6.920   2.951
10565TIP3    H131572   6.747   6.912   3.037
10565TIP3    H231573   6.655   6.839   2.941
10566TIP3   OH231574   7.465   7.001   2.212
10566TIP3    H131575   7.514   6.925   2.179
10566TIP3    H231576   7.503   7.018   2.298
10567TIP3   OH231577   7.527   7.044   2.477
10567TIP3    H131578   7.441   7.044   2.520
10567TIP3    H231579   7.586   7.009   2.544
10568TIP3   OH231580   8.254   6.305   3.711
10568TIP3    H131581   8.198   6.313   3.634
10568TIP3    H231582   8.275   6.212   3.716
10569TIP3   OH231583   6.885   6.727   3.763
10569TIP3    H131584   6.936   6.713   3.842
10569TIP3    H231585   6.813   6.663   3.769
10570TIP3   OH231586   7.281   5.538   3.590
10570TIP3    H131587   7.200   5.498   3.558
10570TIP3    H231588   7.252   5.606   3.651
10571TIP3   OH231589   7.853   5.634   3.762
10571TIP3    H131590   7.919   5.605   3.825
10571TIP3    H231591   7.770   5.624   3.808
10572TIP3   OH231592   8.038   6.063   3.642
10572TIP3    H131593   7.995   6.085   3.724
10572TIP3    H231594   8.026   6.139   3.586
10573TIP3   OH231595   7.722   6.166   2.242
10573TIP3    H131596   7.669   6.164   2.162
10573TIP3    H231597   7.804   6.207   2.215
10574TIP3   OH231598   7.423   5.568   2.553
10574TIP3    H131599   7.387   5.574   2.641
10574TIP3    H231600   7.387   5.486   2.518
10575TIP3   OH231601   7.207   6.062   3.590
10575TIP3    H131602   7.162   6.067   3.674
10575TIP3    H231603   7.182   6.143   3.545
10576TIP3   OH231604   7.084   5.944   3.108
10576TIP3    H131605   6.996   5.918   3.133
10576TIP3    H231606   7.094   5.911   3.019
10577TIP3   OH231607   7.561   6.011   2.828
10577TIP3    H131608   7.518   6.087   2.789
10577TIP3    H231609   7.621   5.980   2.759
10578TIP3   OH231610   7.750   6.295   3.904
10578TIP3    H131611   7.727   6.223   3.963
10578TIP3    H231612   7.844   6.309   3.918
10579TIP3   OH231613   7.704   5.994   3.063
10579TIP3    H131614   7.645   6.017   2.991
10579TIP3    H231615   7.766   5.933   3.023
10580TIP3   OH231616   7.043   6.072   3.812
10580TIP3    H131617   7.057   6.134   3.884
10580TIP3    H231618   7.020   5.990   3.855
10581TIP3   OH231619   7.092   5.550   2.526
10581TIP3    H131620   7.083   5.554   2.621
10581TIP3    H231621   7.013   5.593   2.492
10582TIP3   OH231622   6.638   5.592   3.387
10582TIP3    H131623   6.715   5.626   3.433
10582TIP3    H231624   6.671   5.568   3.300
10583TIP3   OH231625   6.541   5.570   2.890
10583TIP3    H131626   6.586   5.605   2.813
10583TIP3    H231627   6.476   5.637   2.912
10584TIP3   OH231628   7.763   6.278   3.534
10584TIP3    H131629   7.717   6.211   3.584
10584TIP3    H231630   7.766   6.354   3.592
10585TIP3   OH231631   7.452   5.737   3.160
10585TIP3    H131632   7.374   5.733   3.215
10585TIP3    H231633   7.525   5.718   3.220
10586TIP3   OH231634   6.846   5.816   3.167
10586TIP3    H131635   6.759   5.821   3.128
10586TIP3    H231636   6.874   5.726   3.151
10587TIP3   OH231637   7.099   5.819   2.863
10587TIP3    H131638   7.194   5.827   2.855
10587TIP3    H231639   7.066   5.836   2.775
10588TIP3   OH231640   7.898   5.812   3.359
10588TIP3    H131641   7.877   5.825   3.452
10588TIP3    H231642   7.835   5.746   3.329
10589TIP3   OH231643   6.993   5.843   2.612
10589TIP3    H131644   6.931   5.792   2.560
10589TIP3    H231645   7.047   5.888   2.547
10590TIP3   OH231646   8.097   7.522   3.583
10590TIP3    H131647   8.091   7.540   3.489
10590TIP3    H231648   8.177   7.567   3.610
10591TIP3   OH231649   7.036   6.636   3.994
10591TIP3    H131650   7.118   6.655   4.040
10591TIP3    H231651   6.968   6.645   4.060
10592TIP3   OH231652   7.504   6.104   3.259
10592TIP3    H131653   7.554   6.039   3.208
10592TIP3    H231654   7.498   6.065   3.346
10593TIP3   OH231655   6.988   5.566   3.151
10593TIP3    H131656   6.961   5.490   3.203
10593TIP3    H231657   7.009   5.530   3.065
10594TIP3   OH231658   7.469   6.007   3.519
10594TIP3    H131659   7.382   6.035   3.549
10594TIP3    H231660   7.530   6.043   3.583
10595TIP3   OH231661   7.207   6.353   2.646
10595TIP3    H131662   7.132   6.298   2.622
10595TIP3    H231663   7.180   6.394   2.729
10596TIP3   OH231664   8.151   6.627   3.286
10596TIP3    H131665   8.181   6.660   3.201
10596TIP3    H231666   8.112   6.542   3.266
10597TIP3   OH231667   7.675   5.672   2.550
10597TIP3    H131668   7.582   5.650   2.549
10597TIP3    H231669   7.677   5.767   2.563
10598TIP3   OH231670   7.587   6.632   3.666
10598TIP3    H131671   7.666   6.642   3.719
10598TIP3    H231672   7.561   6.722   3.645
10599TIP3   OH231673   7.733   5.936   2.618
10599TIP3    H131674   7.827   5.940   2.631
10599TIP3    H231675   7.712   6.015   2.567
10600TIP3   OH231676   6.893   6.375   3.289
10600TIP3    H131677   6.931   6.355   3.204
10600TIP3    H231678   6.957   6.344   3.353
10601TIP3   OH231679   7.362   6.515   2.494
10601TIP3    H131680   7.315   6.598   2.489
10601TIP3    H231681   7.306   6.457   2.545
10602TIP3   OH231682   6.778   6.300   3.929
10602TIP3    H131683   6.782   6.271   4.020
10602TIP3    H231684   6.703   6.254   3.892
10603TIP3   OH231685   7.522   6.442   3.955
10603TIP3    H131686   7.453   6.382   3.927
10603TIP3    H231687   7.602   6.402   3.922
10604TIP3   OH231688   7.748   6.958   3.549
10604TIP3    H131689   7.653   6.959   3.564
10604TIP3    H231690   7.785   7.001   3.626
10605TIP3   OH231691   8.143   6.025   2.431
10605TIP3    H131692   8.088   5.979   2.367
10605TIP3    H231693   8.149   6.114   2.397
10606TIP3   OH231694   8.411   6.925   3.519
10606TIP3    H131695   8.322   6.894   3.534
10606TIP3    H231696   8.438   6.883   3.437
10607TIP3   OH231697   7.898   6.853   2.382
10607TIP3    H131698   7.862   6.799   2.452
10607TIP3    H231699   7.904   6.794   2.307
10608TIP3   OH231700   7.017   6.711   2.960
10608TIP3    H131701   7.019   6.788   2.904
10608TIP3    H231702   6.923   6.694   2.974
10609TIP3   OH231703   6.584   5.996   2.683
10609TIP3    H131704   6.626   6.080   2.704
10609TIP3    H231705   6.501   5.998   2.731
10610TIP3   OH231706   7.111   6.468   2.871
10610TIP3    H131707   7.092   6.557   2.900
10610TIP3    H231708   7.082   6.412   2.943
10611TIP3   OH231709   7.307   7.041   3.409
10611TIP3    H131710   7.343   7.115   3.361
10611TIP3    H231711   7.379   7.012   3.466
10612TIP3   OH231712   6.943   6.936   2.812
10612TIP3    H131713   6.855   6.945   2.849
10612TIP3    H231714   6.980   7.024   2.817
10613TIP3   OH231715   7.669   6.566   2.267
10613TIP3    H131716   7.710   6.546   2.351
10613TIP3    H231717   7.584   6.521   2.270
10614TIP3   OH231718   7.897   7.205   3.427
10614TIP3    H131719   7.818   7.150   3.428
10614TIP3    H231720   7.885   7.264   3.353
10615TIP3   OH231721   7.963   7.039   2.089
10615TIP3    H131722   8.001   7.109   2.035
10615TIP3    H231723   7.885   7.078   2.128
10616TIP3   OH231724   6.958   5.803   3.914
10616TIP3    H131725   6.872   5.845   3.921
10616TIP3    H231726   6.944   5.714   3.946
10617TIP3   OH231727   7.824   6.508   2.492
10617TIP3    H131728   7.812   6.437   2.556
10617TIP3    H231729   7.918   6.506   2.472
10618TIP3   OH231730   6.729   6.941   3.582
10618TIP3    H131731   6.781   6.882   3.636
10618TIP3    H231732   6.747   7.028   3.618
10619TIP3   OH231733   7.005   6.539   2.274
10619TIP3    H131734   7.016   6.448   2.247
10619TIP3    H231735   6.991   6.534   2.368
10620TIP3   OH231736   6.947   6.559   2.545
10620TIP3    H131737   7.013   6.535   2.610
10620TIP3    H231738   6.944   6.655   2.548
10621TIP3   OH231739   6.678   6.250   2.758
10621TIP3    H131740   6.612   6.299   2.808
10621TIP3    H231741   6.698   6.306   2.683
10622TIP3   OH231742   7.841   5.868   3.623
10622TIP3    H131743   7.921   5.917   3.644
10622TIP3    H231744   7.848   5.788   3.674
10623TIP3   OH231745   7.735   5.620   2.817
10623TIP3    H131746   7.714   5.638   2.726
10623TIP3    H231747   7.778   5.700   2.848
10624TIP3   OH231748   7.216   6.743   2.486
10624TIP3    H131749   7.131   6.767   2.523
10624TIP3    H231750   7.239   6.815   2.428
10625TIP3   OH231751   7.376   5.825   2.909
10625TIP3    H131752   7.439   5.891   2.879
10625TIP3    H231753   7.402   5.805   2.999
10626TIP3   OH231754   7.668   6.077   3.696
10626TIP3    H131755   7.698   6.107   3.782
10626TIP3    H231756   7.721   5.999   3.679
10627TIP3   OH231757   7.551   5.520   2.999
10627TIP3    H131758   7.531   5.598   3.050
10627TIP3    H231759   7.619   5.548   2.938
10628TIP3   OH231760   6.966   6.832   2.560
10628TIP3    H131761   6.945   6.903   2.499
10628TIP3    H231762   6.956   6.871   2.647
10629TIP3   OH231763   7.061   5.545   2.805
10629TIP3    H131764   7.049   5.635   2.833
10629TIP3    H231765   7.155   5.529   2.813
10630TIP3   OH231766   8.307   6.035   3.675
10630TIP3    H131767   8.212   6.022   3.673
10630TIP3    H231768   8.337   6.008   3.588
10631TIP3   OH231769   8.015   6.200   3.086
10631TIP3    H131770   7.959   6.131   3.122
10631TIP3    H231771   8.061   6.236   3.161
10632TIP3   OH231772   6.705   6.422   2.539
10632TIP3    H131773   6.777   6.485   2.546
10632TIP3    H231774   6.735   6.359   2.473
10633TIP3   OH231775   6.603   5.718   2.667
10633TIP3    H131776   6.616   5.812   2.678
10633TIP3    H231777   6.534   5.712   2.601
10634TIP3   OH231778   7.938   7.186   2.999
10634TIP3    H131779   7.896   7.239   2.931
10634TIP3    H231780   8.032   7.198   2.985
10635TIP3   OH231781   7.021   5.447   3.527
10635TIP3    H131782   6.993   5.415   3.440
10635TIP3    H231783   7.007   5.372   3.585
10636TIP3   OH231784   6.527   6.700   2.927
10636TIP3    H131785   6.485   6.735   3.005
10636TIP3    H231786   6.482   6.742   2.854
10637TIP3   OH231787   6.737   7.244   3.998
10637TIP3    H131788   6.818   7.251   4.048
10637TIP3    H231789   6.728   7.150   3.981
10638TIP3   OH231790   7.199   7.135   4.045
10638TIP3    H131791   7.291   7.111   4.051
10638TIP3    H231792   7.165   7.083   3.972
10639TIP3   OH231793   7.152   6.745   2.166
10639TIP3    H131794   7.105   6.674   2.210
10639TIP3    H231795   7.227   6.703   2.126
10640TIP3   OH231796   7.824   7.071   3.789
10640TIP3    H131797   7.840   7.004   3.855
10640TIP3    H231798   7.894   7.135   3.803
10641TIP3   OH231799   7.592   6.780   2.114
10641TIP3    H131800   7.632   6.714   2.171
10641TIP3    H231801   7.650   6.783   2.038
10642TIP3   OH231802   6.834   6.640   4.188
10642TIP3    H131803   6.854   6.547   4.198
10642TIP3    H231804   6.747   6.641   4.147
10643TIP3   OH231805   6.825   6.233   2.383
10643TIP3    H131806   6.876   6.209   2.460
10643TIP3    H231807   6.891   6.247   2.314
10644TIP3   OH231808   7.457   6.717   3.962
10644TIP3    H131809   7.416   6.736   3.878
10644TIP3    H231810   7.495   6.630   3.951
10645TIP3   OH231811   7.418   6.450   2.234
10645TIP3    H131812   7.389   6.463   2.324
10645TIP3    H231813   7.391   6.361   2.212
10646TIP3   OH231814   7.930   6.750   3.607
10646TIP3    H131815   8.010   6.776   3.561
10646TIP3    H231816   7.864   6.814   3.580
10647TIP3   OH231817   6.947   6.386   4.194
10647TIP3    H131818   7.021   6.365   4.136
10647TIP3    H231819   6.987   6.398   4.280
10648TIP3   OH231820   6.997   6.177   2.597
10648TIP3    H131821   6.976   6.145   2.684
10648TIP3    H231822   7.047   6.106   2.556
10649TIP3   OH231823   7.317   6.265   3.856
10649TIP3    H131824   7.230   6.303   3.868
10649TIP3    H231825   7.349   6.302   3.774
10650TIP3   OH231826   7.145   5.998   2.442
10650TIP3    H131827   7.114   6.002   2.351
10650TIP3    H231828   7.240   6.006   2.436
10651TIP3   OH231829   7.823   6.640   3.950
10651TIP3    H131830   7.897   6.611   3.896
10651TIP3    H231831   7.821   6.580   4.024
10652TIP3   OH231832   7.939   6.284   2.114
10652TIP3    H131833   7.920   6.239   2.032
10652TIP3    H231834   7.913   6.375   2.098
10653TIP3   OH231835   7.416   6.033   3.969
10653TIP3    H131836   7.423   5.962   3.905
10653TIP3    H231837   7.387   6.109   3.919
10654TIP3   OH231838   7.422   5.838   3.760
10654TIP3    H131839   7.445   5.869   3.672
10654TIP3    H231840   7.331   5.808   3.751
10655TIP3   OH231841   7.427   6.398   3.645
10655TIP3    H131842   7.493   6.467   3.655
10655TIP3    H231843   7.365   6.434   3.581
10656TIP3   OH231844   8.020   6.319   3.988
10656TIP3    H131845   8.052   6.229   3.990
10656TIP3    H231846   8.083   6.365   3.933
10657TIP3   OH231847   8.051   6.590   3.794
10657TIP3    H131848   7.999   6.641   3.731
10657TIP3    H231849   8.137   6.581   3.751
10658TIP3   OH231850   7.300   6.138   4.204
10658TIP3    H131851   7.234   6.073   4.228
10658TIP3    H231852   7.329   6.111   4.116
10659TIP3   OH231853   7.579   5.614   3.818
10659TIP3    H131854   7.528   5.693   3.801
10659TIP3    H231855   7.523   5.542   3.788
10660TIP3   OH231856   7.689   6.073   4.053
10660TIP3    H131857   7.705   6.063   4.147
10660TIP3    H231858   7.598   6.047   4.042
10661TIP3   OH231859   7.926   6.044   3.898
10661TIP3    H131860   7.851   6.035   3.956
10661TIP3    H231861   8.000   6.009   3.948
10662TIP3   OH231862   8.147   5.985   4.057
10662TIP3    H131863   8.168   5.892   4.066
10662TIP3    H231864   8.135   6.016   4.147
10663TIP3   OH231865   7.160   5.904   4.272
10663TIP3    H131866   7.204   5.838   4.219
10663TIP3    H231867   7.186   5.885   4.362
10664TIP3   OH231868   7.697   5.624   4.067
10664TIP3    H131869   7.747   5.543   4.073
10664TIP3    H231870   7.647   5.616   3.985
10665TIP3   OH231871   7.703   5.791   4.280
10665TIP3    H131872   7.702   5.732   4.204
10665TIP3    H231873   7.623   5.843   4.270
10666TIP3   OH231874   6.961   7.044   2.381
10666TIP3    H131875   7.050   7.024   2.354
10666TIP3    H231876   6.922   7.087   2.305
10667TIP3   OH231877   6.432   6.428   2.552
10667TIP3    H131878   6.527   6.436   2.549
10667TIP3    H231879   6.414   6.343   2.512
10668TIP3   OH231880   6.327   7.000   3.016
10668TIP3    H131881   6.262   6.944   2.972
10668TIP3    H231882   6.373   6.941   3.075
10669TIP3   OH231883   6.475   6.836   3.184
10669TIP3    H131884   6.471   6.766   3.249
10669TIP3    H231885   6.523   6.906   3.227
10670TIP3   OH231886   8.209   7.242   2.995
10670TIP3    H131887   8.222   7.268   3.086
10670TIP3    H231888   8.254   7.309   2.944
10671TIP3   OH231889   8.216   7.278   3.274
10671TIP3    H131890   8.174   7.193   3.276
10671TIP3    H231891   8.290   7.270   3.335
10672TIP3   OH231892   8.290   6.982   3.849
10672TIP3    H131893   8.223   6.988   3.917
10672TIP3    H231894   8.334   7.067   3.851
10673TIP3   OH231895   8.101   6.488   2.459
10673TIP3    H131896   8.158   6.559   2.429
10673TIP3    H231897   8.148   6.449   2.532
10674TIP3   OH231898   8.233   6.348   2.659
10674TIP3    H131899   8.170   6.311   2.721
10674TIP3    H231900   8.301   6.387   2.715
10675TIP3   OH231901   8.290   6.762   3.087
10675TIP3    H131902   8.339   6.690   3.046
10675TIP3    H231903   8.294   6.833   3.023
10676TIP3   OH231904   8.083   7.034   3.294
10676TIP3    H131905   8.009   7.077   3.336
10676TIP3    H231906   8.046   6.988   3.219
10677TIP3   OH231907   8.142   6.266   2.298
10677TIP3    H131908   8.072   6.267   2.233
10677TIP3    H231909   8.125   6.343   2.353
10678TIP3   OH231910   7.997   5.912   2.228
10678TIP3    H131911   7.949   5.946   2.153
10678TIP3    H231912   7.985   5.817   2.222
10679TIP3   OH231913   8.032   6.208   2.808
10679TIP3    H131914   8.040   6.115   2.787
10679TIP3    H231915   8.030   6.211   2.903
10680TIP3   OH231916   6.647   6.269   3.567
10680TIP3    H131917   6.638   6.236   3.477
10680TIP3    H231918   6.741   6.264   3.584
10681TIP3   OH231919   8.292   6.626   3.653
10681TIP3    H131920   8.361   6.566   3.625
10681TIP3    H231921   8.261   6.666   3.572
10682TIP3   OH231922   8.486   6.427   3.636
10682TIP3    H131923   8.406   6.384   3.667
10682TIP3    H231924   8.557   6.371   3.669
10683TIP3   OH231925   7.953   5.639   2.214
10683TIP3    H131926   8.016   5.617   2.283
10683TIP3    H231927   7.870   5.604   2.246
10684TIP3   OH231928   8.022   5.933   2.673
10684TIP3    H131929   8.069   5.850   2.686
10684TIP3    H231930   8.064   5.972   2.596
10685TIP3   OH231931   6.892   5.972   4.232
10685TIP3    H131932   6.986   5.953   4.238
10685TIP3    H231933   6.849   5.890   4.256
10686TIP3   OH231934   8.698   5.860   3.971
10686TIP3    H131935   8.767   5.811   3.926
10686TIP3    H231936   8.655   5.910   3.901
10687TIP3   OH231937   8.140   5.684   2.724
10687TIP3    H131938   8.185   5.672   2.807
10687TIP3    H231939   8.078   5.611   2.719
10688TIP3   OH231940   6.855   5.665   3.549
10688TIP3    H131941   6.909   5.586   3.550
10688TIP3    H231942   6.916   5.736   3.531
10689TIP3   OH231943   6.634   5.932   3.624
10689TIP3    H131944   6.681   5.919   3.541
10689TIP3    H231945   6.662   6.019   3.653
10690TIP3   OH231946   8.558   5.961   3.761
10690TIP3    H131947   8.470   5.999   3.768
10690TIP3    H231948   8.545   5.879   3.714
10691TIP3   OH231949   8.182   5.596   2.365
10691TIP3    H131950   8.222   5.539   2.300
10691TIP3    H231951   8.239   5.673   2.369
10692TIP3   OH231952   6.619   5.450   3.124
10692TIP3    H131953   6.534   5.434   3.164
10692TIP3    H231954   6.599   5.499   3.044
10693TIP3   OH231955   7.770   7.158   2.639
10693TIP3    H131956   7.826   7.152   2.562
10693TIP3    H231957   7.808   7.229   2.691
10694TIP3   OH231958   6.838   5.539   3.963
10694TIP3    H131959   6.782   5.471   4.001
10694TIP3    H231960   6.783   5.583   3.898
10695TIP3   OH231961   6.862   6.963   4.004
10695TIP3    H131962   6.769   6.939   4.001
10695TIP3    H231963   6.885   6.954   4.097
10696TIP3   OH231964   7.081   7.003   3.563
10696TIP3    H131965   7.031   7.078   3.533
10696TIP3    H231966   7.165   7.011   3.517
10697TIP3   OH231967   7.479   7.235   3.704
10697TIP3    H131968   7.517   7.224   3.791
10697TIP3    H231969   7.543   7.288   3.656
10698TIP3   OH231970   7.675   7.385   3.579
10698TIP3    H131971   7.744   7.337   3.532
10698TIP3    H231972   7.723   7.448   3.633
10699TIP3   OH231973   8.476   5.715   3.657
10699TIP3    H131974   8.387   5.705   3.623
10699TIP3    H231975   8.514   5.627   3.650
10700TIP3   OH231976   6.743   7.235   3.616
10700TIP3    H131977   6.653   7.254   3.592
10700TIP3    H231978   6.766   7.303   3.679
10701TIP3   OH231979   6.972   7.234   3.461
10701TIP3    H131980   6.889   7.237   3.509
10701TIP3    H231981   6.949   7.258   3.372
10702TIP3   OH231982   7.381   7.254   3.248
10702TIP3    H131983   7.305   7.268   3.192
10702TIP3    H231984   7.394   7.338   3.293
10703TIP3   OH231985   7.645   7.181   3.279
10703TIP3    H131986   7.554   7.207   3.263
10703TIP3    H231987   7.696   7.251   3.240
10704TIP3   OH231988   7.851   7.354   3.198
10704TIP3    H131989   7.856   7.441   3.160
10704TIP3    H231990   7.880   7.295   3.128
10705TIP3   OH231991   6.644   7.019   3.331
10705TIP3    H131992   6.673   6.998   3.419
10705TIP3    H231993   6.714   6.987   3.274
10706TIP3   OH231994   6.846   6.906   3.189
10706TIP3    H131995   6.857   6.822   3.232
10706TIP3    H231996   6.932   6.947   3.193
10707TIP3   OH231997   7.114   6.997   3.214
10707TIP3    H131998   7.127   6.903   3.202
10707TIP3    H231999   7.171   7.021   3.287
10708TIP3   OH232000   7.672   5.627   3.292
10708TIP3    H132001   7.650   5.558   3.354
10708TIP3    H232002   7.743   5.590   3.239
10709TIP3   OH232003   8.179   5.550   3.177
10709TIP3    H132004   8.217   5.599   3.104
10709TIP3    H232005   8.086   5.573   3.176
10710TIP3   OH232006   8.296   5.639   2.948
10710TIP3    H132007   8.364   5.576   2.925
10710TIP3    H232008   8.334   5.724   2.929
10711TIP3   OH232009   6.923   5.336   3.294
10711TIP3    H132010   6.834   5.303   3.308
10711TIP3    H232011   6.978   5.258   3.289
10712TIP3   OH232012   6.753   5.255   2.960
10712TIP3    H132013   6.775   5.302   2.880
10712TIP3    H232014   6.715   5.322   3.017
10713TIP3   OH232015   7.408   5.376   3.202
10713TIP3    H132016   7.459   5.425   3.137
10713TIP3    H232017   7.447   5.400   3.286
10714TIP3   OH232018   7.896   5.539   3.151
10714TIP3    H132019   7.901   5.503   3.063
10714TIP3    H232020   7.898   5.462   3.208
10715TIP3   OH232021   7.957   5.472   2.736
10715TIP3    H132022   7.876   5.518   2.760
10715TIP3    H232023   7.947   5.385   2.774
10716TIP3   OH232024   6.406   6.822   2.713
10716TIP3    H132025   6.325   6.793   2.669
10716TIP3    H232026   6.417   6.913   2.684
10717TIP3   OH232027   6.852   5.376   2.714
10717TIP3    H132028   6.898   5.314   2.658
10717TIP3    H232029   6.922   5.432   2.749
10718TIP3   OH232030   7.336   5.570   2.816
10718TIP3    H132031   7.395   5.519   2.872
10718TIP3    H232032   7.349   5.661   2.845
10719TIP3   OH232033   7.214   6.966   2.314
10719TIP3    H132034   7.297   6.994   2.275
10719TIP3    H232035   7.183   6.897   2.255
10720TIP3   OH232036   7.923   7.121   2.410
10720TIP3    H132037   7.919   7.026   2.402
10720TIP3    H232038   7.877   7.153   2.332
10721TIP3   OH232039   6.534   6.805   2.365
10721TIP3    H132040   6.537   6.817   2.460
10721TIP3    H232041   6.613   6.757   2.344
10722TIP3   OH232042   8.230   5.725   4.089
10722TIP3    H132043   8.246   5.699   4.180
10722TIP3    H232044   8.315   5.713   4.046
10723TIP3   OH232045   8.126   7.248   3.594
10723TIP3    H132046   8.051   7.218   3.542
10723TIP3    H232047   8.115   7.343   3.598
10724TIP3   OH232048   9.450   6.594   2.238
10724TIP3    H132049   9.434   6.688   2.240
10724TIP3    H232050   9.365   6.554   2.253
10725TIP3   OH232051   9.329   6.622   2.752
10725TIP3    H132052   9.378   6.637   2.832
10725TIP3    H232053   9.292   6.535   2.761
10726TIP3   OH232054   8.695   6.494   3.107
10726TIP3    H132055   8.733   6.440   3.177
10726TIP3    H232056   8.771   6.523   3.056
10727TIP3   OH232057   8.694   6.911   2.781
10727TIP3    H132058   8.675   6.818   2.791
10727TIP3    H232059   8.790   6.916   2.780
10728TIP3   OH232060   8.380   6.125   2.564
10728TIP3    H132061   8.341   6.207   2.594
10728TIP3    H232062   8.308   6.076   2.526
10729TIP3   OH232063   8.461   6.442   2.794
10729TIP3    H132064   8.512   6.366   2.823
10729TIP3    H232065   8.527   6.509   2.775
10730TIP3   OH232066   9.322   7.384   2.500
10730TIP3    H132067   9.354   7.304   2.542
10730TIP3    H232068   9.261   7.422   2.563
10731TIP3   OH232069   9.205   6.866   2.753
10731TIP3    H132070   9.239   6.779   2.730
10731TIP3    H232071   9.281   6.914   2.786
10732TIP3   OH232072   9.608   6.445   2.812
10732TIP3    H132073   9.688   6.396   2.796
10732TIP3    H232074   9.557   6.434   2.731
10733TIP3   OH232075   8.955   6.009   2.756
10733TIP3    H132076   8.918   6.079   2.702
10733TIP3    H232077   8.905   5.931   2.731
10734TIP3   OH232078   9.770   6.179   2.413
10734TIP3    H132079   9.726   6.152   2.494
10734TIP3    H232080   9.722   6.257   2.385
10735TIP3   OH232081   8.600   6.225   2.890
10735TIP3    H132082   8.680   6.201   2.938
10735TIP3    H232083   8.597   6.164   2.817
10736TIP3   OH232084   8.994   6.418   2.705
10736TIP3    H132085   9.085   6.396   2.726
10736TIP3    H232086   8.956   6.337   2.673
10737TIP3   OH232087   8.942   6.010   3.225
10737TIP3    H132088   8.889   6.048   3.156
10737TIP3    H232089   8.890   6.022   3.305
10738TIP3   OH232090   9.320   6.835   2.207
10738TIP3    H132091   9.270   6.816   2.127
10738TIP3    H232092   9.281   6.915   2.241
10739TIP3   OH232093   9.054   6.783   2.971
10739TIP3    H132094   8.997   6.852   3.005
10739TIP3    H232095   9.099   6.824   2.897
10740TIP3   OH232096   8.842   6.112   2.987
10740TIP3    H132097   8.895   6.188   3.010
10740TIP3    H232098   8.889   6.070   2.915
10741TIP3   OH232099   8.891   6.981   3.073
10741TIP3    H132100   8.880   7.072   3.045
10741TIP3    H232101   8.814   6.962   3.126
10742TIP3   OH232102   8.272   6.679   2.345
10742TIP3    H132103   8.237   6.702   2.259
10742TIP3    H232104   8.298   6.763   2.383
10743TIP3   OH232105   9.234   5.695   2.903
10743TIP3    H132106   9.236   5.610   2.947
10743TIP3    H232107   9.172   5.747   2.954
10744TIP3   OH232108   9.457   7.201   2.239
10744TIP3    H132109   9.516   7.170   2.308
10744TIP3    H232110   9.462   7.297   2.245
10745TIP3   OH232111   9.219   6.460   2.156
10745TIP3    H132112   9.130   6.494   2.164
10745TIP3    H232113   9.254   6.503   2.077
10746TIP3   OH232114   9.219   6.277   1.916
10746TIP3    H132115   9.271   6.318   1.985
10746TIP3    H232116   9.282   6.228   1.864
10747TIP3   OH232117   8.814   6.552   2.542
10747TIP3    H132118   8.775   6.485   2.486
10747TIP3    H232119   8.884   6.505   2.589
10748TIP3   OH232120   8.957   6.969   2.698
10748TIP3    H132121   8.934   6.953   2.607
10748TIP3    H232122   9.046   6.935   2.707
10749TIP3   OH232123   8.910   6.553   2.932
10749TIP3    H132124   8.946   6.514   2.852
10749TIP3    H232125   8.962   6.632   2.946
10750TIP3   OH232126   9.416   7.212   2.707
10750TIP3    H132127   9.492   7.243   2.755
10750TIP3    H232128   9.400   7.124   2.741
10751TIP3   OH232129   9.091   7.080   3.238
10751TIP3    H132130   9.030   7.138   3.282
10751TIP3    H232131   9.035   7.026   3.181
10752TIP3   OH232132   9.462   6.464   1.991
10752TIP3    H132133   9.474   6.522   2.066
10752TIP3    H232134   9.463   6.523   1.915
10753TIP3   OH232135   8.845   6.625   3.380
10753TIP3    H132136   8.848   6.718   3.404
10753TIP3    H232137   8.752   6.604   3.377
10754TIP3   OH232138   9.204   7.084   2.266
10754TIP3    H132139   9.286   7.133   2.267
10754TIP3    H232140   9.140   7.146   2.228
10755TIP3   OH232141   8.887   7.239   3.331
10755TIP3    H132142   8.863   7.252   3.239
10755TIP3    H232143   8.804   7.224   3.375
10756TIP3   OH232144   8.685   6.379   2.361
10756TIP3    H132145   8.606   6.426   2.332
10756TIP3    H232146   8.653   6.291   2.381
10757TIP3   OH232147   8.482   6.791   3.292
10757TIP3    H132148   8.413   6.775   3.227
10757TIP3    H232149   8.513   6.704   3.315
10758TIP3   OH232150   8.331   6.996   2.934
10758TIP3    H132151   8.421   7.022   2.957
10758TIP3    H232152   8.277   7.070   2.962
10759TIP3   OH232153   9.291   7.211   3.105
10759TIP3    H132154   9.283   7.300   3.137
10759TIP3    H232155   9.223   7.162   3.151
10760TIP3   OH232156   9.081   7.305   2.101
10760TIP3    H132157   9.029   7.283   2.023
10760TIP3    H232158   9.047   7.390   2.128
10761TIP3   OH232159   8.493   7.173   2.449
10761TIP3    H132160   8.540   7.166   2.532
10761TIP3    H232161   8.447   7.089   2.440
10762TIP3   OH232162   9.277   7.265   1.742
10762TIP3    H132163   9.282   7.181   1.696
10762TIP3    H232164   9.306   7.245   1.831
10763TIP3   OH232165   9.322   7.213   2.000
10763TIP3    H132166   9.241   7.246   2.040
10763TIP3    H232167   9.380   7.195   2.074
10764TIP3   OH232168   8.679   6.980   3.248
10764TIP3    H132169   8.731   6.967   3.327
10764TIP3    H232170   8.607   6.917   3.257
10765TIP3   OH232171   9.040   5.812   3.058
10765TIP3    H132172   8.955   5.775   3.032
10765TIP3    H232173   9.018   5.887   3.113
10766TIP3   OH232174   9.755   5.880   3.236
10766TIP3    H132175   9.820   5.811   3.240
10766TIP3    H232176   9.686   5.853   3.297
10767TIP3   OH232177   9.251   5.802   2.023
10767TIP3    H132178   9.213   5.821   2.109
10767TIP3    H232179   9.199   5.729   1.990
10768TIP3   OH232180   8.984   6.329   3.077
10768TIP3    H132181   8.940   6.334   3.162
10768TIP3    H232182   8.964   6.412   3.035
10769TIP3   OH232183   8.855   6.207   2.597
10769TIP3    H132184   8.768   6.183   2.629
10769TIP3    H232185   8.861   6.168   2.510
10770TIP3   OH232186   9.342   6.254   2.281
10770TIP3    H132187   9.293   6.328   2.246
10770TIP3    H232188   9.408   6.234   2.215
10771TIP3   OH232189   9.485   6.579   3.402
10771TIP3    H132190   9.477   6.509   3.467
10771TIP3    H232191   9.578   6.603   3.404
10772TIP3   OH232192   9.459   6.354   2.602
10772TIP3    H132193   9.468   6.421   2.535
10772TIP3    H232194   9.468   6.271   2.555
10773TIP3   OH232195   8.829   6.333   3.304
10773TIP3    H132196   8.844   6.400   3.371
10773TIP3    H232197   8.816   6.253   3.353
10774TIP3   OH232198   8.880   5.817   2.006
10774TIP3    H132199   8.862   5.816   2.100
10774TIP3    H232200   8.803   5.858   1.967
10775TIP3   OH232201   8.417   5.859   2.854
10775TIP3    H132202   8.490   5.893   2.906
10775TIP3    H232203   8.457   5.832   2.772
10776TIP3   OH232204   8.334   5.829   2.376
10776TIP3    H132205   8.376   5.865   2.298
10776TIP3    H232206   8.270   5.896   2.401
10777TIP3   OH232207   9.488   6.627   2.982
10777TIP3    H132208   9.541   6.581   2.917
10777TIP3    H232209   9.531   6.609   3.065
10778TIP3   OH232210   9.201   6.051   2.635
10778TIP3    H132211   9.118   6.049   2.682
10778TIP3    H232212   9.255   5.984   2.677
10779TIP3   OH232213   8.631   6.069   2.665
10779TIP3    H132214   8.544   6.074   2.624
10779TIP3    H232215   8.660   5.979   2.648
10780TIP3   OH232216   8.858   6.065   2.364
10780TIP3    H132217   8.951   6.080   2.348
10780TIP3    H232218   8.815   6.085   2.281
10781TIP3   OH232219   9.526   6.026   2.889
10781TIP3    H132220   9.477   6.041   2.970
10781TIP3    H232221   9.601   5.973   2.916
10782TIP3   OH232222   8.757   6.106   2.120
10782TIP3    H132223   8.704   6.052   2.060
10782TIP3    H232224   8.826   6.142   2.064
10783TIP3   OH232225   8.834   6.891   3.478
10783TIP3    H132226   8.915   6.907   3.527
10783TIP3    H232227   8.765   6.897   3.544
10784TIP3   OH232228   9.249   6.354   2.782
10784TIP3    H132229   9.324   6.335   2.725
10784TIP3    H232230   9.253   6.287   2.850
10785TIP3   OH232231   8.780   5.822   2.643
10785TIP3    H132232   8.747   5.748   2.695
10785TIP3    H232233   8.819   5.782   2.566
10786TIP3   OH232234   9.220   6.203   3.027
10786TIP3    H132235   9.142   6.256   3.045
10786TIP3    H232236   9.294   6.262   3.045
10787TIP3   OH232237   8.987   6.595   2.137
10787TIP3    H132238   8.909   6.546   2.112
10787TIP3    H232239   8.959   6.647   2.213
10788TIP3   OH232240   9.460   5.959   1.946
10788TIP3    H132241   9.389   5.904   1.978
10788TIP3    H232242   9.473   6.025   2.014
10789TIP3   OH232243   9.448   6.955   3.148
10789TIP3    H132244   9.457   6.932   3.241
10789TIP3    H232245   9.403   7.039   3.149
10790TIP3   OH232246   9.526   6.211   2.079
10790TIP3    H132247   9.621   6.205   2.082
10790TIP3    H232248   9.508   6.295   2.036
10791TIP3   OH232249   8.681   6.624   2.776
10791TIP3    H132250   8.721   6.608   2.691
10791TIP3    H232251   8.748   6.597   2.839
10792TIP3   OH232252   9.156   6.751   1.993
10792TIP3    H132253   9.116   6.838   1.995
10792TIP3    H232254   9.095   6.695   2.041
10793TIP3   OH232255   8.576   6.550   3.403
10793TIP3    H132256   8.565   6.528   3.496
10793TIP3    H232257   8.521   6.486   3.357
10794TIP3   OH232258   9.258   6.721   3.443
10794TIP3    H132259   9.193   6.658   3.412
10794TIP3    H232260   9.341   6.686   3.411
10795TIP3   OH232261   9.551   7.235   3.008
10795TIP3    H132262   9.458   7.218   3.020
10795TIP3    H232263   9.581   7.265   3.094
10796TIP3   OH232264   8.814   6.966   2.462
10796TIP3    H132265   8.805   7.046   2.410
10796TIP3    H232266   8.730   6.958   2.507
10797TIP3   OH232267   8.376   6.256   2.153
10797TIP3    H132268   8.420   6.337   2.179
10797TIP3    H232269   8.296   6.254   2.206
10798TIP3   OH232270   8.876   6.732   2.340
10798TIP3    H132271   8.870   6.819   2.378
10798TIP3    H232272   8.856   6.672   2.412
10799TIP3   OH232273   9.109   7.287   2.899
10799TIP3    H132274   9.151   7.347   2.838
10799TIP3    H232275   9.181   7.251   2.951
10800TIP3   OH232276   8.736   7.189   2.324
10800TIP3    H132277   8.645   7.197   2.355
10800TIP3    H232278   8.767   7.280   2.320
10801TIP3   OH232279   9.433   6.969   2.863
10801TIP3    H132280   9.433   6.947   2.956
10801TIP3    H232281   9.526   6.985   2.843
10802TIP3   OH232282   8.794   6.083   3.445
10802TIP3    H132283   8.699   6.078   3.453
10802TIP3    H232284   8.827   6.029   3.516
10803TIP3   OH232285   8.531   7.192   3.062
10803TIP3    H132286   8.582   7.135   3.120
10803TIP3    H232287   8.543   7.280   3.098
10804TIP3   OH232288   8.780   6.825   1.804
10804TIP3    H132289   8.788   6.741   1.758
10804TIP3    H232290   8.781   6.801   1.897
10805TIP3   OH232291   8.745   6.797   2.083
10805TIP3    H132292   8.791   6.771   2.163
10805TIP3    H232293   8.749   6.893   2.084
10806TIP3   OH232294   8.466   6.504   2.248
10806TIP3    H132295   8.401   6.550   2.301
10806TIP3    H232296   8.487   6.565   2.177
10807TIP3   OH232297   9.682   6.181   3.130
10807TIP3    H132298   9.731   6.188   3.212
10807TIP3    H232299   9.615   6.115   3.147
10808TIP3   OH232300   9.434   5.924   2.274
10808TIP3    H132301   9.518   5.885   2.250
10808TIP3    H232302   9.457   6.001   2.325
10809TIP3   OH232303   9.023   6.982   2.007
10809TIP3    H132304   8.936   7.002   2.044
10809TIP3    H232305   9.050   7.064   1.966
10810TIP3   OH232306   9.129   6.099   2.368
10810TIP3    H132307   9.194   6.161   2.335
10810TIP3    H232308   9.146   6.094   2.462
10811TIP3   OH232309   9.379   6.359   3.257
10811TIP3    H132310   9.397   6.449   3.285
10811TIP3    H232311   9.417   6.354   3.169
10812TIP3   OH232312   9.302   5.791   2.475
10812TIP3    H132313   9.340   5.817   2.558
10812TIP3    H232314   9.349   5.842   2.409
10813TIP3   OH232315   8.773   7.067   2.086
10813TIP3    H132316   8.761   7.140   2.026
10813TIP3    H232317   8.760   7.104   2.173
10814TIP3   OH232318   8.846   5.795   2.284
10814TIP3    H132319   8.822   5.878   2.323
10814TIP3    H232320   8.942   5.795   2.284
10815TIP3   OH232321   8.497   6.688   2.039
10815TIP3    H132322   8.570   6.744   2.062
10815TIP3    H232323   8.531   6.629   1.972
10816TIP3   OH232324   8.392   5.977   2.152
10816TIP3    H132325   8.409   6.070   2.160
10816TIP3    H232326   8.331   5.970   2.079
10817TIP3   OH232327   8.797   5.697   3.017
10817TIP3    H132328   8.765   5.664   2.933
10817TIP3    H232329   8.785   5.624   3.078
10818TIP3   OH232330   8.329   6.944   2.427
10818TIP3    H132331   8.285   6.984   2.502
10818TIP3    H232332   8.286   6.982   2.351
10819TIP3   OH232333   8.533   7.485   3.483
10819TIP3    H132334   8.617   7.488   3.530
10819TIP3    H232335   8.516   7.392   3.471
10820TIP3   OH232336   8.997   7.392   3.531
10820TIP3    H132337   9.090   7.370   3.534
10820TIP3    H232338   8.962   7.342   3.458
10821TIP3   OH232339   8.963   6.989   1.677
10821TIP3    H132340   8.888   6.945   1.718
10821TIP3    H232341   9.031   6.922   1.675
10822TIP3   OH232342   9.614   7.302   3.273
10822TIP3    H132343   9.624   7.241   3.345
10822TIP3    H232344   9.702   7.336   3.258
10823TIP3   OH232345   8.636   6.897   3.676
10823TIP3    H132346   8.655   6.804   3.686
10823TIP3    H232347   8.551   6.900   3.633
10824TIP3   OH232348   8.631   6.508   1.884
10824TIP3    H132349   8.672   6.474   1.964
10824TIP3    H232350   8.704   6.527   1.826
10825TIP3   OH232351   9.230   6.997   3.456
10825TIP3    H132352   9.187   7.017   3.373
10825TIP3    H232353   9.263   6.908   3.446
10826TIP3   OH232354   9.099   6.743   1.723
10826TIP3    H132355   9.116   6.744   1.817
10826TIP3    H232356   9.036   6.673   1.710
10827TIP3   OH232357   8.756   6.646   3.684
10827TIP3    H132358   8.831   6.615   3.633
10827TIP3    H232359   8.791   6.660   3.772
10828TIP3   OH232360   8.778   6.423   2.100
10828TIP3    H132361   8.751   6.400   2.188
10828TIP3    H232362   8.834   6.351   2.072
10829TIP3   OH232363   9.101   6.521   3.330
10829TIP3    H132364   9.013   6.560   3.331
10829TIP3    H232365   9.137   6.546   3.245
10830TIP3   OH232366   8.951   6.242   1.982
10830TIP3    H132367   8.923   6.237   1.891
10830TIP3    H232368   9.047   6.249   1.977
10831TIP3   OH232369   9.521   6.902   3.423
10831TIP3    H132370   9.605   6.883   3.381
10831TIP3    H232371   9.522   6.851   3.503
10832TIP3   OH232372   9.180   6.288   3.458
10832TIP3    H132373   9.199   6.218   3.396
10832TIP3    H232374   9.160   6.365   3.404
10833TIP3   OH232375   9.206   6.061   3.263
10833TIP3    H132376   9.219   6.111   3.182
10833TIP3    H232377   9.113   6.043   3.266
10834TIP3   OH232378   9.229   6.617   3.105
10834TIP3    H132379   9.315   6.630   3.066
10834TIP3    H232380   9.172   6.681   3.061
10835TIP3   OH232381  -0.018   6.598   3.472
10835TIP3    H132382  -0.035   6.508   3.447
10835TIP3    H232383   0.072   6.598   3.505
10836TIP3   OH232384   9.083   6.385   3.699
10836TIP3    H132385   9.014   6.324   3.724
10836TIP3    H232386   9.107   6.357   3.610
10837TIP3   OH232387   9.285   5.818   3.373
10837TIP3    H132388   9.252   5.903   3.344
10837TIP3    H232389   9.223   5.754   3.338
10838TIP3   OH232390   9.444   6.344   3.553
10838TIP3    H132391   9.417   6.323   3.642
10838TIP3    H232392   9.369   6.322   3.498
10839TIP3   OH232393   9.676   6.356   3.391
10839TIP3    H132394   9.590   6.339   3.431
10839TIP3    H232395   9.734   6.291   3.430
10840TIP3   OH232396   0.264   6.140   3.639
10840TIP3    H132397   0.217   6.064   3.672
10840TIP3    H232398   0.198   6.188   3.588
10841TIP3   OH232399   8.912   6.184   3.778
10841TIP3    H132400   8.915   6.097   3.737
10841TIP3    H232401   8.949   6.170   3.865
10842TIP3   OH232402   9.319   5.816   3.646
10842TIP3    H132403   9.310   5.730   3.687
10842TIP3    H232404   9.295   5.801   3.554
10843TIP3   OH232405   9.440   6.021   3.770
10843TIP3    H132406   9.394   5.950   3.726
10843TIP3    H232407   9.380   6.095   3.765
10844TIP3   OH232408   8.771   7.288   1.930
10844TIP3    H132409   8.848   7.281   1.875
10844TIP3    H232410   8.700   7.311   1.870
10845TIP3   OH232411   8.225   6.686   2.058
10845TIP3    H132412   8.320   6.697   2.055
10845TIP3    H232413   8.210   6.596   2.030
10846TIP3   OH232414   8.132   7.266   2.504
10846TIP3    H132415   8.063   7.215   2.461
10846TIP3    H232416   8.175   7.203   2.562
10847TIP3   OH232417   8.273   7.093   2.669
10847TIP3    H132418   8.268   7.026   2.737
10847TIP3    H232419   8.324   7.164   2.710
10848TIP3   OH232420   8.430   6.527   3.054
10848TIP3    H132421   8.424   6.497   2.964
10848TIP3    H232422   8.524   6.522   3.075
10849TIP3   OH232423   8.650   6.216   3.700
10849TIP3    H132424   8.744   6.218   3.721
10849TIP3    H232425   8.620   6.132   3.734
10850TIP3   OH232426   8.637   5.920   3.002
10850TIP3    H132427   8.690   5.843   3.022
10850TIP3    H232428   8.698   5.993   3.010
10851TIP3   OH232429   8.458   6.161   3.132
10851TIP3    H132430   8.493   6.187   3.047
10851TIP3    H232431   8.437   6.243   3.176
10852TIP3   OH232432   8.407   5.696   2.603
10852TIP3    H132433   8.321   5.684   2.643
10852TIP3    H232434   8.391   5.750   2.525
10853TIP3   OH232435   8.626   5.773   3.422
10853TIP3    H132436   8.576   5.755   3.502
10853TIP3    H232437   8.565   5.821   3.366
10854TIP3   OH232438   8.662   7.208   3.491
10854TIP3    H132439   8.568   7.190   3.484
10854TIP3    H232440   8.683   7.188   3.582
10855TIP3   OH232441   8.879   7.257   3.050
10855TIP3    H132442   8.828   7.331   3.017
10855TIP3    H232443   8.965   7.267   3.008
10856TIP3   OH232444   9.272   7.476   3.189
10856TIP3    H132445   9.315   7.473   3.275
10856TIP3    H232446   9.333   7.526   3.134
10857TIP3   OH232447   9.464   7.612   3.043
10857TIP3    H132448   9.490   7.568   2.962
10857TIP3    H232449   9.545   7.648   3.077
10858TIP3   OH232450   8.532   7.485   3.104
10858TIP3    H132451   8.441   7.502   3.079
10858TIP3    H232452   8.553   7.556   3.165
10859TIP3   OH232453   8.759   7.482   2.950
10859TIP3    H132454   8.678   7.485   3.000
10859TIP3    H232455   8.734   7.510   2.862
10860TIP3   OH232456   9.177   7.484   2.708
10860TIP3    H132457   9.087   7.500   2.679
10860TIP3    H232458   9.196   7.558   2.766
10861TIP3   OH232459   9.493   7.491   2.789
10861TIP3    H132460   9.410   7.445   2.781
10861TIP3    H232461   9.505   7.535   2.705
10862TIP3   OH232462   8.444   7.276   2.809
10862TIP3    H132463   8.465   7.254   2.900
10862TIP3    H232464   8.517   7.241   2.758
10863TIP3   OH232465   8.648   7.156   2.676
10863TIP3    H132466   8.656   7.071   2.719
10863TIP3    H232467   8.734   7.197   2.684
10864TIP3   OH232468   8.913   7.242   2.708
10864TIP3    H132469   8.930   7.149   2.693
10864TIP3    H232470   8.969   7.265   2.782
10865TIP3   OH232471   9.373   5.862   2.733
10865TIP3    H132472   9.333   5.797   2.791
10865TIP3    H232473   9.429   5.914   2.789
10866TIP3   OH232474   8.705   5.594   2.779
10866TIP3    H132475   8.615   5.563   2.792
10866TIP3    H232476   8.757   5.514   2.774
10867TIP3   OH232477   8.522   5.494   2.438
10867TIP3    H132478   8.555   5.542   2.361
10867TIP3    H232479   8.491   5.563   2.497
10868TIP3   OH232480   9.112   5.662   2.650
10868TIP3    H132481   9.173   5.702   2.588
10868TIP3    H232482   9.153   5.677   2.736
10869TIP3   OH232483   8.218   7.045   2.199
10869TIP3    H132484   8.129   7.015   2.180
10869TIP3    H232485   8.214   7.140   2.184
10870TIP3   OH232486   8.641   5.619   2.208
10870TIP3    H132487   8.686   5.557   2.151
10870TIP3    H232488   8.712   5.677   2.239
10871TIP3   OH232489   9.116   5.843   2.270
10871TIP3    H132490   9.168   5.801   2.339
10871TIP3    H232491   9.122   5.937   2.288
10872TIP3   OH232492   9.022   7.206   1.841
10872TIP3    H132493   9.106   7.233   1.801
10872TIP3    H232494   8.993   7.132   1.787
10873TIP3   OH232495   8.913   5.933   3.667
10873TIP3    H132496   8.869   5.852   3.693
10873TIP3    H232497   9.001   5.926   3.704
10874TIP3   OH232498   9.137   5.910   3.834
10874TIP3    H132499   9.204   5.872   3.778
10874TIP3    H232500   9.118   5.841   3.898
10875TIP3   OH232501   8.292   6.994   1.928
10875TIP3    H132502   8.291   6.997   2.023
10875TIP3    H232503   8.382   6.969   1.905
10876TIP3   OH232504   0.421   7.478   4.572
10876TIP3    H132505   0.498   7.433   4.609
10876TIP3    H232506   0.420   7.562   4.617
10877TIP3   OH232507   0.958   6.723   4.952
10877TIP3    H132508   0.968   6.811   4.989
10877TIP3    H232509   0.995   6.729   4.864
10878TIP3   OH232510   0.333   6.949   4.933
10878TIP3    H132511   0.333   6.896   5.014
10878TIP3    H232512   0.281   6.898   4.871
10879TIP3   OH232513   0.407   6.755   4.608
10879TIP3    H132514   0.460   6.706   4.671
10879TIP3    H232515   0.441   6.728   4.522
10880TIP3   OH232516   0.989   6.944   5.133
10880TIP3    H132517   0.897   6.971   5.133
10880TIP3    H232518   1.023   6.978   5.216
10881TIP3   OH232519   0.562   6.631   4.815
10881TIP3    H132520   0.476   6.628   4.858
10881TIP3    H232521   0.602   6.712   4.847
10882TIP3   OH232522   0.772   6.626   5.136
10882TIP3    H132523   0.678   6.623   5.115
10882TIP3    H232524   0.814   6.655   5.055
10883TIP3   OH232525   0.290   7.509   4.328
10883TIP3    H132526   0.216   7.549   4.374
10883TIP3    H232527   0.351   7.485   4.397
10884TIP3   OH232528   0.825   7.326   4.975
10884TIP3    H132529   0.734   7.354   4.965
10884TIP3    H232530   0.851   7.301   4.886
10885TIP3   OH232531   0.306   7.109   4.336
10885TIP3    H132532   0.249   7.092   4.411
10885TIP3    H232533   0.394   7.091   4.367
10886TIP3   OH232534   0.478   7.281   5.186
10886TIP3    H132535   0.499   7.327   5.267
10886TIP3    H232536   0.472   7.189   5.212
10887TIP3   OH232537   0.223   6.921   4.148
10887TIP3    H132538   0.248   6.987   4.212
10887TIP3    H232539   0.177   6.969   4.079
10888TIP3   OH232540   0.627   6.175   4.223
10888TIP3    H132541   0.547   6.203   4.267
10888TIP3    H232542   0.657   6.252   4.175
10889TIP3   OH232543   0.428   7.566   3.785
10889TIP3    H132544   0.426   7.661   3.773
10889TIP3    H232545   0.516   7.540   3.758
10890TIP3   OH232546   0.868   7.976   5.168
10890TIP3    H132547   0.866   7.881   5.171
10890TIP3    H232548   0.787   8.003   5.212
10891TIP3   OH232549   0.714   7.111   5.412
10891TIP3    H132550   0.663   7.120   5.492
10891TIP3    H232551   0.734   7.018   5.406
10892TIP3   OH232552   0.298   6.332   5.489
10892TIP3    H132553   0.390   6.357   5.500
10892TIP3    H232554   0.251   6.415   5.483
10893TIP3   OH232555   0.467   6.790   5.403
10893TIP3    H132556   0.516   6.823   5.479
10893TIP3    H232557   0.455   6.867   5.348
10894TIP3   OH232558   0.157   7.081   3.921
10894TIP3    H132559   0.083   7.141   3.913
10894TIP3    H232560   0.225   7.132   3.966
10895TIP3   OH232561   0.160   6.795   4.783
10895TIP3    H132562   0.182   6.809   4.691
10895TIP3    H232563   0.188   6.706   4.801
10896TIP3   OH232564   0.498   6.561   5.156
10896TIP3    H132565   0.448   6.541   5.235
10896TIP3    H232566   0.473   6.492   5.094
10897TIP3   OH232567   0.560   7.404   4.948
10897TIP3    H132568   0.568   7.499   4.949
10897TIP3    H232569   0.524   7.381   5.034
10898TIP3   OH232570   0.103   6.527   4.263
10898TIP3    H132571   0.035   6.533   4.196
10898TIP3    H232572   0.177   6.575   4.226
10899TIP3   OH232573   0.325   6.673   4.195
10899TIP3    H132574   0.385   6.690   4.267
10899TIP3    H232575   0.290   6.760   4.172
10900TIP3   OH232576   0.630   6.825   4.116
10900TIP3    H132577   0.586   6.772   4.049
10900TIP3    H232578   0.618   6.915   4.087
10901TIP3   OH232579   0.857   7.679   5.185
10901TIP3    H132580   0.768   7.696   5.154
10901TIP3    H232581   0.905   7.652   5.106
10902TIP3   OH232582   0.326   7.603   4.075
10902TIP3    H132583   0.318   7.562   4.161
10902TIP3    H232584   0.375   7.539   4.023
10903TIP3   OH232585   0.316   7.222   4.902
10903TIP3    H132586   0.335   7.131   4.924
10903TIP3    H232587   0.402   7.263   4.893
10904TIP3   OH232588   0.433   7.840   3.729
10904TIP3    H132589   0.506   7.901   3.727
10904TIP3    H232590   0.360   7.888   3.689
10905TIP3   OH232591   0.309   7.242   4.085
10905TIP3    H132592   0.282   7.217   4.173
10905TIP3    H232593   0.400   7.269   4.095
10906TIP3   OH232594   0.310   6.576   5.360
10906TIP3    H132595   0.362   6.648   5.397
10906TIP3    H232596   0.220   6.607   5.363
10907TIP3   OH232597   0.308   6.514   4.447
10907TIP3    H132598   0.228   6.509   4.395
10907TIP3    H232599   0.278   6.533   4.536
10908TIP3   OH232600   0.762   6.855   5.316
10908TIP3    H132601   0.746   6.810   5.399
10908TIP3    H232602   0.779   6.785   5.253
10909TIP3   OH232603   0.512   7.026   4.736
10909TIP3    H132604   0.439   7.004   4.793
10909TIP3    H232605   0.587   6.980   4.773
10910TIP3   OH232606   0.363   8.014   4.647
10910TIP3    H132607   0.365   7.972   4.561
10910TIP3    H232608   0.454   8.037   4.665
10911TIP3   OH232609   0.430   7.136   3.775
10911TIP3    H132610   0.388   7.079   3.711
10911TIP3    H232611   0.371   7.211   3.783
10912TIP3   OH232612   0.582   7.133   5.658
10912TIP3    H132613   0.496   7.098   5.681
10912TIP3    H232614   0.582   7.223   5.692
10913TIP3   OH232615   0.541   7.434   5.408
10913TIP3    H132616   0.506   7.521   5.387
10913TIP3    H232617   0.634   7.440   5.386
10914TIP3   OH232618   0.363   6.951   5.650
10914TIP3    H132619   0.297   6.890   5.617
10914TIP3    H232620   0.423   6.896   5.701
10915TIP3   OH232621   0.505   6.693   5.749
10915TIP3    H132622   0.560   6.624   5.711
10915TIP3    H232623   0.458   6.649   5.821
10916TIP3   OH232624   0.632   8.070   4.676
10916TIP3    H132625   0.663   8.060   4.766
10916TIP3    H232626   0.712   8.072   4.623
10917TIP3   OH232627   0.682   8.030   4.949
10917TIP3    H132628   0.649   7.940   4.947
10917TIP3    H232629   0.759   8.027   5.005
10918TIP3   OH232630   0.726   7.785   5.570
10918TIP3    H132631   0.652   7.816   5.623
10918TIP3    H232632   0.780   7.863   5.557
10919TIP3   OH232633   0.577   7.295   4.129
10919TIP3    H132634   0.633   7.366   4.098
10919TIP3    H232635   0.625   7.257   4.203
10920TIP3   OH232636   0.720   7.155   4.320
10920TIP3    H132637   0.658   7.113   4.380
10920TIP3    H232638   0.788   7.191   4.377
10921TIP3   OH232639   0.593   7.063   3.983
10921TIP3    H132640   0.530   7.078   3.913
10921TIP3    H232641   0.585   7.140   4.040
10922TIP3   OH232642   0.529   6.699   3.894
10922TIP3    H132643   0.561   6.741   3.814
10922TIP3    H232644   0.542   6.606   3.880
10923TIP3   OH232645   0.534   7.010   4.463
10923TIP3    H132646   0.538   6.915   4.449
10923TIP3    H232647   0.526   7.020   4.558
10924TIP3   OH232648   0.805   7.456   5.345
10924TIP3    H132649   0.865   7.384   5.328
10924TIP3    H232650   0.830   7.524   5.282
10925TIP3   OH232651   0.950   7.220   5.329
10925TIP3    H132652   0.866   7.181   5.354
10925TIP3    H232653   1.016   7.156   5.357
10926TIP3   OH232654   0.525   6.422   3.898
10926TIP3    H132655   0.601   6.406   3.954
10926TIP3    H232656   0.450   6.407   3.955
10927TIP3   OH232657   0.541   6.734   4.364
10927TIP3    H132658   0.583   6.649   4.377
10927TIP3    H232659   0.580   6.768   4.283
10928TIP3   OH232660   0.681   6.871   4.898
10928TIP3    H132661   0.758   6.883   4.843
10928TIP3    H232662   0.691   6.936   4.968
10929TIP3   OH232663   0.729   7.082   5.073
10929TIP3    H132664   0.665   7.135   5.121
10929TIP3    H232665   0.787   7.145   5.032
10930TIP3   OH232666   1.194   6.624   5.656
10930TIP3    H132667   1.256   6.567   5.610
10930TIP3    H232668   1.162   6.684   5.588
10931TIP3   OH232669   0.642   6.477   4.393
10931TIP3    H132670   0.678   6.455   4.479
10931TIP3    H232671   0.570   6.414   4.381
10932TIP3   OH232672   1.049   6.766   5.466
10932TIP3    H132673   0.985   6.797   5.530
10932TIP3    H232674   1.006   6.693   5.422
10933TIP3   OH232675   0.726   6.381   4.071
10933TIP3    H132676   0.789   6.322   4.029
10933TIP3    H232677   0.771   6.465   4.075
10934TIP3   OH232678   0.958   6.522   5.360
10934TIP3    H132679   0.866   6.533   5.338
10934TIP3    H232680   0.978   6.431   5.340
10935TIP3   OH232681   0.113   6.444   4.976
10935TIP3    H132682   0.025   6.446   5.013
10935TIP3    H232683   0.123   6.355   4.943
10936TIP3   OH232684   0.656   6.370   4.842
10936TIP3    H132685   0.720   6.381   4.772
10936TIP3    H232686   0.609   6.454   4.846
10937TIP3   OH232687   0.790   6.399   4.612
10937TIP3    H132688   0.860   6.342   4.582
10937TIP3    H232689   0.826   6.488   4.605
10938TIP3   OH232690   0.342   6.346   4.759
10938TIP3    H132691   0.273   6.282   4.772
10938TIP3    H232692   0.378   6.361   4.846
10939TIP3   OH232693   0.428   6.291   4.370
10939TIP3    H132694   0.383   6.364   4.413
10939TIP3    H232695   0.406   6.214   4.423
10940TIP3   OH232696   0.392   7.871   4.063
10940TIP3    H132697   0.376   7.777   4.071
10940TIP3    H232698   0.305   7.909   4.054
10941TIP3   OH232699   0.693   6.480   5.738
10941TIP3    H132700   0.701   6.524   5.823
10941TIP3    H232701   0.781   6.481   5.702
10942TIP3   OH232702   0.618   8.031   5.259
10942TIP3    H132703   0.550   7.979   5.215
10942TIP3    H232704   0.569   8.090   5.316
10943TIP3   OH232705   1.873   7.425   4.017
10943TIP3    H132706   1.841   7.512   3.991
10943TIP3    H232707   1.801   7.366   3.995
10944TIP3   OH232708   1.869   7.417   4.448
10944TIP3    H132709   1.922   7.401   4.526
10944TIP3    H232710   1.824   7.334   4.431
10945TIP3   OH232711   1.173   7.298   4.804
10945TIP3    H132712   1.205   7.233   4.866
10945TIP3    H232713   1.242   7.364   4.800
10946TIP3   OH232714   2.134   7.726   4.122
10946TIP3    H132715   2.123   7.658   4.189
10946TIP3    H232716   2.155   7.805   4.171
10947TIP3   OH232717   1.166   7.696   4.458
10947TIP3    H132718   1.148   7.604   4.474
10947TIP3    H232719   1.261   7.702   4.458
10948TIP3   OH232720   0.859   6.921   4.249
10948TIP3    H132721   0.827   7.007   4.273
10948TIP3    H232722   0.785   6.879   4.205
10949TIP3   OH232723   0.943   7.231   4.463
10949TIP3    H132724   0.993   7.155   4.491
10949TIP3    H232725   1.008   7.301   4.454
10950TIP3   OH232726   1.800   8.149   4.140
10950TIP3    H132727   1.825   8.084   4.074
10950TIP3    H232728   1.803   8.101   4.223
10951TIP3   OH232729   1.684   7.641   4.446
10951TIP3    H132730   1.729   7.560   4.423
10951TIP3    H232731   1.752   7.698   4.480
10952TIP3   OH232732   2.711   6.958   4.471
10952TIP3    H132733   2.726   7.042   4.514
10952TIP3    H232734   2.732   6.974   4.379
10953TIP3   OH232735   2.078   7.126   4.486
10953TIP3    H132736   2.109   7.040   4.516
10953TIP3    H232737   2.045   7.110   4.398
10954TIP3   OH232738   1.442   6.782   4.440
10954TIP3    H132739   1.420   6.855   4.383
10954TIP3    H232740   1.385   6.711   4.411
10955TIP3   OH232741   2.133   6.885   4.082
10955TIP3    H132742   2.195   6.880   4.154
10955TIP3    H232743   2.184   6.920   4.009
10956TIP3   OH232744   1.079   7.010   4.560
10956TIP3    H132745   1.161   6.993   4.606
10956TIP3    H232746   1.083   6.954   4.483
10957TIP3   OH232747   1.493   7.202   4.368
10957TIP3    H132748   1.585   7.184   4.382
10957TIP3    H232749   1.456   7.118   4.340
10958TIP3   OH232750   2.763   7.182   4.630
10958TIP3    H132751   2.673   7.214   4.628
10958TIP3    H232752   2.799   7.216   4.712
10959TIP3   OH232753   1.421   6.789   4.893
10959TIP3    H132754   1.372   6.829   4.821
10959TIP3    H232755   1.367   6.805   4.971
10960TIP3   OH232756   1.768   7.642   3.880
10960TIP3    H132757   1.727   7.610   3.799
10960TIP3    H232758   1.715   7.717   3.906
10961TIP3   OH232759   1.517   7.565   4.654
10961TIP3    H132760   1.461   7.635   4.690
10961TIP3    H232761   1.565   7.607   4.583
10962TIP3   OH232762   2.287   6.910   4.306
10962TIP3    H132763   2.243   6.888   4.388
10962TIP3    H232764   2.342   6.985   4.328
10963TIP3   OH232765   1.320   6.901   4.660
10963TIP3    H132766   1.372   6.977   4.686
10963TIP3    H232767   1.370   6.860   4.590
10964TIP3   OH232768   1.358   7.760   4.766
10964TIP3    H132769   1.347   7.851   4.737
10964TIP3    H232770   1.280   7.743   4.819
10965TIP3   OH232771   0.743   7.486   4.017
10965TIP3    H132772   0.710   7.518   3.933
10965TIP3    H232773   0.769   7.565   4.064
10966TIP3   OH232774   2.166   7.971   4.263
10966TIP3    H132775   2.078   7.964   4.301
10966TIP3    H232776   2.166   8.056   4.220
10967TIP3   OH232777   2.512   6.846   4.639
10967TIP3    H132778   2.427   6.867   4.599
10967TIP3    H232779   2.577   6.874   4.574
10968TIP3   OH232780   1.760   6.479   4.632
10968TIP3    H132781   1.754   6.387   4.658
10968TIP3    H232782   1.682   6.520   4.671
10969TIP3   OH232783   1.882   8.003   3.918
10969TIP3    H132784   1.935   7.925   3.908
10969TIP3    H232785   1.938   8.075   3.888
10970TIP3   OH232786   2.017   7.772   3.877
10970TIP3    H132787   1.943   7.711   3.876
10970TIP3    H232788   2.067   7.748   3.955
10971TIP3   OH232789   2.406   7.860   4.603
10971TIP3    H132790   2.387   7.784   4.548
10971TIP3    H232791   2.391   7.936   4.546
10972TIP3   OH232792   1.697   7.261   3.874
10972TIP3    H132793   1.613   7.304   3.857
10972TIP3    H232794   1.743   7.263   3.790
10973TIP3   OH232795   1.657   7.082   3.557
10973TIP3    H132796   1.722   7.128   3.609
10973TIP3    H232797   1.705   7.011   3.515
10974TIP3   OH232798   2.583   7.522   4.473
10974TIP3    H132799   2.498   7.566   4.472
10974TIP3    H232800   2.617   7.534   4.385
10975TIP3   OH232801   2.056   7.350   3.829
10975TIP3    H132802   2.002   7.380   3.901
10975TIP3    H232803   2.140   7.327   3.869
10976TIP3   OH232804   2.284   7.381   4.786
10976TIP3    H132805   2.281   7.465   4.831
10976TIP3    H232806   2.203   7.377   4.735
10977TIP3   OH232807   1.286   7.335   4.235
10977TIP3    H132808   1.248   7.273   4.173
10977TIP3    H232809   1.362   7.289   4.271
10978TIP3   OH232810   1.432   7.756   4.378
10978TIP3    H132811   1.408   7.741   4.286
10978TIP3    H232812   1.519   7.718   4.386
10979TIP3   OH232813   1.399   7.326   4.597
10979TIP3    H132814   1.438   7.292   4.516
10979TIP3    H232815   1.445   7.408   4.613
10980TIP3   OH232816   1.925   7.968   4.391
10980TIP3    H132817   1.917   8.049   4.441
10980TIP3    H232818   1.913   7.898   4.455
10981TIP3   OH232819   1.557   7.858   4.935
10981TIP3    H132820   1.497   7.917   4.981
10981TIP3    H232821   1.500   7.806   4.878
10982TIP3   OH232822   1.883   7.214   3.661
10982TIP3    H132823   1.944   7.271   3.708
10982TIP3    H232824   1.913   7.217   3.570
10983TIP3   OH232825   1.323   7.430   5.057
10983TIP3    H132826   1.319   7.521   5.086
10983TIP3    H232827   1.233   7.397   5.069
10984TIP3   OH232828   1.635   7.879   3.921
10984TIP3    H132829   1.715   7.930   3.932
10984TIP3    H232830   1.576   7.937   3.872
10985TIP3   OH232831   1.353   8.020   5.024
10985TIP3    H132832   1.322   8.028   4.934
10985TIP3    H232833   1.275   8.001   5.075
10986TIP3   OH232834   2.393   6.441   3.727
10986TIP3    H132835   2.317   6.461   3.782
10986TIP3    H232836   2.402   6.516   3.669
10987TIP3   OH232837   1.155   7.174   4.040
10987TIP3    H132838   1.077   7.222   4.012
10987TIP3    H232839   1.123   7.087   4.064
10988TIP3   OH232840   2.220   7.811   3.284
10988TIP3    H132841   2.214   7.904   3.263
10988TIP3    H232842   2.310   7.787   3.262
10989TIP3   OH232843   0.921   7.599   4.933
10989TIP3    H132844   0.833   7.633   4.921
10989TIP3    H232845   0.911   7.504   4.924
10990TIP3   OH232846   0.753   7.762   4.614
10990TIP3    H132847   0.845   7.769   4.637
10990TIP3    H232848   0.706   7.766   4.697
10991TIP3   OH232849   2.643   8.223   4.680
10991TIP3    H132850   2.648   8.128   4.694
10991TIP3    H232851   2.562   8.249   4.724
10992TIP3   OH232852   1.743   8.004   4.796
10992TIP3    H132853   1.736   8.094   4.828
10992TIP3    H232854   1.676   7.956   4.845
10993TIP3   OH232855   1.523   8.081   3.754
10993TIP3    H132856   1.479   8.069   3.669
10993TIP3    H232857   1.489   8.164   3.787
10994TIP3   OH232858   0.953   7.968   4.139
10994TIP3    H132859   1.002   7.962   4.221
10994TIP3    H232860   0.908   7.883   4.132
10995TIP3   OH232861   1.730   8.031   3.387
10995TIP3    H132862   1.782   7.958   3.352
10995TIP3    H232863   1.763   8.044   3.476
10996TIP3   OH232864   1.778   8.068   3.655
10996TIP3    H132865   1.691   8.068   3.694
10996TIP3    H232866   1.835   8.032   3.724
10997TIP3   OH232867   2.531   7.330   4.936
10997TIP3    H132868   2.446   7.342   4.895
10997TIP3    H232869   2.548   7.236   4.930
10998TIP3   OH232870   1.140   7.768   4.935
10998TIP3    H132871   1.185   7.751   5.018
10998TIP3    H232872   1.068   7.705   4.933
10999TIP3   OH232873   1.522   6.571   4.755
10999TIP3    H132874   1.438   6.539   4.721
10999TIP3    H232875   1.501   6.652   4.800
11000TIP3   OH232876   2.062   6.697   4.959
11000TIP3    H132877   2.132   6.673   5.021
11000TIP3    H232878   1.981   6.682   5.008
11001TIP3   OH232879   2.280   7.115   4.874
11001TIP3    H132880   2.241   7.110   4.961
11001TIP3    H232881   2.266   7.206   4.847
11002TIP3   OH232882   1.956   7.178   3.394
11002TIP3    H132883   1.915   7.187   3.308
11002TIP3    H232884   2.039   7.226   3.385
11003TIP3   OH232885   1.669   6.616   3.723
11003TIP3    H132886   1.634   6.623   3.812
11003TIP3    H232887   1.634   6.534   3.690
11004TIP3   OH232888   1.457   7.115   4.765
11004TIP3    H132889   1.411   7.125   4.848
11004TIP3    H232890   1.433   7.193   4.715
11005TIP3   OH232891   1.347   6.983   4.280
11005TIP3    H132892   1.258   6.959   4.308
11005TIP3    H232893   1.354   6.950   4.191
11006TIP3   OH232894   1.817   7.057   4.013
11006TIP3    H132895   1.770   7.131   3.973
11006TIP3    H232896   1.875   7.025   3.945
11007TIP3   OH232897   2.005   7.324   5.086
11007TIP3    H132898   1.978   7.256   5.148
11007TIP3    H232899   2.097   7.340   5.107
11008TIP3   OH232900   1.989   7.072   4.233
11008TIP3    H132901   1.918   7.092   4.172
11008TIP3    H232902   2.036   6.999   4.194
11009TIP3   OH232903   1.291   7.121   4.987
11009TIP3    H132904   1.262   7.181   5.055
11009TIP3    H232905   1.283   7.034   5.027
11010TIP3   OH232906   1.337   6.595   3.702
11010TIP3    H132907   1.328   6.599   3.797
11010TIP3    H232908   1.259   6.640   3.669
11011TIP3   OH232909   0.903   6.636   4.556
11011TIP3    H132910   0.972   6.680   4.607
11011TIP3    H232911   0.942   6.625   4.469
11012TIP3   OH232912   0.832   6.635   4.070
11012TIP3    H132913   0.866   6.667   3.987
11012TIP3    H232914   0.766   6.700   4.096
11013TIP3   OH232915   2.035   7.328   4.660
11013TIP3    H132916   2.058   7.261   4.597
11013TIP3    H232917   1.990   7.281   4.730
11014TIP3   OH232918   1.707   6.770   4.333
11014TIP3    H132919   1.628   6.770   4.388
11014TIP3    H232920   1.779   6.761   4.394
11015TIP3   OH232921   1.111   6.855   4.339
11015TIP3    H132922   1.024   6.862   4.299
11015TIP3    H232923   1.138   6.765   4.322
11016TIP3   OH232924   1.351   6.860   4.035
11016TIP3    H132925   1.446   6.871   4.025
11016TIP3    H232926   1.316   6.879   3.948
11017TIP3   OH232927   2.142   6.862   4.541
11017TIP3    H132928   2.127   6.878   4.634
11017TIP3    H232929   2.074   6.800   4.516
11018TIP3   OH232930   1.240   6.885   3.787
11018TIP3    H132931   1.176   6.837   3.734
11018TIP3    H232932   1.293   6.932   3.723
11019TIP3   OH232933   2.352   8.565   4.770
11019TIP3    H132934   2.352   8.584   4.676
11019TIP3    H232935   2.430   8.610   4.803
11020TIP3   OH232936   1.289   7.683   5.171
11020TIP3    H132937   1.371   7.701   5.218
11020TIP3    H232938   1.220   7.700   5.235
11021TIP3   OH232939   1.756   7.147   4.442
11021TIP3    H132940   1.827   7.098   4.400
11021TIP3    H232941   1.750   7.110   4.530
11022TIP3   OH232942   1.249   6.609   4.322
11022TIP3    H132943   1.223   6.533   4.374
11022TIP3    H232944   1.270   6.572   4.236
11023TIP3   OH232945   1.724   7.058   4.708
11023TIP3    H132946   1.637   7.091   4.732
11023TIP3    H232947   1.785   7.109   4.760
11024TIP3   OH232948   1.459   7.392   3.820
11024TIP3    H132949   1.383   7.340   3.794
11024TIP3    H232950   1.430   7.439   3.899
11025TIP3   OH232951   2.346   7.657   4.426
11025TIP3    H132952   2.383   7.706   4.352
11025TIP3    H232953   2.268   7.615   4.390
11026TIP3   OH232954   1.922   6.720   3.726
11026TIP3    H132955   1.829   6.698   3.724
11026TIP3    H232956   1.924   6.815   3.741
11027TIP3   OH232957   1.873   7.738   4.844
11027TIP3    H132958   1.924   7.724   4.924
11027TIP3    H232959   1.831   7.823   4.856
11028TIP3   OH232960   1.980   6.985   3.796
11028TIP3    H132961   2.075   6.988   3.809
11028TIP3    H232962   1.960   7.063   3.745
11029TIP3   OH232963   1.160   7.408   4.471
11029TIP3    H132964   1.200   7.393   4.385
11029TIP3    H232965   1.224   7.376   4.534
11030TIP3   OH232966   1.611   7.554   3.662
11030TIP3    H132967   1.563   7.636   3.659
11030TIP3    H232968   1.557   7.496   3.716
11031TIP3   OH232969   1.078   7.317   5.106
11031TIP3    H132970   1.049   7.293   5.194
11031TIP3    H232971   0.997   7.318   5.054
11032TIP3   OH232972   1.776   7.485   5.126
11032TIP3    H132973   1.705   7.426   5.099
11032TIP3    H232974   1.856   7.441   5.097
11033TIP3   OH232975   2.012   8.032   4.724
11033TIP3    H132976   1.918   8.014   4.728
11033TIP3    H232977   2.033   8.066   4.811
11034TIP3   OH232978   2.391   7.068   3.609
11034TIP3    H132979   2.334   7.022   3.547
11034TIP3    H232980   2.397   7.157   3.575
11035TIP3   OH232981   2.650   7.943   4.695
11035TIP3    H132982   2.556   7.927   4.688
11035TIP3    H232983   2.685   7.914   4.611
11036TIP3   OH232984   2.134   7.882   3.550
11036TIP3    H132985   2.110   7.813   3.611
11036TIP3    H232986   2.156   7.836   3.469
11037TIP3   OH232987   2.120   7.521   4.320
11037TIP3    H132988   2.031   7.500   4.348
11037TIP3    H232989   2.154   7.440   4.282
11038TIP3   OH232990   1.275   7.758   4.143
11038TIP3    H132991   1.262   7.832   4.083
11038TIP3    H232992   1.195   7.754   4.195
11039TIP3   OH232993   0.830   7.048   3.846
11039TIP3    H132994   0.876   7.129   3.870
11039TIP3    H232995   0.750   7.049   3.898
11040TIP3   OH232996   1.346   7.517   4.031
11040TIP3    H132997   1.333   7.606   4.065
11040TIP3    H232998   1.327   7.460   4.105
11041TIP3   OH232999   1.561   8.080   4.591
11041TIP3    H133000   1.597   8.152   4.540
11041TIP3    H233001   1.635   8.047   4.642
11042TIP3   OH233002   1.183   7.973   3.989
11042TIP3    H133003   1.097   7.981   4.029
11042TIP3    H233004   1.222   8.060   3.998
11043TIP3   OH233005   1.910   7.749   4.569
11043TIP3    H133006   1.895   7.744   4.664
11043TIP3    H233007   1.990   7.699   4.555
11044TIP3   OH233008   1.902   7.620   3.435
11044TIP3    H133009   1.956   7.593   3.509
11044TIP3    H233010   1.817   7.578   3.449
11045TIP3   OH233011   2.167   8.233   4.610
11045TIP3    H133012   2.102   8.168   4.634
11045TIP3    H233013   2.126   8.284   4.540
11046TIP3   OH233014   2.221   8.083   3.242
11046TIP3    H133015   2.261   8.153   3.191
11046TIP3    H233016   2.143   8.124   3.281
11047TIP3   OH233017   1.255   6.863   5.102
11047TIP3    H133018   1.160   6.878   5.108
11047TIP3    H233019   1.276   6.813   5.181
11048TIP3   OH233020   2.084   7.532   3.619
11048TIP3    H133021   2.067   7.480   3.698
11048TIP3    H233022   2.179   7.541   3.616
11049TIP3   OH233023   0.982   7.977   4.760
11049TIP3    H133024   1.038   7.922   4.814
11049TIP3    H233025   0.996   8.066   4.792
11050TIP3   OH233026   1.257   7.585   3.454
11050TIP3    H133027   1.267   7.493   3.427
11050TIP3    H233028   1.246   7.581   3.549
11051TIP3   OH233029   1.201   7.598   3.728
11051TIP3    H133030   1.255   7.572   3.803
11051TIP3    H233031   1.199   7.693   3.732
11052TIP3   OH233032   0.929   7.295   3.932
11052TIP3    H133033   0.866   7.346   3.983
11052TIP3    H233034   0.950   7.351   3.857
11053TIP3   OH233035   2.093   6.922   4.804
11053TIP3    H133036   2.169   6.971   4.837
11053TIP3    H233037   2.084   6.847   4.863
11054TIP3   OH233038   1.984   6.668   3.995
11054TIP3    H133039   1.963   6.687   3.903
11054TIP3    H233040   2.028   6.747   4.027
11055TIP3   OH233041   1.465   7.780   3.653
11055TIP3    H133042   1.383   7.804   3.695
11055TIP3    H233043   1.490   7.857   3.602
11056TIP3   OH233044   1.630   6.868   4.084
11056TIP3    H133045   1.692   6.936   4.059
11056TIP3    H233046   1.654   6.846   4.174
11057TIP3   OH233047   1.934   7.165   4.858
11057TIP3    H133048   1.956   7.208   4.940
11057TIP3    H233049   1.982   7.082   4.861
11058TIP3   OH233050   1.797   6.561   4.169
11058TIP3    H133051   1.774   6.638   4.222
11058TIP3    H233052   1.867   6.591   4.112
11059TIP3   OH233053   1.219   7.870   3.738
11059TIP3    H133054   1.200   7.944   3.679
11059TIP3    H233055   1.205   7.907   3.826
11060TIP3   OH233056   1.310   6.587   3.982
11060TIP3    H133057   1.299   6.678   4.009
11060TIP3    H233058   1.405   6.572   3.987
11061TIP3   OH233059   2.542   7.053   4.841
11061TIP3    H133060   2.449   7.066   4.856
11061TIP3    H233061   2.547   6.987   4.772
11062TIP3   OH233062   2.211   7.263   4.232
11062TIP3    H133063   2.134   7.207   4.243
11062TIP3    H233064   2.278   7.225   4.289
11063TIP3   OH233065   0.957   7.468   3.715
11063TIP3    H133066   1.030   7.529   3.725
11063TIP3    H233067   0.986   7.406   3.648
11064TIP3   OH233068   0.863   6.771   3.836
11064TIP3    H133069   0.871   6.866   3.846
11064TIP3    H233070   0.816   6.760   3.753
11065TIP3   OH233071   2.195   8.238   4.187
11065TIP3    H133072   2.153   8.287   4.116
11065TIP3    H233073   2.289   8.247   4.171
11066TIP3   OH233074   1.261   6.489   4.707
11066TIP3    H133075   1.235   6.454   4.621
11066TIP3    H233076   1.255   6.413   4.766
11067TIP3   OH233077   0.792   7.739   4.132
11067TIP3    H133078   0.753   7.774   4.211
11067TIP3    H233079   0.742   7.779   4.060
11068TIP3   OH233080   0.974   8.261   5.184
11068TIP3    H133081   1.056   8.259   5.233
11068TIP3    H233082   0.948   8.169   5.177
11069TIP3   OH233083   1.455   8.185   5.219
11069TIP3    H133084   1.545   8.155   5.232
11069TIP3    H233085   1.422   8.132   5.147
11070TIP3   OH233086   1.410   7.784   3.337
11070TIP3    H133087   1.364   7.715   3.386
11070TIP3    H233088   1.485   7.739   3.298
11071TIP3   OH233089   2.070   8.127   4.974
11071TIP3    H133090   2.084   8.056   5.037
11071TIP3    H233091   2.145   8.185   4.987
11072TIP3   OH233092   1.854   7.825   3.259
11072TIP3    H133093   1.887   7.760   3.322
11072TIP3    H233094   1.913   7.818   3.184
11073TIP3   OH233095   1.079   7.688   5.358
11073TIP3    H133096   1.106   7.596   5.370
11073TIP3    H233097   0.995   7.683   5.313
11074TIP3   OH233098   1.077   7.278   3.559
11074TIP3    H133099   1.126   7.255   3.637
11074TIP3    H233100   1.144   7.293   3.492
11075TIP3   OH233101   1.709   7.760   5.143
11075TIP3    H133102   1.664   7.780   5.060
11075TIP3    H233103   1.744   7.672   5.130
11076TIP3   OH233104   1.641   7.502   3.395
11076TIP3    H133105   1.621   7.512   3.488
11076TIP3    H233106   1.619   7.411   3.376
11077TIP3   OH233107   2.181   7.808   4.757
11077TIP3    H133108   2.259   7.835   4.708
11077TIP3    H233109   2.117   7.877   4.741
11078TIP3   OH233110   1.206   7.442   5.380
11078TIP3    H133111   1.282   7.418   5.328
11078TIP3    H233112   1.240   7.456   5.468
11079TIP3   OH233113   1.245   7.222   3.773
11079TIP3    H133114   1.224   7.194   3.863
11079TIP3    H233115   1.293   7.148   3.736
11080TIP3   OH233116   1.574   7.311   5.028
11080TIP3    H133117   1.487   7.350   5.036
11080TIP3    H233118   1.604   7.336   4.941
11081TIP3   OH233119   1.388   7.041   3.616
11081TIP3    H133120   1.357   7.045   3.525
11081TIP3    H233121   1.482   7.053   3.611
11082TIP3   OH233122   2.058   7.679   5.100
11082TIP3    H133123   2.130   7.642   5.048
11082TIP3    H233124   2.056   7.625   5.179
11083TIP3   OH233125   2.174   7.323   3.304
11083TIP3    H133126   2.166   7.284   3.216
11083TIP3    H233127   2.152   7.415   3.291
11084TIP3   OH233128   1.667   7.077   5.138
11084TIP3    H133129   1.670   7.007   5.072
11084TIP3    H233130   1.634   7.153   5.090
11085TIP3   OH233131   1.678   6.880   4.932
11085TIP3    H133132   1.705   6.920   4.849
11085TIP3    H233133   1.588   6.852   4.917
11086TIP3   OH233134   1.684   7.402   4.797
11086TIP3    H133135   1.771   7.443   4.791
11086TIP3    H233136   1.627   7.460   4.747
11087TIP3   OH233137   2.271   7.364   5.185
11087TIP3    H133138   2.320   7.283   5.197
11087TIP3    H233139   2.339   7.432   5.182
11088TIP3   OH233140   2.302   7.628   4.921
11088TIP3    H133141   2.249   7.690   4.871
11088TIP3    H233142   2.391   7.643   4.890
11089TIP3   OH233143   1.554   7.156   5.382
11089TIP3    H133144   1.484   7.093   5.401
11089TIP3    H233145   1.582   7.134   5.293
11090TIP3   OH233146   1.796   6.649   5.039
11090TIP3    H133147   1.757   6.729   5.004
11090TIP3    H233148   1.729   6.582   5.025
11091TIP3   OH233149   1.922   7.114   5.243
11091TIP3    H133150   1.913   7.100   5.337
11091TIP3    H233151   1.836   7.094   5.207
11092TIP3   OH233152   2.167   7.066   5.113
11092TIP3    H133153   2.089   7.068   5.168
11092TIP3    H233154   2.238   7.046   5.173
11093TIP3   OH233155   2.405   7.038   5.260
11093TIP3    H133156   2.419   6.943   5.268
11093TIP3    H233157   2.400   7.069   5.351
11094TIP3   OH233158   1.387   6.936   5.443
11094TIP3    H133159   1.391   6.847   5.407
11094TIP3    H233160   1.427   6.928   5.530
11095TIP3   OH233161   1.861   6.621   5.304
11095TIP3    H133162   1.930   6.554   5.297
11095TIP3    H233163   1.832   6.634   5.213
11096TIP3   OH233164   1.960   6.834   5.448
11096TIP3    H133165   1.929   6.763   5.393
11096TIP3    H233166   1.888   6.897   5.450
11097TIP3   OH233167   1.224   8.084   3.560
11097TIP3    H133168   1.310   8.058   3.528
11097TIP3    H233169   1.178   8.117   3.482
11098TIP3   OH233170   0.684   7.482   3.707
11098TIP3    H133171   0.779   7.489   3.715
11098TIP3    H233172   0.669   7.392   3.677
11099TIP3   OH233173   0.563   8.044   4.193
11099TIP3    H133174   0.508   7.984   4.142
11099TIP3    H233175   0.607   7.987   4.256
11100TIP3   OH233176   0.718   7.885   4.364
11100TIP3    H133177   0.709   7.822   4.436
11100TIP3    H233178   0.773   7.954   4.400
11101TIP3   OH233179   2.467   8.279   4.167
11101TIP3    H133180   2.495   8.301   4.256
11101TIP3    H233181   2.524   8.330   4.110
11102TIP3   OH233182   2.505   8.298   4.445
11102TIP3    H133183   2.453   8.218   4.442
11102TIP3    H233184   2.570   8.281   4.514
11103TIP3   OH233185   2.536   8.021   5.019
11103TIP3    H133186   2.464   8.029   5.082
11103TIP3    H233187   2.584   8.103   5.027
11104TIP3   OH233188   2.363   7.534   3.627
11104TIP3    H133189   2.419   7.605   3.598
11104TIP3    H233190   2.408   7.497   3.703
11105TIP3   OH233191   2.492   7.393   3.830
11105TIP3    H133192   2.425   7.358   3.888
11105TIP3    H233193   2.557   7.431   3.889
11106TIP3   OH233194   2.531   7.794   4.267
11106TIP3    H133195   2.584   7.725   4.227
11106TIP3    H233196   2.537   7.867   4.205
11107TIP3   OH233197   2.339   8.079   4.453
11107TIP3    H133198   2.274   8.125   4.505
11107TIP3    H233199   2.288   8.038   4.382
11108TIP3   OH233200   2.389   7.307   3.474
11108TIP3    H133201   2.314   7.308   3.415
11108TIP3    H233202   2.378   7.386   3.528
11109TIP3   OH233203   2.239   6.950   3.413
11109TIP3    H133204   2.191   6.985   3.338
11109TIP3    H233205   2.236   6.855   3.402
11110TIP3   OH233206   2.284   7.257   3.964
11110TIP3    H133207   2.288   7.162   3.951
11110TIP3    H233208   2.263   7.267   4.057
11111TIP3   OH233209   0.915   7.265   4.733
11111TIP3    H133210   0.906   7.268   4.638
11111TIP3    H233211   1.008   7.280   4.749
11112TIP3   OH233212   2.561   7.671   4.828
11112TIP3    H133213   2.628   7.604   4.814
11112TIP3    H233214   2.579   7.737   4.762
11113TIP3   OH233215   2.740   7.461   4.818
11113TIP3    H133216   2.667   7.417   4.860
11113TIP3    H233217   2.816   7.405   4.838
11114TIP3   OH233218   2.208   6.676   3.376
11114TIP3    H133219   2.271   6.655   3.444
11114TIP3    H233220   2.124   6.644   3.410
11115TIP3   OH233221   2.272   6.977   3.851
11115TIP3    H133222   2.318   6.895   3.864
11115TIP3    H233223   2.312   7.016   3.773
11116TIP3   OH233224   2.425   7.143   4.376
11116TIP3    H133225   2.506   7.159   4.328
11116TIP3    H233226   2.439   7.183   4.462
11117TIP3   OH233227   2.500   7.291   4.603
11117TIP3    H133228   2.430   7.319   4.662
11117TIP3    H233229   2.531   7.373   4.563
11118TIP3   OH233230   1.127   7.012   5.377
11118TIP3    H133231   1.221   7.010   5.393
11118TIP3    H233232   1.095   6.929   5.412
11119TIP3   OH233233   2.965   6.890   5.142
11119TIP3    H133234   3.031   6.833   5.102
11119TIP3    H233235   2.929   6.940   5.069
11120TIP3   OH233236   2.390   6.729   3.903
11120TIP3    H133237   2.436   6.715   3.986
11120TIP3    H233238   2.328   6.657   3.898
11121TIP3   OH233239   1.112   6.722   4.717
11121TIP3    H133240   1.163   6.641   4.722
11121TIP3    H233241   1.177   6.790   4.698
11122TIP3   OH233242   0.890   6.989   4.766
11122TIP3    H133243   0.950   6.968   4.694
11122TIP3    H233244   0.888   7.085   4.768
11123TIP3   OH233245   2.813   7.016   4.953
11123TIP3    H133246   2.743   7.054   5.005
11123TIP3    H233247   2.770   6.952   4.896
11124TIP3   OH233248   2.430   6.639   3.539
11124TIP3    H133249   2.481   6.578   3.485
11124TIP3    H233250   2.484   6.717   3.545
11125TIP3   OH233251   0.909   6.501   4.295
11125TIP3    H133252   0.821   6.483   4.329
11125TIP3    H233253   0.894   6.559   4.220
11126TIP3   OH233254   2.019   8.207   3.808
11126TIP3    H133255   2.078   8.194   3.734
11126TIP3    H233256   2.066   8.268   3.865
11127TIP3   OH233257   1.094   6.538   5.109
11127TIP3    H133258   1.046   6.548   5.191
11127TIP3    H233259   1.048   6.595   5.047
11128TIP3   OH233260   1.142   7.981   5.197
11128TIP3    H133261   1.048   7.976   5.180
11128TIP3    H233262   1.148   7.985   5.293
11129TIP3   OH233263   1.336   8.033   4.741
11129TIP3    H133264   1.279   8.101   4.706
11129TIP3    H233265   1.420   8.047   4.698
11130TIP3   OH233266   1.737   8.266   4.878
11130TIP3    H133267   1.774   8.260   4.966
11130TIP3    H233268   1.798   8.322   4.830
11131TIP3   OH233269   1.925   8.425   4.754
11131TIP3    H133270   1.990   8.370   4.710
11131TIP3    H233271   1.977   8.486   4.807
11132TIP3   OH233272   2.724   6.761   4.841
11132TIP3    H133273   2.639   6.756   4.798
11132TIP3    H233274   2.758   6.671   4.836
11133TIP3   OH233275   0.991   8.265   4.790
11133TIP3    H133276   0.905   8.298   4.767
11133TIP3    H233277   1.023   8.325   4.858
11134TIP3   OH233278   1.215   8.250   4.631
11134TIP3    H133279   1.134   8.259   4.681
11134TIP3    H233280   1.194   8.284   4.544
11135TIP3   OH233281   1.637   8.287   4.423
11135TIP3    H133282   1.564   8.297   4.362
11135TIP3    H233283   1.642   8.371   4.468
11136TIP3   OH233284   1.902   8.231   4.475
11136TIP3    H133285   1.810   8.248   4.454
11136TIP3    H233286   1.949   8.301   4.430
11137TIP3   OH233287   2.113   8.405   4.390
11137TIP3    H133288   2.101   8.489   4.346
11137TIP3    H233289   2.139   8.345   4.320
11138TIP3   OH233290   0.896   8.050   4.508
11138TIP3    H133291   0.918   8.028   4.598
11138TIP3    H233292   0.970   8.018   4.457
11139TIP3   OH233293   1.106   7.946   4.367
11139TIP3    H133294   1.118   7.859   4.406
11139TIP3    H233295   1.191   7.988   4.374
11140TIP3   OH233296   1.373   8.030   4.390
11140TIP3    H133297   1.395   7.938   4.374
11140TIP3    H233298   1.427   8.054   4.466
11141TIP3   OH233299   1.931   6.677   4.474
11141TIP3    H133300   1.893   6.606   4.527
11141TIP3    H233301   2.000   6.634   4.423
11142TIP3   OH233302   2.434   6.601   4.363
11142TIP3    H133303   2.470   6.651   4.290
11142TIP3    H233304   2.342   6.624   4.365
11143TIP3   OH233305   2.548   6.678   4.125
11143TIP3    H133306   2.617   6.616   4.101
11143TIP3    H233307   2.588   6.764   4.112
11144TIP3   OH233308   1.187   6.379   4.464
11144TIP3    H133309   1.099   6.343   4.469
11144TIP3    H233310   1.244   6.303   4.459
11145TIP3   OH233311   1.008   6.292   4.129
11145TIP3    H133312   1.040   6.337   4.052
11145TIP3    H233313   0.985   6.362   4.190
11146TIP3   OH233314   1.654   6.421   4.372
11146TIP3    H133315   1.703   6.468   4.303
11146TIP3    H233316   1.695   6.450   4.453
11147TIP3   OH233317   2.145   6.557   4.345
11147TIP3    H133318   2.166   6.520   4.260
11147TIP3    H233319   2.153   6.484   4.406
11148TIP3   OH233320   2.205   6.518   3.912
11148TIP3    H133321   2.125   6.565   3.938
11148TIP3    H233322   2.195   6.431   3.951
11149TIP3   OH233323   0.653   7.851   3.930
11149TIP3    H133324   0.559   7.843   3.941
11149TIP3    H233325   0.664   7.923   3.867
11150TIP3   OH233326   1.106   6.416   3.894
11150TIP3    H133327   1.151   6.355   3.836
11150TIP3    H233328   1.175   6.473   3.927
11151TIP3   OH233329   1.585   6.616   3.987
11151TIP3    H133330   1.644   6.563   4.040
11151TIP3    H233331   1.600   6.706   4.017
11152TIP3   OH233332   1.473   8.006   3.481
11152TIP3    H133333   1.558   8.031   3.446
11152TIP3    H233334   1.443   7.935   3.424
11153TIP3   OH233335   2.169   8.151   3.581
11153TIP3    H133336   2.163   8.056   3.577
11153TIP3    H233337   2.127   8.182   3.501
11154TIP3   OH233338   1.403   6.663   5.353
11154TIP3    H133339   1.371   6.593   5.410
11154TIP3    H233340   1.494   6.674   5.378
11155TIP3   OH233341   1.648   6.672   5.480
11155TIP3    H133342   1.725   6.652   5.427
11155TIP3    H233343   1.643   6.602   5.545
11156TIP3   OH233344   0.773   7.846   3.536
11156TIP3    H133345   0.771   7.869   3.629
11156TIP3    H233346   0.856   7.800   3.524
11157TIP3   OH233347   2.470   6.766   5.267
11157TIP3    H133348   2.486   6.737   5.356
11157TIP3    H233349   2.556   6.760   5.224
11158TIP3   OH233350   2.391   8.291   4.768
11158TIP3    H133351   2.315   8.261   4.718
11158TIP3    H233352   2.376   8.385   4.779
11159TIP3   OH233353   3.665   7.682   3.508
11159TIP3    H133354   3.633   7.769   3.483
11159TIP3    H233355   3.594   7.623   3.482
11160TIP3   OH233356   3.664   7.674   3.936
11160TIP3    H133357   3.718   7.657   4.013
11160TIP3    H233358   3.618   7.592   3.919
11161TIP3   OH233359   2.957   7.531   4.278
11161TIP3    H133360   2.998   7.481   4.350
11161TIP3    H233361   3.031   7.557   4.223
11162TIP3   OH233362   3.933   7.978   3.611
11162TIP3    H133363   3.921   7.912   3.679
11162TIP3    H233364   3.953   8.059   3.659
11163TIP3   OH233365   2.954   7.956   3.956
11163TIP3    H133366   2.934   7.863   3.965
11163TIP3    H233367   3.049   7.961   3.952
11164TIP3   OH233368   2.634   7.165   3.743
11164TIP3    H133369   2.598   7.249   3.770
11164TIP3    H233370   2.560   7.118   3.705
11165TIP3   OH233371   2.718   7.482   3.973
11165TIP3    H133372   2.769   7.405   3.999
11165TIP3    H233373   2.784   7.548   3.951
11166TIP3   OH233374   3.599   8.395   3.626
11166TIP3    H133375   3.623   8.333   3.557
11166TIP3    H233376   3.606   8.345   3.707
11167TIP3   OH233377   3.473   7.895   3.937
11167TIP3    H133378   3.519   7.815   3.911
11167TIP3    H233379   3.542   7.953   3.970
11168TIP3   OH233380   4.502   7.218   3.960
11168TIP3    H133381   4.520   7.301   4.005
11168TIP3    H233382   4.516   7.238   3.867
11169TIP3   OH233383   3.874   7.382   3.972
11169TIP3    H133384   3.904   7.296   4.001
11169TIP3    H233385   3.837   7.367   3.885
11170TIP3   OH233386   3.232   7.039   3.930
11170TIP3    H133387   3.210   7.112   3.872
11170TIP3    H233388   3.175   6.968   3.901
11171TIP3   OH233389   3.926   7.143   3.572
11171TIP3    H133390   3.989   7.137   3.644
11171TIP3    H233391   3.977   7.180   3.499
11172TIP3   OH233392   2.856   7.258   4.063
11172TIP3    H133393   2.939   7.240   4.106
11172TIP3    H233394   2.859   7.207   3.982
11173TIP3   OH233395   3.272   7.456   3.879
11173TIP3    H133396   3.367   7.442   3.886
11173TIP3    H233397   3.238   7.374   3.845
11174TIP3   OH233398   4.559   7.439   4.119
11174TIP3    H133399   4.470   7.472   4.116
11174TIP3    H233400   4.595   7.473   4.201
11175TIP3   OH233401   3.212   7.047   4.383
11175TIP3    H133402   3.162   7.083   4.310
11175TIP3    H233403   3.157   7.063   4.460
11176TIP3   OH233404   3.561   7.900   3.372
11176TIP3    H133405   3.521   7.868   3.291
11176TIP3    H233406   3.508   7.976   3.397
11177TIP3   OH233407   3.302   7.820   4.142
11177TIP3    H133408   3.250   7.892   4.178
11177TIP3    H233409   3.352   7.860   4.071
11178TIP3   OH233410   4.083   7.167   3.794
11178TIP3    H133411   4.039   7.145   3.876
11178TIP3    H233412   4.138   7.242   3.816
11179TIP3   OH233413   3.105   7.154   4.151
11179TIP3    H133414   3.160   7.229   4.174
11179TIP3    H233415   3.152   7.111   4.080
11180TIP3   OH233416   3.149   8.021   4.255
11180TIP3    H133417   3.138   8.111   4.226
11180TIP3    H233418   3.071   8.002   4.307
11181TIP3   OH233419   2.530   7.725   3.511
11181TIP3    H133420   2.497   7.748   3.424
11181TIP3    H233421   2.554   7.809   3.550
11182TIP3   OH233422   3.963   8.225   3.751
11182TIP3    H133423   3.874   8.221   3.787
11182TIP3    H233424   3.965   8.306   3.701
11183TIP3   OH233425   4.304   7.106   4.127
11183TIP3    H133426   4.219   7.126   4.086
11183TIP3    H233427   4.369   7.133   4.062
11184TIP3   OH233428   3.554   6.736   4.120
11184TIP3    H133429   3.548   6.644   4.146
11184TIP3    H233430   3.477   6.777   4.158
11185TIP3   OH233431   3.680   8.258   3.398
11185TIP3    H133432   3.735   8.180   3.388
11185TIP3    H233433   3.736   8.330   3.369
11186TIP3   OH233434   3.813   8.023   3.367
11186TIP3    H133435   3.736   7.965   3.369
11186TIP3    H233436   3.862   7.999   3.446
11187TIP3   OH233437   4.206   8.113   4.094
11187TIP3    H133438   4.185   8.039   4.037
11187TIP3    H233439   4.190   8.190   4.039
11188TIP3   OH233440   3.491   7.520   3.362
11188TIP3    H133441   3.406   7.562   3.344
11188TIP3    H233442   3.536   7.520   3.277
11189TIP3   OH233443   3.456   7.334   3.047
11189TIP3    H133444   3.522   7.381   3.097
11189TIP3    H233445   3.504   7.265   3.002
11190TIP3   OH233446   4.378   7.779   3.960
11190TIP3    H133447   4.294   7.823   3.959
11190TIP3    H233448   4.414   7.792   3.872
11191TIP3   OH233449   3.850   7.606   3.322
11191TIP3    H133450   3.796   7.636   3.395
11191TIP3    H233451   3.934   7.585   3.362
11192TIP3   OH233452   4.080   7.637   4.272
11192TIP3    H133453   4.076   7.721   4.318
11192TIP3    H233454   3.999   7.633   4.221
11193TIP3   OH233455   3.076   7.588   3.725
11193TIP3    H133456   3.040   7.526   3.661
11193TIP3    H233457   3.148   7.541   3.766
11194TIP3   OH233458   3.220   8.008   3.870
11194TIP3    H133459   3.195   7.996   3.778
11194TIP3    H233460   3.308   7.971   3.876
11195TIP3   OH233461   3.169   7.585   4.101
11195TIP3    H133462   3.208   7.548   4.022
11195TIP3    H233463   3.217   7.666   4.116
11196TIP3   OH233464   3.720   8.223   3.877
11196TIP3    H133465   3.706   8.302   3.929
11196TIP3    H233466   3.708   8.151   3.938
11197TIP3   OH233467   3.347   8.119   4.425
11197TIP3    H133468   3.286   8.176   4.472
11197TIP3    H233469   3.291   8.067   4.367
11198TIP3   OH233470   3.680   7.469   3.152
11198TIP3    H133471   3.740   7.527   3.200
11198TIP3    H233472   3.710   7.473   3.061
11199TIP3   OH233473   3.101   7.665   4.570
11199TIP3    H133474   3.106   7.758   4.589
11199TIP3    H233475   3.007   7.647   4.564
11200TIP3   OH233476   3.430   8.140   3.408
11200TIP3    H133477   3.512   8.189   3.414
11200TIP3    H233478   3.371   8.199   3.360
11201TIP3   OH233479   3.139   8.278   4.514
11201TIP3    H133480   3.112   8.287   4.422
11201TIP3    H233481   3.057   8.262   4.561
11202TIP3   OH233482   4.193   6.703   3.214
11202TIP3    H133483   4.116   6.722   3.268
11202TIP3    H233484   4.202   6.780   3.158
11203TIP3   OH233485   2.950   7.428   3.526
11203TIP3    H133486   2.872   7.475   3.497
11203TIP3    H233487   2.919   7.339   3.546
11204TIP3   OH233488   4.044   8.069   2.774
11204TIP3    H133489   4.044   8.163   2.755
11204TIP3    H233490   4.134   8.041   2.758
11205TIP3   OH233491   2.735   7.838   4.459
11205TIP3    H133492   2.664   7.818   4.397
11205TIP3    H233493   2.769   7.752   4.484
11206TIP3   OH233494   2.582   8.026   4.115
11206TIP3    H133495   2.673   8.050   4.133
11206TIP3    H233496   2.531   8.101   4.143
11207TIP3   OH233497   4.437   8.488   4.161
11207TIP3    H133498   4.443   8.393   4.172
11207TIP3    H233499   4.356   8.512   4.206
11208TIP3   OH233500   3.537   8.260   4.287
11208TIP3    H133501   3.529   8.351   4.316
11208TIP3    H233502   3.468   8.214   4.334
11209TIP3   OH233503   3.317   8.344   3.242
11209TIP3    H133504   3.276   8.329   3.156
11209TIP3    H233505   3.280   8.427   3.272
11210TIP3   OH233506   2.748   8.213   3.621
11210TIP3    H133507   2.796   8.207   3.704
11210TIP3    H233508   2.703   8.129   3.614
11211TIP3   OH233509   3.519   8.295   2.865
11211TIP3    H133510   3.569   8.223   2.828
11211TIP3    H233511   3.553   8.305   2.953
11212TIP3   OH233512   3.571   8.324   3.136
11212TIP3    H133513   3.484   8.330   3.177
11212TIP3    H233514   3.627   8.287   3.205
11213TIP3   OH233515   4.326   7.587   4.424
11213TIP3    H133516   4.241   7.599   4.381
11213TIP3    H233517   4.342   7.493   4.419
11214TIP3   OH233518   2.932   8.028   4.427
11214TIP3    H133519   2.983   8.015   4.506
11214TIP3    H233520   2.861   7.965   4.433
11215TIP3   OH233521   3.316   6.828   4.243
11215TIP3    H133522   3.232   6.794   4.212
11215TIP3    H233523   3.293   6.909   4.289
11216TIP3   OH233524   3.857   6.955   4.445
11216TIP3    H133525   3.926   6.930   4.507
11216TIP3    H233526   3.775   6.939   4.493
11217TIP3   OH233527   4.077   7.372   4.363
11217TIP3    H133528   4.038   7.367   4.450
11217TIP3    H233529   4.063   7.462   4.335
11218TIP3   OH233530   3.760   7.438   2.889
11218TIP3    H133531   3.714   7.446   2.805
11218TIP3    H233532   3.842   7.485   2.876
11219TIP3   OH233533   3.466   6.871   3.213
11219TIP3    H133534   3.429   6.877   3.301
11219TIP3    H233535   3.431   6.789   3.178
11220TIP3   OH233536   3.254   7.365   4.250
11220TIP3    H133537   3.209   7.371   4.334
11220TIP3    H233538   3.232   7.447   4.205
11221TIP3   OH233539   3.133   7.241   3.772
11221TIP3    H133540   3.044   7.217   3.797
11221TIP3    H233541   3.142   7.209   3.682
11222TIP3   OH233542   3.611   7.315   3.499
11222TIP3    H133543   3.565   7.388   3.459
11222TIP3    H233544   3.669   7.282   3.430
11223TIP3   OH233545   3.798   7.580   4.571
11223TIP3    H133546   3.772   7.512   4.634
11223TIP3    H233547   3.890   7.596   4.591
11224TIP3   OH233548   3.780   7.330   3.721
11224TIP3    H133549   3.711   7.350   3.657
11224TIP3    H233550   3.827   7.256   3.682
11225TIP3   OH233551   3.094   7.380   4.473
11225TIP3    H133552   3.105   7.445   4.542
11225TIP3    H233553   3.076   7.298   4.519
11226TIP3   OH233554   3.133   6.850   3.189
11226TIP3    H133555   3.125   6.855   3.284
11226TIP3    H233556   3.055   6.893   3.156
11227TIP3   OH233557   2.685   6.897   4.049
11227TIP3    H133558   2.756   6.933   4.103
11227TIP3    H233559   2.725   6.880   3.964
11228TIP3   OH233560   2.580   6.872   3.553
11228TIP3    H133561   2.626   6.909   3.477
11228TIP3    H233562   2.517   6.940   3.577
11229TIP3   OH233563   3.831   7.584   4.147
11229TIP3    H133564   3.854   7.517   4.083
11229TIP3    H233565   3.786   7.536   4.217
11230TIP3   OH233566   3.501   7.028   3.822
11230TIP3    H133567   3.422   7.027   3.877
11230TIP3    H233568   3.573   7.018   3.884
11231TIP3   OH233569   2.893   7.117   3.830
11231TIP3    H133570   2.806   7.121   3.792
11231TIP3    H233571   2.922   7.027   3.816
11232TIP3   OH233572   3.146   7.119   3.525
11232TIP3    H133573   3.241   7.129   3.516
11232TIP3    H233574   3.111   7.136   3.437
11233TIP3   OH233575   3.938   7.119   4.030
11233TIP3    H133576   3.922   7.136   4.123
11233TIP3    H233577   3.870   7.057   4.004
11234TIP3   OH233578   3.037   7.140   3.274
11234TIP3    H133579   2.974   7.091   3.222
11234TIP3    H233580   3.090   7.187   3.210
11235TIP3   OH233581   4.147   8.821   4.248
11235TIP3    H133582   4.141   8.838   4.154
11235TIP3    H233583   4.226   8.867   4.276
11236TIP3   OH233584   3.087   7.934   4.658
11236TIP3    H133585   3.167   7.953   4.705
11236TIP3    H233586   3.017   7.944   4.722
11237TIP3   OH233587   3.546   7.407   3.929
11237TIP3    H133588   3.612   7.357   3.881
11237TIP3    H233589   3.543   7.367   4.016
11238TIP3   OH233590   3.033   6.868   3.818
11238TIP3    H133591   3.007   6.792   3.870
11238TIP3    H233592   3.054   6.831   3.732
11239TIP3   OH233593   3.520   7.310   4.192
11239TIP3    H133594   3.433   7.342   4.217
11239TIP3    H233595   3.581   7.361   4.245
11240TIP3   OH233596   3.250   7.648   3.307
11240TIP3    H133597   3.174   7.596   3.282
11240TIP3    H233598   3.223   7.692   3.388
11241TIP3   OH233599   4.143   7.914   3.914
11241TIP3    H133600   4.178   7.964   3.841
11241TIP3    H233601   4.064   7.872   3.878
11242TIP3   OH233602   3.719   6.975   3.215
11242TIP3    H133603   3.625   6.954   3.213
11242TIP3    H233604   3.722   7.070   3.228
11243TIP3   OH233605   3.665   7.996   4.329
11243TIP3    H133606   3.716   7.985   4.409
11243TIP3    H233607   3.626   8.083   4.338
11244TIP3   OH233608   3.776   7.240   3.284
11244TIP3    H133609   3.871   7.246   3.296
11244TIP3    H233610   3.754   7.318   3.232
11245TIP3   OH233611   2.939   7.666   3.952
11245TIP3    H133612   2.978   7.650   3.866
11245TIP3    H233613   3.006   7.639   4.015
11246TIP3   OH233614   3.406   7.810   3.153
11246TIP3    H133615   3.358   7.893   3.148
11246TIP3    H233616   3.350   7.753   3.205
11247TIP3   OH233617   2.825   7.604   4.589
11247TIP3    H133618   2.828   7.577   4.681
11247TIP3    H233619   2.749   7.557   4.553
11248TIP3   OH233620   3.569   7.740   4.611
11248TIP3    H133621   3.499   7.680   4.586
11248TIP3    H233622   3.649   7.696   4.582
11249TIP3   OH233623   3.808   8.286   4.216
11249TIP3    H133624   3.713   8.272   4.217
11249TIP3    H233625   3.828   8.320   4.303
11250TIP3   OH233626   4.202   7.322   3.108
11250TIP3    H133627   4.161   7.266   3.042
11250TIP3    H233628   4.203   7.409   3.069
11251TIP3   OH233629   4.449   8.209   4.181
11251TIP3    H133630   4.355   8.189   4.177
11251TIP3    H233631   4.483   8.177   4.098
11252TIP3   OH233632   3.928   8.125   3.027
11252TIP3    H133633   3.888   8.051   3.073
11252TIP3    H233634   3.958   8.089   2.944
11253TIP3   OH233635   3.915   7.777   3.810
11253TIP3    H133636   3.826   7.755   3.837
11253TIP3    H233637   3.949   7.696   3.771
11254TIP3   OH233638   3.073   8.011   3.631
11254TIP3    H133639   3.066   8.085   3.571
11254TIP3    H233640   2.985   8.004   3.670
11255TIP3   OH233641   2.625   7.298   3.331
11255TIP3    H133642   2.670   7.380   3.355
11255TIP3    H233643   2.545   7.299   3.384
11256TIP3   OH233644   3.148   7.769   3.526
11256TIP3    H133645   3.135   7.858   3.558
11256TIP3    H233646   3.124   7.713   3.599
11257TIP3   OH233647   3.354   8.341   4.080
11257TIP3    H133648   3.387   8.415   4.029
11257TIP3    H233649   3.430   8.308   4.127
11258TIP3   OH233650   2.982   8.226   3.479
11258TIP3    H133651   2.895   8.233   3.516
11258TIP3    H233652   3.018   8.315   3.485
11259TIP3   OH233653   3.703   8.004   4.054
11259TIP3    H133654   3.688   8.000   4.149
11259TIP3    H233655   3.782   7.953   4.040
11260TIP3   OH233656   3.705   7.879   2.908
11260TIP3    H133657   3.752   7.845   2.984
11260TIP3    H233658   3.620   7.834   2.911
11261TIP3   OH233659   3.960   8.487   4.098
11261TIP3    H133660   3.893   8.423   4.122
11261TIP3    H233661   3.924   8.534   4.023
11262TIP3   OH233662   4.051   8.346   2.743
11262TIP3    H133663   4.102   8.421   2.712
11262TIP3    H233664   3.967   8.383   2.768
11263TIP3   OH233665   3.040   7.126   4.589
11263TIP3    H133666   2.945   7.136   4.594
11263TIP3    H233667   3.063   7.078   4.668
11264TIP3   OH233668   3.869   7.778   3.103
11264TIP3    H133669   3.850   7.732   3.185
11264TIP3    H233670   3.964   7.780   3.097
11265TIP3   OH233671   2.781   8.229   4.237
11265TIP3    H133672   2.834   8.175   4.296
11265TIP3    H233673   2.791   8.318   4.271
11266TIP3   OH233674   3.051   7.842   2.939
11266TIP3    H133675   3.062   7.751   2.911
11266TIP3    H233676   3.038   7.837   3.033
11267TIP3   OH233677   2.993   7.853   3.212
11267TIP3    H133678   3.055   7.828   3.281
11267TIP3    H233679   2.991   7.949   3.216
11268TIP3   OH233680   2.723   7.547   3.417
11268TIP3    H133681   2.660   7.596   3.469
11268TIP3    H233682   2.744   7.605   3.344
11269TIP3   OH233683   3.888   7.182   4.292
11269TIP3    H133684   3.965   7.228   4.326
11269TIP3    H233685   3.879   7.106   4.350
11270TIP3   OH233686   3.780   6.924   3.483
11270TIP3    H133687   3.759   6.943   3.392
11270TIP3    H233688   3.823   7.003   3.515
11271TIP3   OH233689   3.259   8.037   3.143
11271TIP3    H133690   3.176   8.063   3.183
11271TIP3    H233691   3.285   8.113   3.091
11272TIP3   OH233692   3.425   7.124   3.572
11272TIP3    H133693   3.487   7.193   3.546
11272TIP3    H233694   3.450   7.103   3.662
11273TIP3   OH233695   3.728   7.420   4.343
11273TIP3    H133696   3.751   7.463   4.426
11273TIP3    H233697   3.777   7.338   4.344
11274TIP3   OH233698   3.592   6.818   3.658
11274TIP3    H133699   3.569   6.895   3.709
11274TIP3    H233700   3.662   6.848   3.600
11275TIP3   OH233701   3.011   8.124   3.227
11275TIP3    H133702   2.995   8.197   3.168
11275TIP3    H233703   3.001   8.162   3.315
11276TIP3   OH233704   3.103   6.846   3.468
11276TIP3    H133705   3.091   6.936   3.496
11276TIP3    H233706   3.197   6.830   3.475
11277TIP3   OH233707   4.339   7.309   4.333
11277TIP3    H133708   4.246   7.322   4.347
11277TIP3    H233709   4.344   7.245   4.262
11278TIP3   OH233710   4.006   7.519   3.719
11278TIP3    H133711   3.929   7.463   3.731
11278TIP3    H233712   4.072   7.480   3.777
11279TIP3   OH233713   2.749   7.724   3.201
11279TIP3    H133714   2.821   7.786   3.211
11279TIP3    H233715   2.779   7.662   3.135
11280TIP3   OH233716   2.652   7.020   3.333
11280TIP3    H133717   2.664   7.115   3.342
11280TIP3    H233718   2.599   7.010   3.254
11281TIP3   OH233719   3.991   8.485   3.655
11281TIP3    H133720   3.949   8.541   3.590
11281TIP3    H233721   4.084   8.501   3.644
11282TIP3   OH233722   3.055   6.741   4.202
11282TIP3    H133723   3.025   6.708   4.117
11282TIP3    H233724   3.047   6.665   4.260
11283TIP3   OH233725   2.581   7.986   3.603
11283TIP3    H133726   2.543   8.022   3.684
11283TIP3    H233727   2.533   8.031   3.533
11284TIP3   OH233728   2.771   8.526   4.671
11284TIP3    H133729   2.856   8.529   4.715
11284TIP3    H233730   2.748   8.433   4.670
11285TIP3   OH233731   3.251   8.440   4.706
11285TIP3    H133732   3.340   8.406   4.717
11285TIP3    H233733   3.214   8.387   4.636
11286TIP3   OH233734   3.202   8.045   2.828
11286TIP3    H133735   3.155   7.975   2.873
11286TIP3    H233736   3.277   8.001   2.787
11287TIP3   OH233737   3.863   8.381   4.467
11287TIP3    H133738   3.881   8.311   4.530
11287TIP3    H233739   3.938   8.441   4.476
11288TIP3   OH233740   3.644   8.087   2.740
11288TIP3    H133741   3.682   8.022   2.800
11288TIP3    H233742   3.699   8.083   2.662
11289TIP3   OH233743   2.881   7.937   4.847
11289TIP3    H133744   2.902   7.844   4.861
11289TIP3    H233745   2.794   7.937   4.809
11290TIP3   OH233746   2.870   7.536   3.044
11290TIP3    H133747   2.920   7.512   3.122
11290TIP3    H233748   2.937   7.550   2.977
11291TIP3   OH233749   3.504   8.017   4.628
11291TIP3    H133750   3.458   8.037   4.547
11291TIP3    H233751   3.539   7.929   4.614
11292TIP3   OH233752   3.457   7.756   2.889
11292TIP3    H133753   3.432   7.767   2.981
11292TIP3    H233754   3.432   7.666   2.868
11293TIP3   OH233755   3.977   8.063   4.244
11293TIP3    H133756   4.055   8.090   4.196
11293TIP3    H233757   3.914   8.133   4.230
11294TIP3   OH233758   2.995   7.683   4.860
11294TIP3    H133759   3.072   7.661   4.807
11294TIP3    H233760   3.030   7.700   4.948
11295TIP3   OH233761   3.038   7.476   3.259
11295TIP3    H133762   3.019   7.447   3.347
11295TIP3    H233763   3.088   7.405   3.219
11296TIP3   OH233764   3.363   7.566   4.518
11296TIP3    H133765   3.276   7.605   4.529
11296TIP3    H233766   3.391   7.594   4.431
11297TIP3   OH233767   3.185   7.297   3.104
11297TIP3    H133768   3.155   7.301   3.014
11297TIP3    H233769   3.280   7.308   3.099
11298TIP3   OH233770   3.856   7.936   4.589
11298TIP3    H133771   3.926   7.898   4.535
11298TIP3    H233772   3.853   7.881   4.667
11299TIP3   OH233773   3.982   7.575   2.793
11299TIP3    H133774   3.968   7.538   2.706
11299TIP3    H233775   3.964   7.669   2.782
11300TIP3   OH233776   3.462   7.332   4.623
11300TIP3    H133777   3.464   7.262   4.557
11300TIP3    H233778   3.429   7.408   4.576
11301TIP3   OH233779   3.471   7.135   4.418
11301TIP3    H133780   3.497   7.172   4.334
11301TIP3    H233781   3.380   7.107   4.405
11302TIP3   OH233782   3.471   7.659   4.287
11302TIP3    H133783   3.559   7.697   4.279
11302TIP3    H233784   3.415   7.718   4.236
11303TIP3   OH233785   4.066   7.620   4.668
11303TIP3    H133786   4.111   7.536   4.675
11303TIP3    H233787   4.136   7.685   4.663
11304TIP3   OH233788   4.096   7.884   4.409
11304TIP3    H133789   4.044   7.946   4.359
11304TIP3    H233790   4.186   7.898   4.379
11305TIP3   OH233791   3.349   7.411   4.869
11305TIP3    H133792   3.278   7.350   4.890
11305TIP3    H233793   3.376   7.387   4.780
11306TIP3   OH233794   3.592   6.905   4.525
11306TIP3    H133795   3.551   6.985   4.491
11306TIP3    H233796   3.525   6.837   4.512
11307TIP3   OH233797   3.717   7.370   4.728
11307TIP3    H133798   3.706   7.356   4.823
11307TIP3    H233799   3.631   7.349   4.691
11308TIP3   OH233800   3.965   7.327   4.604
11308TIP3    H133801   3.885   7.326   4.657
11308TIP3    H233802   4.035   7.303   4.664
11309TIP3   OH233803   4.203   7.294   4.750
11309TIP3    H133804   4.216   7.199   4.757
11309TIP3    H233805   4.198   7.323   4.841
11310TIP3   OH233806   3.179   7.192   4.930
11310TIP3    H133807   3.186   7.103   4.895
11310TIP3    H233808   3.217   7.186   5.018
11311TIP3   OH233809   3.657   6.876   4.790
11311TIP3    H133810   3.725   6.810   4.783
11311TIP3    H233811   3.627   6.890   4.701
11312TIP3   OH233812   3.756   7.090   4.934
11312TIP3    H133813   3.724   7.018   4.880
11312TIP3    H233814   3.683   7.153   4.936
11313TIP3   OH233815   3.013   8.333   3.050
11313TIP3    H133816   3.102   8.316   3.021
11313TIP3    H233817   2.970   8.375   2.975
11314TIP3   OH233818   2.476   7.728   3.219
11314TIP3    H133819   2.571   7.740   3.216
11314TIP3    H233820   2.461   7.642   3.180
11315TIP3   OH233821   2.388   8.290   3.678
11315TIP3    H133822   2.323   8.238   3.631
11315TIP3    H233823   2.432   8.226   3.735
11316TIP3   OH233824   2.527   8.122   3.849
11316TIP3    H133825   2.522   8.056   3.917
11316TIP3    H233826   2.578   8.193   3.888
11317TIP3   OH233827   4.260   8.545   3.650
11317TIP3    H133828   4.278   8.572   3.740
11317TIP3    H233829   4.314   8.602   3.596
11318TIP3   OH233830   4.275   8.568   3.932
11318TIP3    H133831   4.231   8.483   3.929
11318TIP3    H233832   4.346   8.557   3.994
11319TIP3   OH233833   4.336   8.275   4.506
11319TIP3    H133834   4.263   8.285   4.566
11319TIP3    H233835   4.383   8.358   4.511
11320TIP3   OH233836   4.148   7.780   3.128
11320TIP3    H133837   4.166   7.873   3.142
11320TIP3    H233838   4.197   7.735   3.197
11321TIP3   OH233839   4.292   7.643   3.320
11321TIP3    H133840   4.224   7.607   3.377
11321TIP3    H233841   4.356   7.682   3.379
11322TIP3   OH233842   4.328   8.056   3.758
11322TIP3    H133843   4.380   7.989   3.714
11322TIP3    H233844   4.334   8.133   3.702
11323TIP3   OH233845   4.133   8.331   3.944
11323TIP3    H133846   4.067   8.377   3.995
11323TIP3    H233847   4.084   8.291   3.872
11324TIP3   OH233848   4.197   7.561   2.965
11324TIP3    H133849   4.125   7.560   2.902
11324TIP3    H233850   4.182   7.640   3.017
11325TIP3   OH233851   4.077   7.188   2.902
11325TIP3    H133852   4.041   7.245   2.834
11325TIP3    H233853   4.035   7.104   2.888
11326TIP3   OH233854   4.082   7.514   3.453
11326TIP3    H133855   4.082   7.420   3.437
11326TIP3    H233856   4.060   7.523   3.545
11327TIP3   OH233857   2.694   7.574   4.229
11327TIP3    H133858   2.685   7.542   4.140
11327TIP3    H233859   2.788   7.568   4.247
11328TIP3   OH233860   4.354   7.925   4.315
11328TIP3    H133861   4.423   7.860   4.298
11328TIP3    H233862   4.363   7.988   4.243
11329TIP3   OH233863   4.535   7.716   4.305
11329TIP3    H133864   4.461   7.673   4.348
11329TIP3    H233865   4.611   7.661   4.327
11330TIP3   OH233866   3.978   6.935   2.878
11330TIP3    H133867   4.035   6.896   2.944
11330TIP3    H233868   3.891   6.900   2.898
11331TIP3   OH233869   4.067   7.238   3.343
11331TIP3    H133870   4.110   7.154   3.357
11331TIP3    H233871   4.111   7.275   3.266
11332TIP3   OH233872   4.222   7.400   3.863
11332TIP3    H133873   4.303   7.416   3.814
11332TIP3    H233874   4.237   7.440   3.948
11333TIP3   OH233875   4.297   7.548   4.090
11333TIP3    H133876   4.225   7.575   4.148
11333TIP3    H233877   4.327   7.629   4.049
11334TIP3   OH233878   2.918   7.254   4.863
11334TIP3    H133879   3.011   7.251   4.885
11334TIP3    H233880   2.882   7.175   4.903
11335TIP3   OH233881   4.762   7.141   4.631
11335TIP3    H133882   4.829   7.088   4.588
11335TIP3    H233883   4.724   7.193   4.560
11336TIP3   OH233884   4.177   6.987   3.401
11336TIP3    H133885   4.223   6.972   3.484
11336TIP3    H233886   4.116   6.914   3.393
11337TIP3   OH233887   2.896   6.969   4.215
11337TIP3    H133888   2.949   6.889   4.223
11337TIP3    H233889   2.960   7.038   4.198
11338TIP3   OH233890   2.670   7.227   4.277
11338TIP3    H133891   2.722   7.221   4.197
11338TIP3    H233892   2.702   7.306   4.320
11339TIP3   OH233893   4.610   7.265   4.440
11339TIP3    H133894   4.534   7.304   4.484
11339TIP3    H233895   4.572   7.198   4.383
11340TIP3   OH233896   4.220   6.901   3.022
11340TIP3    H133897   4.266   6.839   2.965
11340TIP3    H233898   4.226   6.985   2.975
11341TIP3   OH233899   2.659   6.741   3.779
11341TIP3    H133900   2.575   6.730   3.823
11341TIP3    H233901   2.639   6.795   3.703
11342TIP3   OH233902   3.811   8.470   3.293
11342TIP3    H133903   3.865   8.451   3.217
11342TIP3    H233904   3.863   8.530   3.346
11343TIP3   OH233905   2.885   6.788   4.606
11343TIP3    H133906   2.838   6.789   4.689
11343TIP3    H233907   2.831   6.841   4.547
11344TIP3   OH233908   2.919   8.247   4.683
11344TIP3    H133909   2.825   8.229   4.673
11344TIP3    H233910   2.934   8.239   4.777
11345TIP3   OH233911   3.128   8.295   4.230
11345TIP3    H133912   3.073   8.363   4.193
11345TIP3    H233913   3.213   8.307   4.188
11346TIP3   OH233914   3.531   8.524   4.368
11346TIP3    H133915   3.569   8.516   4.455
11346TIP3    H233916   3.594   8.576   4.318
11347TIP3   OH233917   3.720   8.677   4.239
11347TIP3    H133918   3.779   8.624   4.186
11347TIP3    H233919   3.779   8.732   4.292
11348TIP3   OH233920   4.521   7.013   4.327
11348TIP3    H133921   4.434   7.006   4.288
11348TIP3    H233922   4.558   6.925   4.322
11349TIP3   OH233923   2.779   8.515   4.268
11349TIP3    H133924   2.688   8.540   4.248
11349TIP3    H233925   2.805   8.577   4.336
11350TIP3   OH233926   3.009   8.511   4.113
11350TIP3    H133927   2.925   8.517   4.158
11350TIP3    H233928   2.990   8.536   4.023
11351TIP3   OH233929   3.426   8.549   3.913
11351TIP3    H133930   3.361   8.556   3.843
11351TIP3    H233931   3.433   8.638   3.947
11352TIP3   OH233932   3.681   8.475   3.979
11352TIP3    H133933   3.592   8.500   3.952
11352TIP3    H233934   3.738   8.534   3.929
11353TIP3   OH233935   3.885   8.622   3.868
11353TIP3    H133936   3.889   8.712   3.836
11353TIP3    H233937   3.918   8.569   3.795
11354TIP3   OH233938   2.695   8.310   3.986
11354TIP3    H133939   2.721   8.289   4.075
11354TIP3    H233940   2.768   8.280   3.931
11355TIP3   OH233941   2.902   8.201   3.849
11355TIP3    H133942   2.913   8.116   3.892
11355TIP3    H233943   2.988   8.243   3.854
11356TIP3   OH233944   3.169   8.283   3.879
11356TIP3    H133945   3.190   8.191   3.866
11356TIP3    H233946   3.224   8.310   3.953
11357TIP3   OH233947   3.727   6.934   3.963
11357TIP3    H133948   3.687   6.864   4.015
11357TIP3    H233949   3.795   6.891   3.912
11358TIP3   OH233950   4.228   6.857   3.855
11358TIP3    H133951   4.263   6.908   3.782
11358TIP3    H233952   4.134   6.876   3.855
11359TIP3   OH233953   4.342   6.934   3.617
11359TIP3    H133954   4.410   6.872   3.592
11359TIP3    H233955   4.382   7.020   3.604
11360TIP3   OH233956   2.965   6.639   3.961
11360TIP3    H133957   2.876   6.604   3.972
11360TIP3    H233958   3.020   6.561   3.952
11361TIP3   OH233959   2.783   6.548   3.611
11361TIP3    H133960   2.810   6.598   3.534
11361TIP3    H233961   2.748   6.614   3.671
11362TIP3   OH233962   3.451   6.676   3.859
11362TIP3    H133963   3.498   6.723   3.791
11362TIP3    H233964   3.491   6.705   3.941
11363TIP3   OH233965   3.941   6.813   3.834
11363TIP3    H133966   3.958   6.776   3.748
11363TIP3    H233967   3.949   6.739   3.894
11364TIP3   OH233968   3.999   6.773   3.399
11364TIP3    H133969   3.919   6.819   3.424
11364TIP3    H233970   3.989   6.686   3.436
11365TIP3   OH233971   2.454   8.107   3.395
11365TIP3    H133972   2.372   8.072   3.361
11365TIP3    H233973   2.464   8.192   3.351
11366TIP3   OH233974   2.893   6.679   3.375
11366TIP3    H133975   2.940   6.617   3.319
11366TIP3    H233976   2.962   6.734   3.412
11367TIP3   OH233977   3.378   6.872   3.476
11367TIP3    H133978   3.437   6.819   3.529
11367TIP3    H233979   3.393   6.962   3.505
11368TIP3   OH233980   3.267   8.266   2.973
11368TIP3    H133981   3.349   8.294   2.933
11368TIP3    H233982   3.236   8.195   2.916
11369TIP3   OH233983   3.955   8.395   3.068
11369TIP3    H133984   3.949   8.300   3.060
11369TIP3    H233985   3.921   8.428   2.985
11370TIP3   OH233986   3.196   6.921   4.842
11370TIP3    H133987   3.162   6.856   4.902
11370TIP3    H233988   3.288   6.931   4.867
11371TIP3   OH233989   3.442   6.928   4.967
11371TIP3    H133990   3.520   6.905   4.915
11371TIP3    H233991   3.436   6.859   5.033
11372TIP3   OH233992   2.571   8.104   3.026
11372TIP3    H133993   2.576   8.126   3.119
11372TIP3    H233994   2.653   8.058   3.008
11373TIP3   OH233995   4.265   7.022   4.752
11373TIP3    H133996   4.282   6.992   4.842
11373TIP3    H233997   4.350   7.016   4.709
11374TIP3   OH233998   4.184   8.548   4.255
11374TIP3    H133999   4.109   8.517   4.204
11374TIP3    H234000   4.172   8.643   4.261
11375TIP3   OH234001   5.454   7.934   2.992
11375TIP3    H134002   5.416   8.021   2.978
11375TIP3    H234003   5.384   7.874   2.967
11376TIP3   OH234004   5.457   7.925   3.427
11376TIP3    H134005   5.515   7.908   3.501
11376TIP3    H234006   5.414   7.841   3.410
11377TIP3   OH234007   4.755   7.791   3.766
11377TIP3    H134008   4.793   7.741   3.839
11377TIP3    H234009   4.830   7.819   3.714
11378TIP3   OH234010   5.734   8.235   3.089
11378TIP3    H134011   5.720   8.170   3.159
11378TIP3    H234012   5.750   8.316   3.136
11379TIP3   OH234013   4.760   8.190   3.439
11379TIP3    H134014   4.736   8.099   3.453
11379TIP3    H234015   4.856   8.191   3.441
11380TIP3   OH234016   4.438   7.417   3.231
11380TIP3    H134017   4.399   7.500   3.260
11380TIP3    H234018   4.366   7.371   3.188
11381TIP3   OH234019   4.515   7.735   3.462
11381TIP3    H134020   4.564   7.657   3.486
11381TIP3    H234021   4.582   7.801   3.444
11382TIP3   OH234022   5.387   8.660   3.104
11382TIP3    H134023   5.411   8.594   3.039
11382TIP3    H234024   5.391   8.614   3.188
11383TIP3   OH234025   5.288   8.148   3.449
11383TIP3    H134026   5.334   8.068   3.424
11383TIP3    H234027   5.358   8.209   3.474
11384TIP3   OH234028   6.302   7.468   3.440
11384TIP3    H134029   6.317   7.553   3.482
11384TIP3    H234030   6.334   7.479   3.351
11385TIP3   OH234031   5.667   7.633   3.457
11385TIP3    H134032   5.704   7.549   3.484
11385TIP3    H234033   5.633   7.617   3.369
11386TIP3   OH234034   5.025   7.315   3.421
11386TIP3    H134035   5.004   7.383   3.356
11386TIP3    H234036   4.976   7.238   3.391
11387TIP3   OH234037   5.726   7.398   3.054
11387TIP3    H134038   5.791   7.396   3.125
11387TIP3    H234039   5.774   7.434   2.980
11388TIP3   OH234040   4.653   7.509   3.539
11388TIP3    H134041   4.734   7.492   3.587
11388TIP3    H234042   4.663   7.459   3.457
11389TIP3   OH234043   5.071   7.713   3.361
11389TIP3    H134044   5.165   7.700   3.370
11389TIP3    H234045   5.039   7.630   3.325
11390TIP3   OH234046   6.353   7.687   3.608
11390TIP3    H134047   6.270   7.733   3.598
11390TIP3    H234048   6.395   7.728   3.683
11391TIP3   OH234049   5.008   7.303   3.870
11391TIP3    H134050   4.959   7.341   3.798
11391TIP3    H234051   4.954   7.318   3.947
11392TIP3   OH234052   5.297   8.141   2.896
11392TIP3    H134053   5.289   8.131   2.801
11392TIP3    H234054   5.262   8.228   2.915
11393TIP3   OH234055   5.101   8.074   3.638
11393TIP3    H134056   5.048   8.147   3.670
11393TIP3    H234057   5.160   8.114   3.574
11394TIP3   OH234058   5.884   7.428   3.276
11394TIP3    H134059   5.845   7.407   3.361
11394TIP3    H234060   5.942   7.502   3.294
11395TIP3   OH234061   4.899   7.417   3.643
11395TIP3    H134062   4.952   7.492   3.669
11395TIP3    H234063   4.947   7.378   3.570
11396TIP3   OH234064   4.945   8.279   3.737
11396TIP3    H134065   4.936   8.370   3.710
11396TIP3    H234066   4.867   8.261   3.789
11397TIP3   OH234067   5.759   8.481   3.232
11397TIP3    H134068   5.670   8.476   3.269
11397TIP3    H234069   5.760   8.564   3.185
11398TIP3   OH234070   6.100   7.347   3.601
11398TIP3    H134071   6.016   7.378   3.566
11398TIP3    H234072   6.165   7.379   3.538
11399TIP3   OH234073   5.343   6.989   3.599
11399TIP3    H134074   5.341   6.898   3.626
11399TIP3    H234075   5.268   7.029   3.643
11400TIP3   OH234076   5.462   8.498   2.894
11400TIP3    H134077   5.512   8.417   2.879
11400TIP3    H234078   5.522   8.568   2.867
11401TIP3   OH234079   5.616   8.282   2.843
11401TIP3    H134080   5.639   8.213   2.781
11401TIP3    H234081   5.661   8.257   2.924
11402TIP3   OH234082   5.991   8.375   3.577
11402TIP3    H134083   5.977   8.300   3.519
11402TIP3    H234084   5.977   8.451   3.522
11403TIP3   OH234085   5.277   7.769   2.848
11403TIP3    H134086   5.200   7.824   2.833
11403TIP3    H234087   5.327   7.775   2.767
11404TIP3   OH234088   5.259   7.579   2.546
11404TIP3    H134089   5.324   7.631   2.594
11404TIP3    H234090   5.310   7.521   2.491
11405TIP3   OH234091   6.173   8.034   3.450
11405TIP3    H134092   6.089   8.081   3.447
11405TIP3    H234093   6.211   8.046   3.363
11406TIP3   OH234094   5.644   7.869   2.807
11406TIP3    H134095   5.589   7.896   2.880
11406TIP3    H234096   5.727   7.844   2.847
11407TIP3   OH234097   5.874   7.894   3.760
11407TIP3    H134098   5.869   7.979   3.804
11407TIP3    H234099   5.794   7.889   3.708
11408TIP3   OH234100   4.870   7.845   3.209
11408TIP3    H134101   4.831   7.782   3.148
11408TIP3    H234102   4.944   7.798   3.247
11409TIP3   OH234103   5.040   8.215   3.347
11409TIP3    H134104   5.043   8.165   3.265
11409TIP3    H234105   5.128   8.205   3.384
11410TIP3   OH234106   4.970   7.840   3.587
11410TIP3    H134107   5.010   7.804   3.508
11410TIP3    H234108   5.017   7.922   3.603
11411TIP3   OH234109   5.520   8.479   3.364
11411TIP3    H134110   5.509   8.561   3.413
11411TIP3    H234111   5.512   8.410   3.430
11412TIP3   OH234112   5.142   8.372   3.912
11412TIP3    H134113   5.083   8.432   3.958
11412TIP3    H234114   5.085   8.323   3.852
11413TIP3   OH234115   5.474   7.726   2.645
11413TIP3    H134116   5.535   7.783   2.693
11413TIP3    H234117   5.503   7.731   2.554
11414TIP3   OH234118   4.895   7.923   4.057
11414TIP3    H134119   4.900   8.017   4.074
11414TIP3    H234120   4.802   7.904   4.051
11415TIP3   OH234121   5.202   8.404   2.911
11415TIP3    H134122   5.292   8.436   2.916
11415TIP3    H234123   5.157   8.467   2.855
11416TIP3   OH234124   4.939   8.538   4.000
11416TIP3    H134125   4.916   8.551   3.908
11416TIP3    H234126   4.856   8.522   4.044
11417TIP3   OH234127   5.990   6.951   2.706
11417TIP3    H134128   5.914   6.973   2.760
11417TIP3    H234129   5.999   7.026   2.647
11418TIP3   OH234130   4.720   7.690   3.015
11418TIP3    H134131   4.662   7.745   2.963
11418TIP3    H234132   4.663   7.624   3.053
11419TIP3   OH234133   5.812   8.328   2.254
11419TIP3    H134134   5.804   8.420   2.231
11419TIP3    H234135   5.902   8.305   2.231
11420TIP3   OH234136   4.533   8.095   3.949
11420TIP3    H134137   4.462   8.077   3.887
11420TIP3    H234138   4.566   8.008   3.973
11421TIP3   OH234139   4.378   8.294   3.618
11421TIP3    H134140   4.462   8.329   3.648
11421TIP3    H234141   4.318   8.368   3.627
11422TIP3   OH234142   6.216   8.722   3.647
11422TIP3    H134143   6.223   8.628   3.666
11422TIP3    H234144   6.138   8.750   3.695
11423TIP3   OH234145   5.332   8.515   3.772
11423TIP3    H134146   5.325   8.606   3.799
11423TIP3    H234147   5.262   8.470   3.820
11424TIP3   OH234148   5.103   8.595   2.732
11424TIP3    H134149   5.077   8.586   2.640
11424TIP3    H234150   5.082   8.685   2.755
11425TIP3   OH234151   4.513   8.361   3.067
11425TIP3    H134152   4.484   8.373   3.157
11425TIP3    H234153   4.432   8.361   3.016
11426TIP3   OH234154   5.314   8.554   2.358
11426TIP3    H134155   5.364   8.481   2.322
11426TIP3    H234156   5.352   8.569   2.445
11427TIP3   OH234157   5.365   8.596   2.628
11427TIP3    H134158   5.282   8.588   2.675
11427TIP3    H234159   5.431   8.571   2.692
11428TIP3   OH234160   6.108   7.861   3.924
11428TIP3    H134161   6.031   7.868   3.867
11428TIP3    H234162   6.131   7.768   3.923
11429TIP3   OH234163   4.730   8.284   3.910
11429TIP3    H134164   4.779   8.276   3.992
11429TIP3    H234165   4.658   8.221   3.919
11430TIP3   OH234166   5.111   7.083   3.729
11430TIP3    H134167   5.026   7.049   3.701
11430TIP3    H234168   5.090   7.165   3.775
11431TIP3   OH234169   5.652   7.213   3.931
11431TIP3    H134170   5.721   7.187   3.992
11431TIP3    H234171   5.571   7.197   3.980
11432TIP3   OH234172   5.876   7.626   3.847
11432TIP3    H134173   5.835   7.621   3.934
11432TIP3    H234174   5.860   7.716   3.819
11433TIP3   OH234175   5.553   7.718   2.385
11433TIP3    H134176   5.507   7.716   2.301
11433TIP3    H234177   5.638   7.757   2.365
11434TIP3   OH234178   5.244   7.139   2.708
11434TIP3    H134179   5.209   7.149   2.797
11434TIP3    H234180   5.223   7.048   2.684
11435TIP3   OH234181   5.051   7.625   3.741
11435TIP3    H134182   5.006   7.632   3.825
11435TIP3    H234183   5.029   7.705   3.695
11436TIP3   OH234184   4.937   7.500   3.237
11436TIP3    H134185   4.849   7.469   3.253
11436TIP3    H234186   4.950   7.489   3.143
11437TIP3   OH234187   5.403   7.561   2.979
11437TIP3    H134188   5.359   7.636   2.938
11437TIP3    H234189   5.464   7.531   2.912
11438TIP3   OH234190   5.595   7.834   4.055
11438TIP3    H134191   5.569   7.768   4.118
11438TIP3    H234192   5.687   7.849   4.072
11439TIP3   OH234193   5.577   7.583   3.203
11439TIP3    H134194   5.507   7.603   3.141
11439TIP3    H234195   5.625   7.511   3.163
11440TIP3   OH234196   4.888   7.637   3.962
11440TIP3    H134197   4.899   7.701   4.032
11440TIP3    H234198   4.871   7.555   4.007
11441TIP3   OH234199   4.932   7.117   2.641
11441TIP3    H134200   4.984   7.037   2.647
11441TIP3    H234201   4.888   7.111   2.556
11442TIP3   OH234202   4.476   7.155   3.543
11442TIP3    H134203   4.549   7.190   3.594
11442TIP3    H234204   4.509   7.153   3.453
11443TIP3   OH234205   5.629   7.835   3.633
11443TIP3    H134206   5.651   7.768   3.569
11443TIP3    H234207   5.582   7.788   3.702
11444TIP3   OH234208   5.285   7.296   3.304
11444TIP3    H134209   5.210   7.300   3.363
11444TIP3    H234210   5.360   7.276   3.361
11445TIP3   OH234211   4.701   7.370   3.298
11445TIP3    H134212   4.610   7.379   3.269
11445TIP3    H234213   4.719   7.276   3.289
11446TIP3   OH234214   4.975   7.379   2.839
11446TIP3    H134215   5.046   7.390   2.902
11446TIP3    H234216   4.994   7.444   2.771
11447TIP3   OH234217   5.754   7.373   3.517
11447TIP3    H134218   5.728   7.391   3.607
11447TIP3    H234219   5.698   7.301   3.489
11448TIP3   OH234220   5.946   9.078   3.734
11448TIP3    H134221   5.940   9.095   3.640
11448TIP3    H234222   6.025   9.123   3.762
11449TIP3   OH234223   4.882   8.189   4.146
11449TIP3    H134224   4.963   8.211   4.193
11449TIP3    H234225   4.812   8.203   4.210
11450TIP3   OH234226   5.341   7.658   3.415
11450TIP3    H134227   5.408   7.609   3.368
11450TIP3    H234228   5.339   7.618   3.502
11451TIP3   OH234229   4.884   7.099   3.314
11451TIP3    H134230   4.829   7.035   3.359
11451TIP3    H234231   4.965   7.052   3.295
11452TIP3   OH234232   5.314   7.564   3.679
11452TIP3    H134233   5.228   7.598   3.705
11452TIP3    H234234   5.376   7.615   3.731
11453TIP3   OH234235   5.045   7.923   2.807
11453TIP3    H134236   4.970   7.867   2.784
11453TIP3    H234237   5.017   7.968   2.886
11454TIP3   OH234238   5.940   8.172   3.398
11454TIP3    H134239   5.979   8.221   3.325
11454TIP3    H234240   5.862   8.131   3.360
11455TIP3   OH234241   5.512   7.218   2.707
11455TIP3    H134242   5.417   7.207   2.699
11455TIP3    H234243   5.525   7.313   2.710
11456TIP3   OH234244   5.459   8.254   3.817
11456TIP3    H134245   5.510   8.248   3.898
11456TIP3    H234246   5.418   8.340   3.820
11457TIP3   OH234247   5.575   7.489   2.765
11457TIP3    H134248   5.670   7.494   2.776
11457TIP3    H234249   5.552   7.566   2.713
11458TIP3   OH234250   4.736   7.906   3.442
11458TIP3    H134251   4.775   7.894   3.356
11458TIP3    H234252   4.805   7.881   3.504
11459TIP3   OH234253   5.190   8.078   2.635
11459TIP3    H134254   5.140   8.159   2.635
11459TIP3    H234255   5.142   8.020   2.694
11460TIP3   OH234256   4.621   7.858   4.076
11460TIP3    H134257   4.623   7.831   4.168
11460TIP3    H234258   4.545   7.813   4.040
11461TIP3   OH234259   5.366   7.994   4.099
11461TIP3    H134260   5.295   7.935   4.073
11461TIP3    H234261   5.446   7.951   4.068
11462TIP3   OH234262   5.605   8.541   3.705
11462TIP3    H134263   5.510   8.529   3.705
11462TIP3    H234264   5.624   8.580   3.790
11463TIP3   OH234265   5.984   7.590   2.586
11463TIP3    H134266   5.922   7.547   2.527
11463TIP3    H234267   5.994   7.678   2.550
11464TIP3   OH234268   6.237   8.438   3.674
11464TIP3    H134269   6.143   8.428   3.658
11464TIP3    H234270   6.278   8.419   3.589
11465TIP3   OH234271   5.727   8.399   2.511
11465TIP3    H134272   5.699   8.322   2.562
11465TIP3    H234273   5.753   8.363   2.426
11466TIP3   OH234274   5.714   8.035   3.294
11466TIP3    H134275   5.624   8.015   3.319
11466TIP3    H234276   5.747   7.953   3.256
11467TIP3   OH234277   4.825   8.322   3.081
11467TIP3    H134278   4.919   8.342   3.080
11467TIP3    H234279   4.798   8.338   3.171
11468TIP3   OH234280   4.433   7.541   2.816
11468TIP3    H134281   4.469   7.629   2.825
11468TIP3    H234282   4.356   7.540   2.873
11469TIP3   OH234283   4.929   8.044   3.026
11469TIP3    H134284   4.872   8.119   3.043
11469TIP3    H234285   4.906   7.981   3.094
11470TIP3   OH234286   5.151   8.581   3.554
11470TIP3    H134287   5.180   8.657   3.504
11470TIP3    H234288   5.228   8.555   3.605
11471TIP3   OH234289   4.690   8.583   2.958
11471TIP3    H134290   4.613   8.637   2.979
11471TIP3    H234291   4.765   8.641   2.976
11472TIP3   OH234292   5.519   8.265   3.547
11472TIP3    H134293   5.500   8.258   3.641
11472TIP3    H234294   5.607   8.227   3.538
11473TIP3   OH234295   5.506   8.138   2.422
11473TIP3    H134296   5.547   8.120   2.506
11473TIP3    H234297   5.422   8.091   2.426
11474TIP3   OH234298   5.757   8.754   3.580
11474TIP3    H134299   5.684   8.694   3.596
11474TIP3    H234300   5.728   8.808   3.507
11475TIP3   OH234301   5.799   8.598   2.213
11475TIP3    H134302   5.804   8.650   2.133
11475TIP3    H234303   5.734   8.642   2.267
11476TIP3   OH234304   4.835   7.381   4.076
11476TIP3    H134305   4.740   7.392   4.081
11476TIP3    H234306   4.858   7.330   4.153
11477TIP3   OH234307   5.677   8.089   2.642
11477TIP3    H134308   5.659   8.012   2.695
11477TIP3    H234309   5.770   8.083   2.620
11478TIP3   OH234310   4.584   8.470   3.730
11478TIP3    H134311   4.640   8.420   3.790
11478TIP3    H234312   4.592   8.560   3.761
11479TIP3   OH234313   4.840   8.098   2.435
11479TIP3    H134314   4.843   8.005   2.410
11479TIP3    H234315   4.821   8.098   2.528
11480TIP3   OH234316   4.798   8.127   2.708
11480TIP3    H134317   4.887   8.114   2.742
11480TIP3    H234318   4.782   8.221   2.719
11481TIP3   OH234319   4.529   7.804   2.834
11481TIP3    H134320   4.456   7.866   2.836
11481TIP3    H234321   4.569   7.817   2.748
11482TIP3   OH234322   5.684   7.437   3.776
11482TIP3    H134323   5.762   7.483   3.808
11482TIP3    H234324   5.674   7.362   3.834
11483TIP3   OH234325   5.578   7.176   2.974
11483TIP3    H134326   5.559   7.191   2.881
11483TIP3    H234327   5.623   7.255   3.002
11484TIP3   OH234328   5.033   8.301   2.649
11484TIP3    H134329   4.975   8.351   2.707
11484TIP3    H234330   5.063   8.366   2.585
11485TIP3   OH234331   5.198   7.392   3.056
11485TIP3    H134332   5.266   7.453   3.026
11485TIP3    H234333   5.223   7.369   3.145
11486TIP3   OH234334   5.523   7.673   3.828
11486TIP3    H134335   5.547   7.715   3.911
11486TIP3    H234336   5.573   7.591   3.827
11487TIP3   OH234337   5.373   7.084   3.135
11487TIP3    H134338   5.356   7.161   3.190
11487TIP3    H234339   5.448   7.110   3.082
11488TIP3   OH234340   4.770   8.413   2.753
11488TIP3    H134341   4.763   8.432   2.659
11488TIP3    H234342   4.776   8.499   2.794
11489TIP3   OH234343   4.872   7.121   2.938
11489TIP3    H134344   4.966   7.117   2.954
11489TIP3    H234345   4.834   7.066   3.006
11490TIP3   OH234346   6.146   7.592   3.834
11490TIP3    H134347   6.051   7.587   3.843
11490TIP3    H234348   6.162   7.566   3.743
11491TIP3   OH234349   5.803   7.776   3.207
11491TIP3    H134350   5.728   7.718   3.218
11491TIP3    H234351   5.871   7.738   3.262
11492TIP3   OH234352   5.785   8.745   3.148
11492TIP3    H134353   5.742   8.795   3.079
11492TIP3    H234354   5.878   8.759   3.133
11493TIP3   OH234355   4.851   6.996   3.690
11493TIP3    H134356   4.819   6.962   3.607
11493TIP3    H234357   4.842   6.922   3.751
11494TIP3   OH234358   4.564   8.781   4.144
11494TIP3    H134359   4.648   8.785   4.189
11494TIP3    H234360   4.540   8.689   4.143
11495TIP3   OH234361   5.044   8.694   4.204
11495TIP3    H134362   5.136   8.667   4.208
11495TIP3    H234363   5.008   8.645   4.130
11496TIP3   OH234364   4.996   8.296   2.323
11496TIP3    H134365   4.948   8.224   2.365
11496TIP3    H234366   5.069   8.253   2.279
11497TIP3   OH234367   5.657   8.639   3.956
11497TIP3    H134368   5.677   8.568   4.018
11497TIP3    H234369   5.731   8.700   3.966
11498TIP3   OH234370   5.438   8.339   2.245
11498TIP3    H134371   5.479   8.277   2.306
11498TIP3    H234372   5.494   8.337   2.167
11499TIP3   OH234373   4.677   8.193   4.337
11499TIP3    H134374   4.695   8.100   4.348
11499TIP3    H234375   4.591   8.197   4.297
11500TIP3   OH234376   4.658   7.802   2.573
11500TIP3    H134377   4.723   7.784   2.641
11500TIP3    H234378   4.710   7.820   2.495
11501TIP3   OH234379   5.300   8.271   4.114
11501TIP3    H134380   5.254   8.292   4.033
11501TIP3    H234381   5.334   8.183   4.099
11502TIP3   OH234382   5.256   8.011   2.379
11502TIP3    H134383   5.224   8.025   2.468
11502TIP3    H234384   5.234   7.920   2.359
11503TIP3   OH234385   5.773   8.318   3.735
11503TIP3    H134386   5.850   8.344   3.684
11503TIP3    H234387   5.710   8.389   3.722
11504TIP3   OH234388   4.792   7.937   4.348
11504TIP3    H134389   4.868   7.925   4.291
11504TIP3    H234390   4.829   7.957   4.434
11505TIP3   OH234391   4.849   7.731   2.762
11505TIP3    H134392   4.823   7.696   2.847
11505TIP3    H234393   4.899   7.660   2.721
11506TIP3   OH234394   5.157   7.822   4.008
11506TIP3    H134395   5.070   7.862   4.016
11506TIP3    H234396   5.187   7.849   3.921
11507TIP3   OH234397   4.998   7.543   2.621
11507TIP3    H134398   4.957   7.545   2.534
11507TIP3    H234399   5.091   7.558   2.604
11508TIP3   OH234400   5.660   8.194   4.079
11508TIP3    H134401   5.728   8.157   4.022
11508TIP3    H234402   5.656   8.134   4.153
11509TIP3   OH234403   5.775   7.837   2.272
11509TIP3    H134404   5.761   7.796   2.186
11509TIP3    H234405   5.752   7.929   2.258
11510TIP3   OH234406   5.258   7.588   4.112
11510TIP3    H134407   5.261   7.519   4.046
11510TIP3    H234408   5.224   7.664   4.065
11511TIP3   OH234409   5.267   7.392   3.907
11511TIP3    H134410   5.294   7.429   3.823
11511TIP3    H234411   5.176   7.363   3.892
11512TIP3   OH234412   5.271   7.913   3.779
11512TIP3    H134413   5.359   7.950   3.769
11512TIP3    H234414   5.214   7.972   3.730
11513TIP3   OH234415   5.868   7.861   4.146
11513TIP3    H134416   5.893   7.770   4.162
11513TIP3    H234417   5.947   7.901   4.110
11514TIP3   OH234418   5.896   8.141   3.901
11514TIP3    H134419   5.845   8.203   3.848
11514TIP3    H234420   5.986   8.154   3.872
11515TIP3   OH234421   5.146   7.667   4.357
11515TIP3    H134422   5.075   7.606   4.377
11515TIP3    H234423   5.173   7.645   4.268
11516TIP3   OH234424   5.388   7.163   4.013
11516TIP3    H134425   5.348   7.242   3.979
11516TIP3    H234426   5.322   7.094   4.000
11517TIP3   OH234427   5.514   7.626   4.215
11517TIP3    H134428   5.504   7.613   4.309
11517TIP3    H234429   5.427   7.605   4.179
11518TIP3   OH234430   5.760   7.582   4.087
11518TIP3    H134431   5.680   7.580   4.140
11518TIP3    H234432   5.829   7.553   4.147
11519TIP3   OH234433   5.991   7.547   4.239
11519TIP3    H134434   6.010   7.453   4.242
11519TIP3    H234435   5.990   7.574   4.331
11520TIP3   OH234436   4.974   7.450   4.419
11520TIP3    H134437   4.981   7.362   4.382
11520TIP3    H234438   5.013   7.443   4.506
11521TIP3   OH234439   5.452   7.133   4.278
11521TIP3    H134440   5.520   7.066   4.271
11521TIP3    H234441   5.423   7.147   4.188
11522TIP3   OH234442   5.551   7.345   4.424
11522TIP3    H134443   5.520   7.273   4.369
11522TIP3    H234444   5.479   7.408   4.425
11523TIP3   OH234445   4.793   8.545   2.510
11523TIP3    H134446   4.888   8.546   2.495
11523TIP3    H234447   4.757   8.601   2.442
11524TIP3   OH234448   4.300   7.962   2.706
11524TIP3    H134449   4.353   8.006   2.639
11524TIP3    H234450   4.267   7.883   2.662
11525TIP3   OH234451   4.138   8.545   3.210
11525TIP3    H134452   4.089   8.487   3.152
11525TIP3    H234453   4.212   8.492   3.239
11526TIP3   OH234454   4.351   8.395   3.320
11526TIP3    H134455   4.337   8.325   3.384
11526TIP3    H234456   4.395   8.464   3.370
11527TIP3   OH234457   6.056   8.795   3.140
11527TIP3    H134458   6.077   8.829   3.227
11527TIP3    H234459   6.110   8.848   3.080
11528TIP3   OH234460   6.068   8.830   3.424
11528TIP3    H134461   6.023   8.747   3.415
11528TIP3    H234462   6.139   8.812   3.486
11529TIP3   OH234463   6.136   8.536   3.998
11529TIP3    H134464   6.067   8.548   4.063
11529TIP3    H234465   6.181   8.621   3.996
11530TIP3   OH234466   5.950   8.053   2.604
11530TIP3    H134467   6.006   8.123   2.571
11530TIP3    H234468   6.000   8.014   2.676
11531TIP3   OH234469   6.084   7.910   2.802
11531TIP3    H134470   6.016   7.875   2.860
11531TIP3    H234471   6.149   7.947   2.862
11532TIP3   OH234472   6.127   8.308   3.241
11532TIP3    H134473   6.178   8.240   3.197
11532TIP3    H234474   6.130   8.383   3.181
11533TIP3   OH234475   5.926   8.592   3.426
11533TIP3    H134476   5.859   8.639   3.476
11533TIP3    H234477   5.878   8.553   3.353
11534TIP3   OH234478   5.986   7.828   2.448
11534TIP3    H134479   5.915   7.825   2.384
11534TIP3    H234480   5.970   7.907   2.499
11535TIP3   OH234481   5.813   7.481   2.404
11535TIP3    H134482   5.775   7.509   2.321
11535TIP3    H234483   5.805   7.386   2.403
11536TIP3   OH234484   5.873   7.774   2.937
11536TIP3    H134485   5.879   7.680   2.922
11536TIP3    H234486   5.854   7.782   3.031
11537TIP3   OH234487   4.491   7.831   3.717
11537TIP3    H134488   4.482   7.800   3.627
11537TIP3    H234489   4.585   7.827   3.735
11538TIP3   OH234490   6.158   8.187   3.816
11538TIP3    H134491   6.220   8.118   3.792
11538TIP3    H234492   6.177   8.258   3.754
11539TIP3   OH234493   6.326   7.970   3.791
11539TIP3    H134494   6.253   7.928   3.837
11539TIP3    H234495   6.402   7.916   3.814
11540TIP3   OH234496   5.782   7.211   2.391
11540TIP3    H134497   5.858   7.178   2.438
11540TIP3    H234498   5.712   7.149   2.412
11541TIP3   OH234499   5.864   7.496   2.825
11541TIP3    H134500   5.913   7.414   2.837
11541TIP3    H234501   5.904   7.536   2.748
11542TIP3   OH234502   6.021   7.660   3.349
11542TIP3    H134503   6.101   7.679   3.300
11542TIP3    H234504   6.036   7.699   3.435
11543TIP3   OH234505   6.094   7.805   3.582
11543TIP3    H134506   6.021   7.834   3.635
11543TIP3    H234507   6.125   7.884   3.538
11544TIP3   OH234508   4.711   7.507   4.353
11544TIP3    H134509   4.805   7.505   4.373
11544TIP3    H234510   4.676   7.427   4.392
11545TIP3   OH234511   6.546   7.408   4.109
11545TIP3    H134512   6.615   7.350   4.075
11545TIP3    H234513   6.512   7.453   4.032
11546TIP3   OH234514   5.986   7.251   2.876
11546TIP3    H134515   6.032   7.235   2.958
11546TIP3    H234516   5.924   7.178   2.868
11547TIP3   OH234517   4.694   7.226   3.695
11547TIP3    H134518   4.747   7.147   3.706
11547TIP3    H234519   4.759   7.296   3.685
11548TIP3   OH234520   4.469   7.479   3.760
11548TIP3    H134521   4.519   7.472   3.679
11548TIP3    H234522   4.497   7.562   3.798
11549TIP3   OH234523   6.399   7.512   3.903
11549TIP3    H134524   6.312   7.553   3.908
11549TIP3    H234525   6.384   7.429   3.858
11550TIP3   OH234526   6.024   7.148   2.516
11550TIP3    H134527   6.072   7.091   2.457
11550TIP3    H234528   6.076   7.229   2.518
11551TIP3   OH234529   4.417   7.021   3.254
11551TIP3    H134530   4.345   6.997   3.311
11551TIP3    H234531   4.380   7.086   3.194
11552TIP3   OH234532   5.606   8.701   2.789
11552TIP3    H134533   5.664   8.697   2.713
11552TIP3    H234534   5.640   8.772   2.842
11553TIP3   OH234535   4.682   7.053   4.094
11553TIP3    H134536   4.632   7.047   4.176
11553TIP3    H234537   4.625   7.103   4.035
11554TIP3   OH234538   4.715   8.500   4.161
11554TIP3    H134539   4.620   8.487   4.154
11554TIP3    H234540   4.731   8.504   4.255
11555TIP3   OH234541   4.931   8.553   3.717
11555TIP3    H134542   4.873   8.620   3.680
11555TIP3    H234543   5.012   8.562   3.668
11556TIP3   OH234544   5.328   8.779   3.851
11556TIP3    H134545   5.365   8.776   3.939
11556TIP3    H234546   5.388   8.835   3.802
11557TIP3   OH234547   5.513   8.942   3.727
11557TIP3    H134548   5.572   8.896   3.668
11557TIP3    H234549   5.569   9.000   3.779
11558TIP3   OH234550   6.318   7.264   3.808
11558TIP3    H134551   6.233   7.258   3.765
11558TIP3    H234552   6.353   7.175   3.803
11559TIP3   OH234553   4.575   8.760   3.755
11559TIP3    H134554   4.486   8.784   3.731
11559TIP3    H234555   4.603   8.827   3.817
11560TIP3   OH234556   4.805   8.762   3.597
11560TIP3    H134557   4.718   8.767   3.637
11560TIP3    H234558   4.792   8.791   3.507
11561TIP3   OH234559   5.232   8.797   3.403
11561TIP3    H134560   5.166   8.810   3.335
11561TIP3    H234561   5.240   8.883   3.445
11562TIP3   OH234562   5.492   8.737   3.459
11562TIP3    H134563   5.401   8.756   3.438
11562TIP3    H234564   5.543   8.801   3.409
11563TIP3   OH234565   5.691   8.901   3.353
11563TIP3    H134566   5.693   8.989   3.317
11563TIP3    H234567   5.720   8.845   3.282
11564TIP3   OH234568   4.511   8.561   3.477
11564TIP3    H134569   4.541   8.532   3.564
11564TIP3    H234570   4.578   8.528   3.417
11565TIP3   OH234571   4.696   8.426   3.321
11565TIP3    H134572   4.700   8.343   3.369
11565TIP3    H234573   4.780   8.468   3.340
11566TIP3   OH234574   4.956   8.480   3.374
11566TIP3    H134575   4.994   8.393   3.370
11566TIP3    H234576   5.016   8.530   3.429
11567TIP3   OH234577   5.494   7.181   3.444
11567TIP3    H134578   5.456   7.112   3.499
11567TIP3    H234579   5.570   7.140   3.404
11568TIP3   OH234580   6.021   7.089   3.320
11568TIP3    H134581   6.064   7.140   3.252
11568TIP3    H234582   5.937   7.133   3.335
11569TIP3   OH234583   6.141   7.188   3.096
11569TIP3    H134584   6.208   7.125   3.070
11569TIP3    H234585   6.182   7.273   3.086
11570TIP3   OH234586   4.759   6.892   3.450
11570TIP3    H134587   4.670   6.860   3.462
11570TIP3    H234588   4.813   6.813   3.445
11571TIP3   OH234589   4.557   6.804   3.144
11571TIP3    H134590   4.567   6.843   3.058
11571TIP3    H234591   4.510   6.871   3.195
11572TIP3   OH234592   5.208   6.967   3.340
11572TIP3    H134593   5.267   6.995   3.269
11572TIP3    H234594   5.258   6.982   3.420
11573TIP3   OH234595   5.725   7.071   3.344
11573TIP3    H134596   5.738   7.034   3.256
11573TIP3    H234597   5.742   6.997   3.403
11574TIP3   OH234598   5.810   7.034   2.899
11574TIP3    H134599   5.722   7.065   2.923
11574TIP3    H234600   5.838   6.983   2.975
11575TIP3   OH234601   4.311   8.374   2.884
11575TIP3    H134602   4.230   8.323   2.875
11575TIP3    H234603   4.294   8.454   2.835
11576TIP3   OH234604   5.144   7.138   2.968
11576TIP3    H134605   5.203   7.077   3.011
11576TIP3    H234606   5.168   7.224   3.003
11577TIP3   OH234607   5.065   8.516   2.465
11577TIP3    H134608   5.146   8.548   2.426
11577TIP3    H234609   5.036   8.447   2.406
11578TIP3   OH234610   5.760   8.667   2.559
11578TIP3    H134611   5.753   8.572   2.547
11578TIP3    H234612   5.720   8.704   2.481
11579TIP3   OH234613   4.993   7.181   4.330
11579TIP3    H134614   4.959   7.113   4.389
11579TIP3    H234615   5.085   7.190   4.354
11580TIP3   OH234616   5.239   7.187   4.455
11580TIP3    H134617   5.316   7.164   4.402
11580TIP3    H234618   5.233   7.118   4.520
11581TIP3   OH234619   4.334   8.314   2.524
11581TIP3    H134620   4.337   8.372   2.600
11581TIP3    H234621   4.426   8.300   2.501
11582TIP3   OH234622   6.061   7.277   4.238
11582TIP3    H134623   6.078   7.248   4.327
11582TIP3    H234624   6.145   7.272   4.193
11583TIP3   OH234625   5.972   8.804   3.751
11583TIP3    H134626   5.901   8.775   3.693
11583TIP3    H234627   5.967   8.899   3.750
11584TIP3   OH234628   7.250   8.189   2.501
11584TIP3    H134629   7.223   8.277   2.476
11584TIP3    H234630   7.176   8.133   2.476
11585TIP3   OH234631   7.251   8.184   2.908
11585TIP3    H134632   7.307   8.170   2.985
11585TIP3    H234633   7.209   8.099   2.894
11586TIP3   OH234634   6.551   8.043   3.257
11586TIP3    H134635   6.590   7.988   3.324
11586TIP3    H234636   6.625   8.069   3.201
11587TIP3   OH234637   7.526   8.497   2.586
11587TIP3    H134638   7.515   8.433   2.657
11587TIP3    H234639   7.547   8.579   2.631
11588TIP3   OH234640   6.546   8.470   2.932
11588TIP3    H134641   6.527   8.376   2.939
11588TIP3    H234642   6.641   8.475   2.925
11589TIP3   OH234643   6.225   7.677   2.723
11589TIP3    H134644   6.189   7.763   2.746
11589TIP3    H234645   6.153   7.631   2.680
11590TIP3   OH234646   6.310   7.995   2.948
11590TIP3    H134647   6.361   7.917   2.971
11590TIP3    H234648   6.375   8.061   2.925
11591TIP3   OH234649   7.191   8.915   2.605
11591TIP3    H134650   7.218   8.851   2.539
11591TIP3    H234651   7.206   8.871   2.689
11592TIP3   OH234652   7.065   8.403   2.918
11592TIP3    H134653   7.112   8.324   2.889
11592TIP3    H234654   7.133   8.462   2.948
11593TIP3   OH234655   8.102   7.727   2.929
11593TIP3    H134656   8.113   7.813   2.970
11593TIP3    H234657   8.131   7.739   2.839
11594TIP3   OH234658   7.464   7.892   2.948
11594TIP3    H134659   7.498   7.808   2.977
11594TIP3    H234660   7.424   7.874   2.863
11595TIP3   OH234661   6.821   7.548   2.903
11595TIP3    H134662   6.801   7.623   2.846
11595TIP3    H234663   6.765   7.478   2.871
11596TIP3   OH234664   7.521   7.656   2.549
11596TIP3    H134665   7.585   7.651   2.620
11596TIP3    H234666   7.571   7.691   2.475
11597TIP3   OH234667   6.447   7.769   3.035
11597TIP3    H134668   6.531   7.751   3.078
11597TIP3    H234669   6.450   7.719   2.954
11598TIP3   OH234670   6.864   7.969   2.855
11598TIP3    H134671   6.959   7.955   2.860
11598TIP3    H234672   6.829   7.887   2.820
11599TIP3   OH234673   8.141   7.948   3.096
11599TIP3    H134674   8.058   7.994   3.086
11599TIP3    H234675   8.180   7.987   3.175
11600TIP3   OH234676   6.805   7.561   3.358
11600TIP3    H134677   6.755   7.598   3.285
11600TIP3    H234678   6.750   7.576   3.434
11601TIP3   OH234679   7.155   8.411   2.366
11601TIP3    H134680   7.120   8.382   2.282
11601TIP3    H234681   7.102   8.487   2.389
11602TIP3   OH234682   6.900   8.329   3.130
11602TIP3    H134683   6.847   8.403   3.159
11602TIP3    H234684   6.952   8.364   3.057
11603TIP3   OH234685   7.680   7.677   2.771
11603TIP3    H134686   7.635   7.656   2.853
11603TIP3    H234687   7.734   7.753   2.792
11604TIP3   OH234688   6.694   7.662   3.124
11604TIP3    H134689   6.749   7.738   3.144
11604TIP3    H234690   6.740   7.618   3.052
11605TIP3   OH234691   6.745   8.537   3.227
11605TIP3    H134692   6.735   8.626   3.195
11605TIP3    H234693   6.666   8.521   3.279
11606TIP3   OH234694   6.116   8.242   2.483
11606TIP3    H134695   6.085   8.261   2.394
11606TIP3    H234696   6.140   8.327   2.519
11607TIP3   OH234697   7.554   8.748   2.717
11607TIP3    H134698   7.466   8.744   2.753
11607TIP3    H234699   7.557   8.830   2.668
11608TIP3   OH234700   7.904   7.607   3.090
11608TIP3    H134701   7.819   7.636   3.057
11608TIP3    H234702   7.968   7.639   3.025
11609TIP3   OH234703   7.143   7.254   3.093
11609TIP3    H134704   7.133   7.163   3.118
11609TIP3    H234705   7.065   7.298   3.129
11610TIP3   OH234706   7.272   8.759   2.393
11610TIP3    H134707   7.321   8.677   2.381
11610TIP3    H234708   7.332   8.827   2.364
11611TIP3   OH234709   7.408   8.524   2.341
11611TIP3    H134710   7.332   8.468   2.352
11611TIP3    H234711   7.461   8.509   2.419
11612TIP3   OH234712   7.775   8.623   3.076
11612TIP3    H134713   7.766   8.553   3.011
11612TIP3    H234714   7.765   8.704   3.026
11613TIP3   OH234715   7.068   8.032   2.357
11613TIP3    H134716   6.988   8.078   2.331
11613TIP3    H234717   7.119   8.027   2.276
11614TIP3   OH234718   7.059   7.836   2.037
11614TIP3    H134719   7.123   7.884   2.090
11614TIP3    H234720   7.109   7.766   1.995
11615TIP3   OH234721   7.968   8.287   2.925
11615TIP3    H134722   7.886   8.336   2.927
11615TIP3    H234723   8.001   8.300   2.836
11616TIP3   OH234724   7.444   8.109   2.327
11616TIP3    H134725   7.391   8.142   2.399
11616TIP3    H234726   7.529   8.089   2.366
11617TIP3   OH234727   7.669   8.149   3.247
11617TIP3    H134728   7.664   8.233   3.293
11617TIP3    H234729   7.588   8.145   3.195
11618TIP3   OH234730   6.667   8.101   2.698
11618TIP3    H134731   6.631   8.039   2.635
11618TIP3    H234732   6.741   8.054   2.738
11619TIP3   OH234733   6.810   8.518   2.845
11619TIP3    H134734   6.790   8.508   2.752
11619TIP3    H234735   6.898   8.482   2.854
11620TIP3   OH234736   6.761   8.099   3.076
11620TIP3    H134737   6.800   8.064   2.996
11620TIP3    H234738   6.810   8.179   3.093
11621TIP3   OH234739   7.309   8.731   2.841
11621TIP3    H134740   7.295   8.812   2.890
11621TIP3    H234741   7.297   8.661   2.906
11622TIP3   OH234742   6.938   8.638   3.402
11622TIP3    H134743   6.874   8.693   3.448
11622TIP3    H234744   6.885   8.587   3.341
11623TIP3   OH234745   7.262   7.986   2.165
11623TIP3    H134746   7.322   8.035   2.221
11623TIP3    H234747   7.293   8.002   2.076
11624TIP3   OH234748   6.692   8.189   3.554
11624TIP3    H134749   6.691   8.284   3.564
11624TIP3    H234750   6.600   8.166   3.537
11625TIP3   OH234751   7.016   8.649   2.391
11625TIP3    H134752   7.097   8.699   2.403
11625TIP3    H234753   6.956   8.712   2.351
11626TIP3   OH234754   6.721   8.791   3.485
11626TIP3    H134755   6.702   8.803   3.392
11626TIP3    H234756   6.635   8.782   3.526
11627TIP3   OH234757   7.777   7.211   2.193
11627TIP3    H134758   7.699   7.235   2.244
11627TIP3    H234759   7.797   7.289   2.141
11628TIP3   OH234760   6.541   7.939   2.503
11628TIP3    H134761   6.464   7.988   2.474
11628TIP3    H234762   6.509   7.849   2.514
11629TIP3   OH234763   7.531   8.605   1.878
11629TIP3    H134764   7.533   8.687   1.829
11629TIP3    H234765   7.620   8.570   1.871
11630TIP3   OH234766   6.330   8.356   3.432
11630TIP3    H134767   6.260   8.337   3.369
11630TIP3    H234768   6.363   8.269   3.457
11631TIP3   OH234769   6.171   8.543   3.092
11631TIP3    H134770   6.262   8.569   3.105
11631TIP3    H234771   6.120   8.620   3.116
11632TIP3   OH234772   7.125   8.787   3.265
11632TIP3    H134773   7.117   8.877   3.294
11632TIP3    H234774   7.059   8.739   3.315
11633TIP3   OH234775   6.888   8.865   2.240
11633TIP3    H134776   6.841   8.849   2.159
11633TIP3    H234777   6.857   8.950   2.271
11634TIP3   OH234778   6.340   8.731   2.591
11634TIP3    H134779   6.386   8.722   2.675
11634TIP3    H234780   6.292   8.648   2.582
11635TIP3   OH234781   7.112   8.824   1.902
11635TIP3    H134782   7.154   8.739   1.889
11635TIP3    H234783   7.134   8.849   1.992
11636TIP3   OH234784   7.151   8.875   2.163
11636TIP3    H134785   7.064   8.867   2.203
11636TIP3    H234786   7.209   8.824   2.219
11637TIP3   OH234787   7.917   8.105   3.409
11637TIP3    H134788   7.835   8.121   3.364
11637TIP3    H234789   7.934   8.011   3.397
11638TIP3   OH234790   6.527   8.545   3.398
11638TIP3    H134791   6.578   8.531   3.478
11638TIP3    H234792   6.455   8.483   3.405
11639TIP3   OH234793   6.905   7.342   3.216
11639TIP3    H134794   6.821   7.309   3.184
11639TIP3    H234795   6.883   7.424   3.261
11640TIP3   OH234796   7.454   7.462   3.418
11640TIP3    H134797   7.523   7.440   3.479
11640TIP3    H234798   7.373   7.449   3.467
11641TIP3   OH234799   7.671   7.881   3.328
11641TIP3    H134800   7.635   7.876   3.417
11641TIP3    H234801   7.659   7.972   3.302
11642TIP3   OH234802   7.366   8.017   1.922
11642TIP3    H134803   7.339   7.986   1.836
11642TIP3    H234804   7.438   8.077   1.906
11643TIP3   OH234805   7.065   7.374   2.184
11643TIP3    H134806   7.025   7.385   2.270
11643TIP3    H234807   7.024   7.295   2.149
11644TIP3   OH234808   6.847   7.874   3.213
11644TIP3    H134809   6.806   7.881   3.299
11644TIP3    H234810   6.824   7.956   3.168
11645TIP3   OH234811   6.726   7.753   2.747
11645TIP3    H134812   6.636   7.730   2.771
11645TIP3    H234813   6.735   7.723   2.657
11646TIP3   OH234814   7.203   7.824   2.476
11646TIP3    H134815   7.154   7.898   2.439
11646TIP3    H234816   7.261   7.796   2.405
11647TIP3   OH234817   7.404   8.094   3.538
11647TIP3    H134818   7.376   8.027   3.602
11647TIP3    H234819   7.495   8.110   3.560
11648TIP3   OH234820   7.367   7.836   2.700
11648TIP3    H134821   7.300   7.857   2.635
11648TIP3    H234822   7.418   7.765   2.660
11649TIP3   OH234823   6.684   7.876   3.438
11649TIP3    H134824   6.743   7.928   3.492
11649TIP3    H234825   6.666   7.798   3.491
11650TIP3   OH234826   6.722   7.359   2.167
11650TIP3    H134827   6.714   7.367   2.262
11650TIP3    H234828   6.643   7.401   2.133
11651TIP3   OH234829   6.276   7.410   3.032
11651TIP3    H134830   6.347   7.448   3.083
11651TIP3    H234831   6.312   7.404   2.943
11652TIP3   OH234832   6.167   7.388   2.526
11652TIP3    H134833   6.216   7.424   2.452
11652TIP3    H234834   6.103   7.456   2.549
11653TIP3   OH234835   7.419   8.095   3.121
11653TIP3    H134836   7.443   8.029   3.057
11653TIP3    H234837   7.374   8.047   3.191
11654TIP3   OH234838   7.090   7.539   2.796
11654TIP3    H134839   7.012   7.539   2.851
11654TIP3    H234840   7.163   7.533   2.857
11655TIP3   OH234841   6.485   7.628   2.804
11655TIP3    H134842   6.398   7.633   2.765
11655TIP3    H234843   6.514   7.538   2.786
11656TIP3   OH234844   6.738   7.633   2.500
11656TIP3    H134845   6.832   7.642   2.490
11656TIP3    H234846   6.702   7.649   2.413
11657TIP3   OH234847   7.533   7.631   3.007
11657TIP3    H134848   7.515   7.649   3.099
11657TIP3    H234849   7.464   7.571   2.979
11658TIP3   OH234850   6.627   7.651   2.251
11658TIP3    H134851   6.565   7.602   2.196
11658TIP3    H234852   6.682   7.698   2.188
11659TIP3   OH234853   1.207   0.113   3.236
11659TIP3    H134854   1.213   0.126   3.142
11659TIP3    H234855   1.298   0.106   3.265
11660TIP3   OH234856   6.672   8.457   3.633
11660TIP3    H134857   6.754   8.475   3.678
11660TIP3    H234858   6.605   8.462   3.702
11661TIP3   OH234859   7.138   7.914   2.902
11661TIP3    H134860   7.204   7.868   2.851
11661TIP3    H234861   7.139   7.870   2.987
11662TIP3   OH234862   6.625   7.378   2.786
11662TIP3    H134863   6.597   7.303   2.838
11662TIP3    H234864   6.641   7.342   2.699
11663TIP3   OH234865   7.114   7.813   3.166
11663TIP3    H134866   7.027   7.846   3.187
11663TIP3    H234867   7.173   7.866   3.220
11664TIP3   OH234868   6.845   8.175   2.274
11664TIP3    H134869   6.771   8.120   2.248
11664TIP3    H234870   6.816   8.216   2.356
11665TIP3   OH234871   7.736   8.426   2.885
11665TIP3    H134872   7.774   8.477   2.814
11665TIP3    H234873   7.656   8.389   2.848
11666TIP3   OH234874   7.316   7.484   2.188
11666TIP3    H134875   7.223   7.460   2.184
11666TIP3    H234876   7.316   7.579   2.199
11667TIP3   OH234877   7.244   8.511   3.308
11667TIP3    H134878   7.312   8.503   3.374
11667TIP3    H234879   7.217   8.603   3.312
11668TIP3   OH234880   7.372   7.748   2.262
11668TIP3    H134881   7.467   7.752   2.270
11668TIP3    H234882   7.348   7.826   2.213
11669TIP3   OH234883   6.530   8.178   2.926
11669TIP3    H134884   6.569   8.162   2.840
11669TIP3    H234885   6.599   8.153   2.988
11670TIP3   OH234886   7.020   8.334   2.135
11670TIP3    H134887   6.971   8.416   2.129
11670TIP3    H234888   6.962   8.275   2.184
11671TIP3   OH234889   6.413   8.123   3.566
11671TIP3    H134890   6.422   8.091   3.656
11671TIP3    H234891   6.339   8.075   3.530
11672TIP3   OH234892   7.180   8.262   3.565
11672TIP3    H134893   7.130   8.245   3.486
11672TIP3    H234894   7.263   8.216   3.551
11673TIP3   OH234895   7.394   8.793   3.192
11673TIP3    H134896   7.298   8.792   3.201
11673TIP3    H234897   7.424   8.840   3.269
11674TIP3   OH234898   7.797   7.837   2.077
11674TIP3    H134899   7.725   7.799   2.027
11674TIP3    H234900   7.799   7.929   2.048
11675TIP3   OH234901   8.033   8.656   3.183
11675TIP3    H134902   7.943   8.689   3.175
11675TIP3    H234903   8.066   8.657   3.093
11676TIP3   OH234904   7.419   8.681   2.114
11676TIP3    H134905   7.422   8.618   2.186
11676TIP3    H234906   7.448   8.633   2.037
11677TIP3   OH234907   7.507   8.293   2.782
11677TIP3    H134908   7.417   8.275   2.809
11677TIP3    H234909   7.538   8.210   2.747
11678TIP3   OH234910   6.667   8.526   2.602
11678TIP3    H134911   6.663   8.602   2.543
11678TIP3    H234912   6.579   8.521   2.640
11679TIP3   OH234913   6.225   7.812   2.308
11679TIP3    H134914   6.267   7.895   2.331
11679TIP3    H234915   6.143   7.813   2.358
11680TIP3   OH234916   6.741   8.283   2.498
11680TIP3    H134917   6.727   8.372   2.530
11680TIP3    H234918   6.716   8.227   2.572
11681TIP3   OH234919   6.947   8.854   3.052
11681TIP3    H134920   6.978   8.930   3.003
11681TIP3    H234921   7.023   8.825   3.102
11682TIP3   OH234922   6.578   8.745   2.453
11682TIP3    H134923   6.490   8.752   2.488
11682TIP3    H234924   6.614   8.833   2.459
11683TIP3   OH234925   7.292   8.518   3.032
11683TIP3    H134926   7.270   8.514   3.125
11683TIP3    H234927   7.385   8.495   3.029
11684TIP3   OH234928   7.262   8.350   1.963
11684TIP3    H134929   7.338   8.326   2.015
11684TIP3    H234930   7.187   8.337   2.021
11685TIP3   OH234931   7.532   9.018   3.043
11685TIP3    H134932   7.458   8.957   3.047
11685TIP3    H234933   7.513   9.073   2.967
11686TIP3   OH234934   7.564   8.859   1.753
11686TIP3    H134935   7.645   8.892   1.714
11686TIP3    H234936   7.531   8.931   1.805
11687TIP3   OH234937   6.635   7.626   3.569
11687TIP3    H134938   6.540   7.633   3.574
11687TIP3    H234939   6.659   7.569   3.642
11688TIP3   OH234940   7.477   8.276   2.107
11688TIP3    H134941   7.465   8.225   2.188
11688TIP3    H234942   7.568   8.304   2.109
11689TIP3   OH234943   6.375   8.753   3.212
11689TIP3    H134944   6.431   8.697   3.267
11689TIP3    H234945   6.390   8.841   3.245
11690TIP3   OH234946   6.638   8.363   1.916
11690TIP3    H134947   6.669   8.275   1.893
11690TIP3    H234948   6.624   8.360   2.011
11691TIP3   OH234949   6.584   8.370   2.187
11691TIP3    H134950   6.647   8.343   2.254
11691TIP3    H234951   6.583   8.466   2.193
11692TIP3   OH234952   6.316   8.064   2.396
11692TIP3    H134953   6.250   8.111   2.447
11692TIP3    H234954   6.337   8.123   2.324
11693TIP3   OH234955   7.476   7.694   3.268
11693TIP3    H134956   7.554   7.741   3.297
11693TIP3    H234957   7.471   7.618   3.326
11694TIP3   OH234958   7.369   7.441   2.459
11694TIP3    H134959   7.350   7.459   2.367
11694TIP3    H234960   7.413   7.520   2.491
11695TIP3   OH234961   6.859   8.552   2.118
11695TIP3    H134962   6.776   8.571   2.161
11695TIP3    H234963   6.879   8.631   2.067
11696TIP3   OH234964   7.017   7.635   2.545
11696TIP3    H134965   7.079   7.703   2.519
11696TIP3    H234966   7.041   7.614   2.636
11697TIP3   OH234967   7.316   7.931   3.319
11697TIP3    H134968   7.345   7.977   3.397
11697TIP3    H234969   7.367   7.851   3.318
11698TIP3   OH234970   7.183   7.331   2.631
11698TIP3    H134971   7.158   7.408   2.682
11698TIP3    H234972   7.252   7.363   2.573
11699TIP3   OH234973   6.611   8.640   2.203
11699TIP3    H134974   6.585   8.709   2.143
11699TIP3    H234975   6.599   8.678   2.290
11700TIP3   OH234976   6.694   7.358   2.447
11700TIP3    H134977   6.683   7.450   2.472
11700TIP3    H234978   6.789   7.344   2.451
11701TIP3   OH234979   7.940   7.841   3.312
11701TIP3    H134980   7.844   7.837   3.319
11701TIP3    H234981   7.959   7.818   3.221
11702TIP3   OH234982   7.596   8.029   2.704
11702TIP3    H134983   7.518   7.976   2.719
11702TIP3    H234984   7.662   7.992   2.762
11703TIP3   OH234985   6.338   8.242   2.182
11703TIP3    H134986   6.408   8.306   2.188
11703TIP3    H234987   6.370   8.177   2.119
11704TIP3   OH234988   6.257   7.535   2.315
11704TIP3    H134989   6.261   7.630   2.317
11704TIP3    H234990   6.235   7.513   2.224
11705TIP3   OH234991   7.575   9.007   2.610
11705TIP3    H134992   7.535   9.062   2.543
11705TIP3    H234993   7.667   9.032   2.610
11706TIP3   OH234994   6.642   7.256   3.176
11706TIP3    H134995   6.613   7.225   3.090
11706TIP3    H234996   6.632   7.181   3.234
11707TIP3   OH234997   6.163   8.509   2.565
11707TIP3    H134998   6.122   8.548   2.642
11707TIP3    H234999   6.119   8.551   2.491
11708TIP3   OH235000   6.387   9.056   3.633
11708TIP3    H135001   6.465   9.070   3.685
11708TIP3    H235002   6.388   8.962   3.612
11709TIP3   OH235003   6.836   8.948   3.680
11709TIP3    H135004   6.927   8.919   3.686
11709TIP3    H235005   6.800   8.897   3.608
11710TIP3   OH235006   6.802   8.555   1.801
11710TIP3    H135007   6.754   8.489   1.850
11710TIP3    H235008   6.883   8.510   1.775
11711TIP3   OH235009   7.456   8.902   3.439
11711TIP3    H135010   7.451   8.826   3.497
11711TIP3    H235011   7.539   8.944   3.461
11712TIP3   OH235012   7.223   8.590   1.838
11712TIP3    H135013   7.261   8.523   1.894
11712TIP3    H235014   7.293   8.613   1.777
11713TIP3   OH235015   6.469   8.431   3.826
11713TIP3    H135016   6.493   8.338   3.827
11713TIP3    H235017   6.383   8.434   3.785
11714TIP3   OH235018   6.454   8.043   2.038
11714TIP3    H135019   6.502   8.017   2.117
11714TIP3    H235020   6.522   8.063   1.974
11715TIP3   OH235021   7.093   8.531   3.605
11715TIP3    H135022   7.053   8.557   3.521
11715TIP3    H235023   7.140   8.451   3.585
11716TIP3   OH235024   6.935   8.266   1.882
11716TIP3    H135025   6.960   8.281   1.973
11716TIP3    H235026   6.924   8.171   1.875
11717TIP3   OH235027   7.546   8.562   3.210
11717TIP3    H135028   7.628   8.588   3.167
11717TIP3    H235029   7.490   8.640   3.203
11718TIP3   OH235030   6.590   8.182   3.824
11718TIP3    H135031   6.654   8.170   3.754
11718TIP3    H235032   6.642   8.204   3.901
11719TIP3   OH235033   6.638   7.991   2.241
11719TIP3    H135034   6.620   7.960   2.330
11719TIP3    H235035   6.688   7.920   2.200
11720TIP3   OH235036   6.913   8.044   3.472
11720TIP3    H135037   6.847   8.106   3.502
11720TIP3    H235038   6.969   8.096   3.415
11721TIP3   OH235039   6.784   7.808   2.089
11721TIP3    H135040   6.753   7.814   1.999
11721TIP3    H235041   6.879   7.815   2.082
11722TIP3   OH235042   7.448   8.442   3.561
11722TIP3    H135043   7.522   8.413   3.507
11722TIP3    H235044   7.452   8.387   3.639
11723TIP3   OH235045   7.597   8.144   1.795
11723TIP3    H135046   7.574   8.068   1.742
11723TIP3    H235047   7.531   8.209   1.772
11724TIP3   OH235048   7.052   7.845   3.598
11724TIP3    H135049   7.060   7.772   3.537
11724TIP3    H235050   7.010   7.914   3.548
11725TIP3   OH235051   7.065   7.645   3.396
11725TIP3    H135052   7.093   7.682   3.313
11725TIP3    H235053   6.974   7.618   3.381
11726TIP3   OH235054   7.071   8.209   3.312
11726TIP3    H135055   7.157   8.230   3.275
11726TIP3    H235056   7.008   8.252   3.254
11727TIP3   OH235057   7.667   8.138   3.642
11727TIP3    H135058   7.727   8.063   3.641
11727TIP3    H235059   7.725   8.214   3.637
11728TIP3   OH235060   7.674   8.396   3.383
11728TIP3    H135061   7.621   8.455   3.329
11728TIP3    H235062   7.764   8.409   3.352
11729TIP3   OH235063   6.938   7.926   3.844
11729TIP3    H135064   6.872   7.859   3.862
11729TIP3    H235065   6.971   7.906   3.757
11730TIP3   OH235066   7.187   7.414   3.496
11730TIP3    H135067   7.148   7.496   3.464
11730TIP3    H235068   7.119   7.348   3.483
11731TIP3   OH235069   7.314   7.885   3.694
11731TIP3    H135070   7.303   7.873   3.788
11731TIP3    H235071   7.227   7.868   3.658
11732TIP3   OH235072   7.562   7.835   3.571
11732TIP3    H135073   7.483   7.839   3.624
11732TIP3    H235074   7.633   7.821   3.634
11733TIP3   OH235075   7.797   7.809   3.726
11733TIP3    H135076   7.807   7.714   3.732
11733TIP3    H235077   7.789   7.838   3.817
11734TIP3   OH235078   6.767   7.711   3.912
11734TIP3    H135079   6.771   7.627   3.867
11734TIP3    H235080   6.809   7.695   3.996
11735TIP3   OH235081   7.249   7.386   3.761
11735TIP3    H135082   7.320   7.323   3.755
11735TIP3    H235083   7.221   7.400   3.671
11736TIP3   OH235084   7.345   7.600   3.907
11736TIP3    H135085   7.312   7.529   3.852
11736TIP3    H235086   7.277   7.667   3.906
11737TIP3   OH235087   6.589   8.848   2.025
11737TIP3    H135088   6.679   8.832   1.995
11737TIP3    H235089   6.547   8.893   1.952
11738TIP3   OH235090   6.066   8.239   2.190
11738TIP3    H135091   6.161   8.249   2.190
11738TIP3    H235092   6.050   8.151   2.156
11739TIP3   OH235093   5.974   8.813   2.649
11739TIP3    H135094   5.906   8.762   2.607
11739TIP3    H235095   6.017   8.752   2.709
11740TIP3   OH235096   6.115   8.645   2.819
11740TIP3    H135097   6.109   8.577   2.887
11740TIP3    H235098   6.167   8.714   2.859
11741TIP3   OH235099   7.822   9.115   2.639
11741TIP3    H135100   7.810   9.115   2.734
11741TIP3    H235101   7.912   9.146   2.626
11742TIP3   OH235102   7.842   9.119   2.919
11742TIP3    H135103   7.852   9.026   2.937
11742TIP3    H235104   7.928   9.147   2.888
11743TIP3   OH235105   7.889   8.766   3.513
11743TIP3    H135106   7.815   8.780   3.572
11743TIP3    H235107   7.921   8.855   3.494
11744TIP3   OH235108   7.752   8.309   2.130
11744TIP3    H135109   7.814   8.375   2.099
11744TIP3    H235110   7.796   8.267   2.204
11745TIP3   OH235111   7.886   8.149   2.309
11745TIP3    H135112   7.819   8.113   2.367
11745TIP3    H235113   7.949   8.190   2.367
11746TIP3   OH235114   7.924   8.554   2.726
11746TIP3    H135115   7.975   8.489   2.678
11746TIP3    H235116   7.923   8.631   2.669
11747TIP3   OH235117   7.723   8.843   2.926
11747TIP3    H135118   7.663   8.907   2.964
11747TIP3    H235119   7.678   8.813   2.847
11748TIP3   OH235120   7.798   8.091   1.973
11748TIP3    H135121   7.727   8.099   1.908
11748TIP3    H235122   7.782   8.163   2.033
11749TIP3   OH235123   7.591   7.745   1.926
11749TIP3    H135124   7.536   7.780   1.857
11749TIP3    H235125   7.593   7.650   1.910
11750TIP3   OH235126   7.681   8.017   2.443
11750TIP3    H135127   7.679   7.923   2.425
11750TIP3    H235128   7.658   8.025   2.535
11751TIP3   OH235129   6.288   8.078   3.207
11751TIP3    H135130   6.279   8.052   3.116
11751TIP3    H235131   6.382   8.077   3.224
11752TIP3   OH235132   7.932   8.424   3.294
11752TIP3    H135133   8.002   8.362   3.273
11752TIP3    H235134   7.955   8.503   3.244
11753TIP3   OH235135   8.127   8.228   3.281
11753TIP3    H135136   8.056   8.186   3.331
11753TIP3    H235137   8.205   8.178   3.304
11754TIP3   OH235138   7.627   7.477   1.875
11754TIP3    H135139   7.690   7.442   1.938
11754TIP3    H235140   7.546   7.429   1.891
11755TIP3   OH235141   7.664   7.748   2.320
11755TIP3    H135142   7.708   7.664   2.332
11755TIP3    H235143   7.706   7.786   2.243
11756TIP3   OH235144   7.814   7.910   2.845
11756TIP3    H135145   7.893   7.930   2.794
11756TIP3    H235146   7.828   7.954   2.929
11757TIP3   OH235147   7.886   8.065   3.069
11757TIP3    H135148   7.814   8.096   3.125
11757TIP3    H235149   7.914   8.144   3.022
11758TIP3   OH235150   6.503   7.761   3.838
11758TIP3    H135151   6.596   7.763   3.860
11758TIP3    H235152   6.471   7.679   3.874
11759TIP3   OH235153   8.354   7.648   3.606
11759TIP3    H135154   8.421   7.596   3.560
11759TIP3    H235155   8.315   7.702   3.537
11760TIP3   OH235156   7.776   7.499   2.374
11760TIP3    H135157   7.820   7.482   2.457
11760TIP3    H235158   7.712   7.428   2.366
11761TIP3   OH235159   6.484   7.484   3.203
11761TIP3    H135160   6.537   7.404   3.203
11761TIP3    H235161   6.546   7.553   3.180
11762TIP3   OH235162   6.261   7.754   3.248
11762TIP3    H135163   6.314   7.738   3.170
11762TIP3    H235164   6.285   7.842   3.276
11763TIP3   OH235165   8.200   7.779   3.425
11763TIP3    H135166   8.129   7.823   3.473
11763TIP3    H235167   8.156   7.720   3.364
11764TIP3   OH235168   7.847   7.419   2.027
11764TIP3    H135169   7.888   7.355   1.969
11764TIP3    H235170   7.908   7.492   2.031
11765TIP3   OH235171   6.254   7.266   2.754
11765TIP3    H135172   6.169   7.253   2.797
11765TIP3    H235173   6.234   7.316   2.675
11766TIP3   OH235174   7.422   8.957   2.290
11766TIP3    H135175   7.499   8.940   2.237
11766TIP3    H235176   7.444   9.035   2.341
11767TIP3   OH235177   6.484   7.313   3.582
11767TIP3    H135178   6.429   7.301   3.660
11767TIP3    H235179   6.427   7.359   3.521
11768TIP3   OH235180   6.485   8.782   3.643
11768TIP3    H135181   6.394   8.753   3.635
11768TIP3    H235182   6.507   8.767   3.735
11769TIP3   OH235183   6.721   8.814   3.202
11769TIP3    H135184   6.670   8.887   3.169
11769TIP3    H235185   6.806   8.822   3.159
11770TIP3   OH235186   7.119   9.054   3.342
11770TIP3    H135187   7.159   9.044   3.429
11770TIP3    H235188   7.186   9.100   3.291
11771TIP3   OH235189   7.318   9.191   3.205
11771TIP3    H135190   7.381   9.138   3.156
11771TIP3    H235191   7.372   9.248   3.260
11772TIP3   OH235192   8.104   7.538   3.297
11772TIP3    H135193   8.025   7.547   3.244
11772TIP3    H235194   8.129   7.446   3.287
11773TIP3   OH235195   6.383   9.039   3.253
11773TIP3    H135196   6.292   9.054   3.229
11773TIP3    H235197   6.405   9.111   3.313
11774TIP3   OH235198   6.610   9.041   3.096
11774TIP3    H135199   6.527   9.044   3.143
11774TIP3    H235200   6.588   9.065   3.006
11775TIP3   OH235201   7.012   9.070   2.893
11775TIP3    H135202   6.947   9.079   2.824
11775TIP3    H235203   7.027   9.159   2.924
11776TIP3   OH235204   7.269   8.985   2.931
11776TIP3    H135205   7.179   9.013   2.915
11776TIP3    H235206   7.323   9.048   2.884
11777TIP3   OH235207   7.455   9.151   2.814
11777TIP3    H135208   7.452   9.240   2.780
11777TIP3    H235209   7.498   9.101   2.744
11778TIP3   OH235210   6.286   8.828   2.960
11778TIP3    H135211   6.313   8.808   3.049
11778TIP3    H235212   6.358   8.797   2.905
11779TIP3   OH235213   6.491   8.714   2.823
11779TIP3    H135214   6.503   8.630   2.866
11779TIP3    H235215   6.577   8.756   2.827
11780TIP3   OH235216   6.758   8.796   2.854
11780TIP3    H135217   6.780   8.704   2.840
11780TIP3    H235218   6.816   8.824   2.926
11781TIP3   OH235219   7.318   7.454   2.938
11781TIP3    H135220   7.280   7.380   2.987
11781TIP3    H235221   7.386   7.414   2.884
11782TIP3   OH235222   7.820   7.365   2.827
11782TIP3    H135223   7.860   7.414   2.755
11782TIP3    H235224   7.729   7.393   2.828
11783TIP3   OH235225   7.937   7.444   2.592
11783TIP3    H135226   8.007   7.386   2.563
11783TIP3    H235227   7.972   7.532   2.581
11784TIP3   OH235228   6.553   7.152   2.936
11784TIP3    H135229   6.464   7.118   2.942
11784TIP3    H235230   6.608   7.075   2.924
11785TIP3   OH235231   6.397   7.073   2.600
11785TIP3    H135232   6.415   7.116   2.517
11785TIP3    H235233   6.354   7.140   2.653
11786TIP3   OH235234   7.046   7.187   2.832
11786TIP3    H135235   7.090   7.236   2.762
11786TIP3    H235236   7.084   7.221   2.913
11787TIP3   OH235237   7.531   7.344   2.800
11787TIP3    H135238   7.544   7.314   2.710
11787TIP3    H235239   7.537   7.264   2.853
11788TIP3   OH235240   7.590   7.292   2.377
11788TIP3    H135241   7.509   7.339   2.400
11788TIP3    H235242   7.579   7.205   2.415
11789TIP3   OH235243   6.048   8.622   2.341
11789TIP3    H135244   5.962   8.598   2.305
11789TIP3    H235245   6.056   8.716   2.321
11790TIP3   OH235246   6.486   7.190   2.351
11790TIP3    H135247   6.532   7.129   2.294
11790TIP3    H235248   6.555   7.246   2.386
11791TIP3   OH235249   6.970   7.384   2.446
11791TIP3    H135250   7.029   7.332   2.499
11791TIP3    H235251   6.985   7.474   2.474
11792TIP3   OH235252   6.844   8.781   1.952
11792TIP3    H135253   6.932   8.812   1.928
11792TIP3    H235254   6.826   8.710   1.890
11793TIP3   OH235255   7.595   8.885   2.062
11793TIP3    H135256   7.539   8.810   2.082
11793TIP3    H235257   7.538   8.944   2.012
11794TIP3   OH235258   6.780   7.444   3.810
11794TIP3    H135259   6.746   7.380   3.872
11794TIP3    H235260   6.874   7.451   3.831
11795TIP3   OH235261   7.029   7.437   3.928
11795TIP3    H135262   7.108   7.418   3.877
11795TIP3    H235263   7.026   7.368   3.995
11796TIP3   OH235264   6.155   8.615   2.039
11796TIP3    H135265   6.151   8.621   2.135
11796TIP3    H235266   6.238   8.570   2.021
11797TIP3   OH235267   7.858   7.537   3.728
11797TIP3    H135268   7.878   7.507   3.817
11797TIP3    H235269   7.942   7.532   3.682
11798TIP3   OH235270   7.711   9.072   3.242
11798TIP3    H135271   7.657   9.045   3.168
11798TIP3    H235272   7.733   9.164   3.224
11799TIP3   OH235273   8.353   8.338   2.739
11799TIP3    H135274   8.379   8.260   2.788
11799TIP3    H235275   8.388   8.411   2.790
11800TIP3   OH235276   8.245   8.700   2.497
11800TIP3    H135277   8.310   8.630   2.492
11800TIP3    H235278   8.276   8.757   2.567
11801TIP3   OH235279   8.029   7.936   2.202
11801TIP3    H135280   7.990   8.017   2.237
11801TIP3    H235281   7.954   7.886   2.170
11802TIP3   OH235282   8.127   8.243   2.421
11802TIP3    H135283   8.169   8.164   2.454
11802TIP3    H235284   8.189   8.278   2.357
11803TIP3   OH235285   8.604   7.800   2.395
11803TIP3    H135286   8.579   7.877   2.344
11803TIP3    H235287   8.550   7.729   2.360
11804TIP3   OH235288   8.240   8.017   2.526
11804TIP3    H135289   8.322   7.998   2.571
11804TIP3    H235290   8.244   7.966   2.445
11805TIP3   OH235291   8.661   8.229   2.319
11805TIP3    H135292   8.752   8.208   2.298
11805TIP3    H235293   8.612   8.149   2.299
11806TIP3   OH235294   8.586   7.811   2.851
11806TIP3    H135295   8.542   7.849   2.776
11806TIP3    H235296   8.529   7.830   2.925
11807TIP3   OH235297   8.482   7.912   2.617
11807TIP3    H135298   8.533   7.991   2.635
11807TIP3    H235299   8.529   7.868   2.546
11808TIP3   OH235300   7.944   8.467   2.006
11808TIP3    H135301   7.884   8.488   1.934
11808TIP3    H235302   7.958   8.551   2.050
11809TIP3   OH235303   8.919   7.498   2.591
11809TIP3    H135304   8.913   7.406   2.618
11809TIP3    H235305   8.843   7.540   2.631
11810TIP3   OH235306   8.384   8.298   2.271
11810TIP3    H135307   8.371   8.266   2.182
11810TIP3    H235308   8.479   8.292   2.285
11811TIP3   OH235309   8.648   8.366   2.560
11811TIP3    H135310   8.661   8.328   2.473
11811TIP3    H235311   8.577   8.429   2.549
11812TIP3   OH235312   8.471   8.432   3.008
11812TIP3    H135313   8.482   8.523   3.036
11812TIP3    H235314   8.379   8.412   3.025
11813TIP3   OH235315   8.342   8.183   2.015
11813TIP3    H135316   8.286   8.250   1.975
11813TIP3    H235317   8.285   8.107   2.025
11814TIP3   OH235318   8.117   8.599   2.928
11814TIP3    H135319   8.047   8.595   2.863
11814TIP3    H235320   8.135   8.507   2.949
11815TIP3   OH235321   7.985   8.763   2.552
11815TIP3    H135322   8.067   8.732   2.512
11815TIP3    H235323   8.013   8.823   2.621
11816TIP3   OH235324   8.344   8.743   2.870
11816TIP3    H135325   8.392   8.740   2.952
11816TIP3    H235326   8.260   8.701   2.889
11817TIP3   OH235327   8.690   7.597   2.709
11817TIP3    H135328   8.606   7.566   2.676
11817TIP3    H235329   8.669   7.678   2.755
11818TIP3   OH235330   9.232   7.677   2.887
11818TIP3    H135331   9.301   7.680   2.953
11818TIP3    H235332   9.150   7.683   2.936
11819TIP3   OH235333   8.955   7.612   1.772
11819TIP3    H135334   8.884   7.620   1.835
11819TIP3    H235335   8.944   7.687   1.713
11820TIP3   OH235336   8.626   8.129   2.692
11820TIP3    H135337   8.584   8.144   2.777
11820TIP3    H235338   8.631   8.215   2.652
11821TIP3   OH235339   8.519   8.010   2.246
11821TIP3    H135340   8.428   7.988   2.262
11821TIP3    H235341   8.537   7.974   2.159
11822TIP3   OH235342   8.454   8.142   2.913
11822TIP3    H135343   8.465   8.208   2.981
11822TIP3    H235344   8.441   8.060   2.961
11823TIP3   OH235345   8.426   7.615   1.708
11823TIP3    H135346   8.439   7.603   1.802
11823TIP3    H235347   8.440   7.708   1.694
11824TIP3   OH235348   8.060   7.672   2.522
11824TIP3    H135349   8.135   7.706   2.571
11824TIP3    H235350   8.097   7.646   2.437
11825TIP3   OH235351   8.003   7.650   2.043
11825TIP3    H135352   8.062   7.683   1.976
11825TIP3    H235353   7.932   7.714   2.047
11826TIP3   OH235354   8.860   7.845   2.289
11826TIP3    H135355   8.777   7.829   2.333
11826TIP3    H235356   8.925   7.799   2.342
11827TIP3   OH235357   8.281   7.882   2.292
11827TIP3    H135358   8.194   7.888   2.253
11827TIP3    H235359   8.309   7.792   2.275
11828TIP3   OH235360   8.572   7.883   2.012
11828TIP3    H135361   8.659   7.889   1.972
11828TIP3    H235362   8.511   7.892   1.939
11829TIP3   OH235363   8.362   7.864   1.838
11829TIP3    H135364   8.268   7.852   1.823
11829TIP3    H235365   8.386   7.939   1.783
11830TIP3   OH235366   8.470   8.689   3.120
11830TIP3    H135367   8.522   8.762   3.153
11830TIP3    H235368   8.400   8.679   3.184
11831TIP3   OH235369   8.416   7.635   2.265
11831TIP3    H135370   8.391   7.556   2.314
11831TIP3    H235371   8.439   7.603   2.178
11832TIP3   OH235372   8.885   8.039   2.694
11832TIP3    H135373   8.795   8.068   2.685
11832TIP3    H235374   8.937   8.119   2.687
11833TIP3   OH235375   8.399   8.468   2.493
11833TIP3    H135376   8.377   8.419   2.414
11833TIP3    H235377   8.367   8.413   2.565
11834TIP3   OH235378   8.209   8.351   3.046
11834TIP3    H135379   8.204   8.323   3.137
11834TIP3    H235380   8.131   8.314   3.005
11835TIP3   OH235381   8.050   8.085   1.864
11835TIP3    H135382   8.085   8.174   1.862
11835TIP3    H235383   7.968   8.092   1.913
11836TIP3   OH235384   8.415   7.896   3.050
11836TIP3    H135385   8.320   7.906   3.058
11836TIP3    H235386   8.443   7.862   3.135
11837TIP3   OH235387   8.142   8.893   2.733
11837TIP3    H135388   8.219   8.873   2.787
11837TIP3    H235389   8.130   8.988   2.742
11838TIP3   OH235390   8.170   8.358   1.891
11838TIP3    H135391   8.093   8.385   1.942
11838TIP3    H235392   8.199   8.439   1.849
11839TIP3   OH235393   8.862   7.878   2.018
11839TIP3    H135394   8.934   7.938   1.999
11839TIP3    H235395   8.857   7.876   2.114
11840TIP3   OH235396   9.002   7.575   2.156
11840TIP3    H135397   9.025   7.618   2.238
11840TIP3    H235398   9.041   7.630   2.088
11841TIP3   OH235399   8.495   7.607   1.983
11841TIP3    H135400   8.490   7.702   1.993
11841TIP3    H235401   8.588   7.588   1.979
11842TIP3   OH235402   8.084   7.811   1.811
11842TIP3    H135403   8.069   7.901   1.840
11842TIP3    H235404   7.996   7.774   1.803
11843TIP3   OH235405   8.434   7.510   2.657
11843TIP3    H135406   8.407   7.479   2.571
11843TIP3    H235407   8.426   7.434   2.714
11844TIP3   OH235408   7.958   8.724   2.100
11844TIP3    H135409   7.956   8.777   2.180
11844TIP3    H235410   7.929   8.783   2.031
11845TIP3   OH235411   8.276   8.646   3.308
11845TIP3    H135412   8.277   8.553   3.330
11845TIP3    H235413   8.186   8.662   3.278
11846TIP3   OH235414   8.415   8.384   3.333
11846TIP3    H135415   8.487   8.404   3.273
11846TIP3    H235416   8.436   8.431   3.413
11847TIP3   OH235417   8.496   8.107   1.788
11847TIP3    H135418   8.470   8.138   1.874
11847TIP3    H235419   8.444   8.159   1.727
11848TIP3   OH235420   8.711   8.318   2.918
11848TIP3    H135421   8.634   8.361   2.956
11848TIP3    H235422   8.739   8.377   2.848
11849TIP3   OH235423   8.819   8.118   3.078
11849TIP3    H135424   8.831   8.038   3.026
11849TIP3    H235425   8.788   8.183   3.015
11850TIP3   OH235426   8.842   7.886   2.916
11850TIP3    H135427   8.871   7.931   2.837
11850TIP3    H235428   8.751   7.860   2.897
11851TIP3   OH235429   8.719   8.181   3.325
11851TIP3    H135430   8.653   8.114   3.342
11851TIP3    H235431   8.748   8.165   3.235
11852TIP3   OH235432   8.974   7.658   2.990
11852TIP3    H135433   8.932   7.741   2.968
11852TIP3    H235434   8.906   7.592   2.976
11853TIP3   OH235435   9.072   8.165   3.196
11853TIP3    H135436   9.052   8.134   3.284
11853TIP3    H235437   8.989   8.156   3.148
11854TIP3   OH235438   8.561   7.957   3.391
11854TIP3    H135439   8.569   7.868   3.357
11854TIP3    H235440   8.602   7.953   3.478
11855TIP3   OH235441   9.045   7.636   3.253
11855TIP3    H135442   9.115   7.570   3.245
11855TIP3    H235443   9.015   7.649   3.163
11856TIP3   OH235444   9.127   7.851   3.408
11856TIP3    H135445   9.098   7.784   3.346
11856TIP3    H235446   9.060   7.919   3.403
11857TIP3   OH235447   7.784   8.533   1.791
11857TIP3    H135448   7.841   8.601   1.754
11857TIP3    H235449   7.725   8.509   1.719
11858TIP3   OH235450   7.756   9.072   2.179
11858TIP3    H135451   7.710   9.003   2.132
11858TIP3    H235452   7.822   9.027   2.231
11859TIP3   OH235453   7.935   8.910   2.319
11859TIP3    H135454   7.920   8.853   2.394
11859TIP3    H235455   8.001   8.973   2.349
11860TIP3   OH235456   8.086   8.320   2.680
11860TIP3    H135457   8.083   8.302   2.586
11860TIP3    H235458   8.178   8.334   2.700
11861TIP3   OH235459   8.300   8.014   3.322
11861TIP3    H135460   8.393   8.016   3.346
11861TIP3    H235461   8.266   7.936   3.366
11862TIP3   OH235462   8.274   7.734   2.688
11862TIP3    H135463   8.327   7.654   2.688
11862TIP3    H235464   8.336   7.804   2.669
11863TIP3   OH235465   8.050   8.008   2.737
11863TIP3    H135466   8.107   7.993   2.661
11863TIP3    H235467   8.058   8.102   2.754
11864TIP3   OH235468   8.043   7.513   2.274
11864TIP3    H135469   7.952   7.506   2.304
11864TIP3    H235470   8.038   7.568   2.196
11865TIP3   OH235471   8.269   7.549   3.062
11865TIP3    H135472   8.225   7.557   3.146
11865TIP3    H235473   8.219   7.605   3.003
11866TIP3   OH235474   9.047   7.672   2.413
11866TIP3    H135475   9.005   7.615   2.477
11866TIP3    H235476   9.123   7.708   2.458
11867TIP3   OH235477   8.353   7.408   2.412
11867TIP3    H135478   8.264   7.377   2.426
11867TIP3    H235479   8.406   7.329   2.409
11868TIP3   OH235480   8.147   7.299   2.128
11868TIP3    H135481   8.185   7.353   2.059
11868TIP3    H235482   8.111   7.363   2.191
11869TIP3   OH235483   8.821   7.446   2.329
11869TIP3    H135484   8.877   7.491   2.266
11869TIP3    H235485   8.854   7.472   2.414
11870TIP3   OH235486   9.442   7.470   2.270
11870TIP3    H135487   9.396   7.545   2.230
11870TIP3    H235488   9.394   7.453   2.351
11871TIP3   OH235489   7.842   8.895   1.918
11871TIP3    H135490   7.757   8.878   1.958
11871TIP3    H235491   7.822   8.947   1.840
11872TIP3   OH235492   8.271   7.448   1.932
11872TIP3    H135493   8.305   7.376   1.879
11872TIP3    H235494   8.348   7.499   1.956
11873TIP3   OH235495   8.773   7.618   1.985
11873TIP3    H135496   8.825   7.577   2.054
11873TIP3    H235497   8.790   7.712   1.995
11874TIP3   OH235498   8.580   7.688   3.301
11874TIP3    H135499   8.549   7.621   3.361
11874TIP3    H235500   8.673   7.699   3.323
11875TIP3   OH235501   8.828   7.696   3.420
11875TIP3    H135502   8.906   7.674   3.369
11875TIP3    H235503   8.821   7.628   3.486
11876TIP3   OH235504   9.662   7.774   3.214
11876TIP3    H135505   9.681   7.752   3.305
11876TIP3    H235506   9.585   7.832   3.219
11877TIP3   OH235507   0.580   8.509   4.592
11877TIP3    H135508   0.549   8.599   4.579
11877TIP3    H235509   0.622   8.486   4.508
11878TIP3   OH235510   0.796   8.444   5.294
11878TIP3    H135511   0.860   8.385   5.254
11878TIP3    H235512   0.752   8.485   5.220
11879TIP3   OH235513   0.638   8.543   5.089
11879TIP3    H135514   0.560   8.563   5.142
11879TIP3    H235515   0.617   8.461   5.046
11880TIP3   OH235516   0.276   8.257   3.645
11880TIP3    H135517   0.310   8.172   3.617
11880TIP3    H235518   0.343   8.291   3.704
11881TIP3   OH235519   0.578   8.294   4.970
11881TIP3    H135520   0.492   8.279   4.931
11881TIP3    H235521   0.617   8.207   4.977
11882TIP3   OH235522   0.378   8.247   4.142
11882TIP3    H135523   0.433   8.177   4.178
11882TIP3    H235524   0.384   8.318   4.206
11883TIP3   OH235525   0.452   8.657   3.984
11883TIP3    H135526   0.415   8.706   4.058
11883TIP3    H235527   0.485   8.576   4.022
11884TIP3   OH235528   2.319   8.772   4.111
11884TIP3    H135529   2.357   8.847   4.156
11884TIP3    H235530   2.373   8.760   4.034
11885TIP3   OH235531   1.632   8.891   4.179
11885TIP3    H135532   1.656   8.814   4.231
11885TIP3    H235533   1.690   8.888   4.103
11886TIP3   OH235534   1.019   8.555   4.151
11886TIP3    H135535   1.059   8.616   4.089
11886TIP3    H235536   0.979   8.487   4.097
11887TIP3   OH235537   1.762   8.685   3.709
11887TIP3    H135538   1.821   8.663   3.782
11887TIP3    H235539   1.818   8.682   3.632
11888TIP3   OH235540   0.694   8.803   4.259
11888TIP3    H135541   0.773   8.784   4.310
11888TIP3    H235542   0.704   8.751   4.179
11889TIP3   OH235543   1.185   9.072   3.983
11889TIP3    H135544   1.274   9.084   4.016
11889TIP3    H235545   1.195   9.005   3.915
11890TIP3   OH235546   2.446   8.948   4.300
11890TIP3    H135547   2.352   8.969   4.296
11890TIP3    H235548   2.478   8.999   4.374
11891TIP3   OH235549   1.043   8.577   4.572
11891TIP3    H135550   0.989   8.616   4.503
11891TIP3    H235551   0.996   8.597   4.653
11892TIP3   OH235552   1.932   8.643   3.918
11892TIP3    H135553   1.884   8.627   3.999
11892TIP3    H235554   1.993   8.714   3.940
11893TIP3   OH235555   0.924   8.698   4.360
11893TIP3    H135556   0.974   8.779   4.371
11893TIP3    H235557   0.965   8.655   4.285
11894TIP3   OH235558   2.114   8.654   4.264
11894TIP3    H135559   2.033   8.654   4.214
11894TIP3    H235560   2.181   8.682   4.201
11895TIP3   OH235561   1.392   8.293   4.272
11895TIP3    H135562   1.385   8.201   4.299
11895TIP3    H235563   1.316   8.335   4.312
11896TIP3   OH235564   1.293   8.810   3.343
11896TIP3    H135565   1.310   8.900   3.315
11896TIP3    H235566   1.371   8.761   3.314
11897TIP3   OH235567   5.266  -0.001   4.334
11897TIP3    H135568   5.248   0.092   4.346
11897TIP3    H235569   5.189  -0.036   4.289
11898TIP3   OH235570   2.025   8.237   3.359
11898TIP3    H135571   1.951   8.258   3.415
11898TIP3    H235572   2.036   8.315   3.304
11899TIP3   OH235573   2.116   9.111   4.553
11899TIP3    H135574   2.102   9.145   4.465
11899TIP3    H235575   2.182   9.042   4.541
11900TIP3   OH235576   1.154   8.380   4.397
11900TIP3    H135577   1.074   8.349   4.355
11900TIP3    H235578   1.126   8.455   4.450
11901TIP3   OH235579   1.701   8.496   4.595
11901TIP3    H135580   1.774   8.479   4.655
11901TIP3    H235581   1.623   8.466   4.643
11902TIP3   OH235582   1.943   8.867   4.514
11902TIP3    H135583   1.913   8.829   4.598
11902TIP3    H235584   1.927   8.961   4.523
11903TIP3   OH235585   1.299   8.403   3.364
11903TIP3    H135586   1.265   8.404   3.454
11903TIP3    H235587   1.270   8.319   3.329
11904TIP3   OH235588   1.050   8.938   4.436
11904TIP3    H135589   1.014   8.941   4.524
11904TIP3    H235590   1.010   9.013   4.391
11905TIP3   OH235591   1.083   8.670   3.900
11905TIP3    H135592   1.027   8.746   3.914
11905TIP3    H235593   1.063   8.642   3.810
11906TIP3   OH235594   1.499   8.800   3.573
11906TIP3    H135595   1.489   8.894   3.557
11906TIP3    H235596   1.558   8.770   3.504
11907TIP3   OH235597   1.634   9.124   4.759
11907TIP3    H135598   1.605   9.035   4.780
11907TIP3    H235599   1.728   9.124   4.776
11908TIP3   OH235600   1.534   8.793   3.878
11908TIP3    H135601   1.549   8.775   3.785
11908TIP3    H235602   1.622   8.803   3.915
11909TIP3   OH235603   0.823   8.915   4.630
11909TIP3    H135604   0.891   8.946   4.690
11909TIP3    H235605   0.809   8.824   4.655
11910TIP3   OH235606   0.963   8.360   3.328
11910TIP3    H135607   0.928   8.384   3.413
11910TIP3    H235608   0.931   8.428   3.269
11911TIP3   OH235609   0.595   8.463   4.114
11911TIP3    H135610   0.628   8.470   4.203
11911TIP3    H235611   0.619   8.375   4.086
11912TIP3   OH235612   0.457   8.458   3.766
11912TIP3    H135613   0.450   8.481   3.673
11912TIP3    H235614   0.441   8.541   3.811
11913TIP3   OH235615   1.748   9.128   4.282
11913TIP3    H135616   1.737   9.049   4.230
11913TIP3    H235617   1.667   9.135   4.333
11914TIP3   OH235618   1.335   8.554   3.941
11914TIP3    H135619   1.242   8.576   3.954
11914TIP3    H235620   1.380   8.600   4.013
11915TIP3   OH235621   0.750   8.672   4.018
11915TIP3    H135622   0.674   8.616   4.036
11915TIP3    H235623   0.821   8.610   3.998
11916TIP3   OH235624   1.057   8.666   3.619
11916TIP3    H135625   1.150   8.644   3.620
11916TIP3    H235626   1.040   8.698   3.531
11917TIP3   OH235627   1.823   8.625   4.169
11917TIP3    H135628   1.805   8.649   4.260
11917TIP3    H235629   1.748   8.571   4.143
11918TIP3   OH235630   0.814   8.601   3.448
11918TIP3    H135631   0.735   8.570   3.403
11918TIP3    H235632   0.872   8.629   3.377
11919TIP3   OH235633   1.350   8.773   4.131
11919TIP3    H135634   1.436   8.799   4.100
11919TIP3    H235635   1.355   8.782   4.226
11920TIP3   OH235636   0.874   8.412   3.964
11920TIP3    H135637   0.843   8.333   4.009
11920TIP3    H235638   0.880   8.386   3.872
11921TIP3   OH235639   1.307   8.829   4.399
11921TIP3    H135640   1.214   8.851   4.402
11921TIP3    H235641   1.348   8.895   4.456
11922TIP3   OH235642   1.557   8.499   3.392
11922TIP3    H135643   1.465   8.479   3.376
11922TIP3    H235644   1.571   8.584   3.352
11923TIP3   OH235645   1.672   8.759   3.363
11923TIP3    H135646   1.756   8.725   3.395
11923TIP3    H235647   1.695   8.844   3.325
11924TIP3   OH235648   4.687   0.048   4.813
11924TIP3    H135649   4.654   0.074   4.727
11924TIP3    H235650   4.766  -0.003   4.793
11925TIP3   OH235651   2.141   8.870   3.279
11925TIP3    H135652   2.056   8.835   3.252
11925TIP3    H235653   2.163   8.934   3.212
11926TIP3   OH235654   0.864   8.660   4.770
11926TIP3    H135655   0.844   8.713   4.847
11926TIP3    H235656   0.832   8.573   4.792
11927TIP3   OH235657   1.747   8.700   4.417
11927TIP3    H135658   1.826   8.741   4.452
11927TIP3    H235659   1.729   8.627   4.478
11928TIP3   OH235660   1.627   8.453   3.650
11928TIP3    H135661   1.598   8.470   3.560
11928TIP3    H235662   1.664   8.537   3.679
11929TIP3   OH235663   1.326   8.610   3.669
11929TIP3    H135664   1.389   8.673   3.636
11929TIP3    H235665   1.345   8.604   3.763
11930TIP3   OH235666   1.627   8.913   4.543
11930TIP3    H135667   1.610   8.879   4.631
11930TIP3    H235668   1.655   8.837   4.493
11931TIP3   OH235669   1.443   8.339   3.816
11931TIP3    H135670   1.411   8.416   3.864
11931TIP3    H235671   1.513   8.372   3.761
11932TIP3   OH235672   0.927   8.388   3.617
11932TIP3    H135673   0.917   8.482   3.603
11932TIP3    H235674   1.022   8.375   3.622
11933TIP3   OH235675   2.205   8.814   4.489
11933TIP3    H135676   2.114   8.830   4.515
11933TIP3    H235677   2.198   8.752   4.416
11934TIP3   OH235678   1.830   9.213   3.841
11934TIP3    H135679   1.734   9.210   3.840
11934TIP3    H235680   1.851   9.261   3.921
11935TIP3   OH235681   0.439   8.514   3.493
11935TIP3    H135682   0.379   8.574   3.447
11935TIP3    H235683   0.428   8.430   3.449
11936TIP3   OH235684   0.898   8.279   4.346
11936TIP3    H135685   0.865   8.244   4.263
11936TIP3    H235686   0.890   8.206   4.408
11937TIP3   OH235687   0.969   9.218   4.959
11937TIP3    H135688   0.993   9.149   4.897
11937TIP3    H235689   0.889   9.188   5.001
11938TIP3   OH235690   1.272   9.076   4.539
11938TIP3    H135691   1.242   9.076   4.630
11938TIP3    H235692   1.195   9.051   4.488
11939TIP3   OH235693   1.019   8.807   3.356
11939TIP3    H135694   1.000   8.831   3.266
11939TIP3    H235695   1.114   8.817   3.364
11940TIP3   OH235696   1.336   8.827   4.745
11940TIP3    H135697   1.326   8.744   4.700
11940TIP3    H235698   1.248   8.863   4.751
11941TIP3   OH235699   1.311   8.616   4.573
11941TIP3    H135700   1.320   8.674   4.498
11941TIP3    H235701   1.217   8.598   4.579
11942TIP3   OH235702   1.916   9.079   4.825
11942TIP3    H135703   1.960   9.002   4.862
11942TIP3    H235704   1.884   9.127   4.901
11943TIP3   OH235705   1.118   8.955   5.088
11943TIP3    H135706   1.079   8.868   5.096
11943TIP3    H235707   1.111   8.975   4.994
11944TIP3   OH235708   1.446   8.404   4.672
11944TIP3    H135709   1.404   8.482   4.637
11944TIP3    H235710   1.381   8.335   4.661
11945TIP3   OH235711   1.592   8.847   4.829
11945TIP3    H135712   1.592   8.818   4.921
11945TIP3    H235713   1.500   8.840   4.802
11946TIP3   OH235714   1.842   8.772   4.741
11946TIP3    H135715   1.757   8.786   4.782
11946TIP3    H235716   1.905   8.785   4.813
11947TIP3   OH235717   2.047   8.841   4.920
11947TIP3    H135718   2.070   8.748   4.924
11947TIP3    H235719   2.044   8.869   5.012
11948TIP3   OH235720   1.011   8.698   5.104
11948TIP3    H135721   1.024   8.620   5.051
11948TIP3    H235722   1.051   8.678   5.188
11949TIP3   OH235723   1.504   8.403   4.939
11949TIP3    H135724   1.576   8.340   4.933
11949TIP3    H235725   1.471   8.409   4.849
11950TIP3   OH235726   1.613   8.620   5.065
11950TIP3    H135727   1.584   8.542   5.018
11950TIP3    H235728   1.535   8.674   5.072
11951TIP3   OH235729   1.935   8.779   3.132
11951TIP3    H135730   1.974   8.784   3.045
11951TIP3    H235731   1.898   8.690   3.136
11952TIP3   OH235732   1.846   9.175   3.569
11952TIP3    H135733   1.921   9.116   3.566
11952TIP3    H235734   1.843   9.205   3.660
11953TIP3   OH235735   5.704   0.172   4.482
11953TIP3    H135736   5.648   0.133   4.416
11953TIP3    H235737   5.733   0.255   4.444
11954TIP3   OH235738   1.834   8.526   3.083
11954TIP3    H135739   1.914   8.485   3.117
11954TIP3    H235740   1.765   8.462   3.101
11955TIP3   OH235741   1.912   8.704   3.482
11955TIP3    H135742   1.978   8.636   3.492
11955TIP3    H235743   1.959   8.786   3.493
11956TIP3   OH235744   2.066   8.869   4.007
11956TIP3    H135745   2.106   8.876   3.921
11956TIP3    H235746   2.139   8.862   4.068
11957TIP3   OH235747   2.186   9.016   4.271
11957TIP3    H135748   2.113   8.964   4.307
11957TIP3    H235749   2.146   9.065   4.199
11958TIP3   OH235750   0.767   8.781   5.022
11958TIP3    H135751   0.855   8.760   5.052
11958TIP3    H235752   0.716   8.703   5.043
11959TIP3   OH235753   2.598   8.709   4.788
11959TIP3    H135754   2.665   8.646   4.762
11959TIP3    H235755   2.563   8.743   4.706
11960TIP3   OH235756   2.067   8.490   3.558
11960TIP3    H135757   2.106   8.486   3.645
11960TIP3    H235758   1.997   8.425   3.559
11961TIP3   OH235759   0.728   8.492   4.356
11961TIP3    H135760   0.788   8.417   4.360
11961TIP3    H235761   0.785   8.569   4.367
11962TIP3   OH235762   0.530   8.756   4.472
11962TIP3    H135763   0.589   8.771   4.399
11962TIP3    H235764   0.515   8.843   4.509
11963TIP3   OH235765   2.461   8.778   4.565
11963TIP3    H135766   2.371   8.809   4.558
11963TIP3    H235767   2.462   8.696   4.515
11964TIP3   OH235768   2.075   8.442   3.184
11964TIP3    H135769   2.114   8.382   3.120
11964TIP3    H235770   2.141   8.509   3.198
11965TIP3   OH235771   0.522   8.236   3.906
11965TIP3    H135772   0.460   8.234   3.979
11965TIP3    H235773   0.505   8.319   3.862
11966TIP3   OH235774   0.750   8.398   4.775
11966TIP3    H135775   0.693   8.363   4.844
11966TIP3    H235776   0.689   8.432   4.709
11967TIP3   OH235777   2.365   8.530   4.472
11967TIP3    H135778   2.275   8.500   4.459
11967TIP3    H235779   2.418   8.450   4.469
11968TIP3   OH235780   1.583   8.489   4.125
11968TIP3    H135781   1.522   8.426   4.164
11968TIP3    H235782   1.633   8.437   4.062
11969TIP3   OH235783   2.081   8.402   4.001
11969TIP3    H135784   2.130   8.450   3.934
11969TIP3    H235785   1.992   8.436   3.995
11970TIP3   OH235786   2.227   8.483   3.785
11970TIP3    H135787   2.286   8.413   3.755
11970TIP3    H235788   2.274   8.564   3.765
11971TIP3   OH235789   0.788   8.186   4.107
11971TIP3    H135790   0.702   8.145   4.119
11971TIP3    H235791   0.849   8.113   4.101
11972TIP3   OH235792   0.629   8.048   3.737
11972TIP3    H135793   0.661   8.098   3.663
11972TIP3    H235794   0.593   8.113   3.797
11973TIP3   OH235795   1.286   8.222   4.017
11973TIP3    H135796   1.340   8.260   3.948
11973TIP3    H235797   1.322   8.258   4.099
11974TIP3   OH235798   1.780   8.365   3.974
11974TIP3    H135799   1.807   8.326   3.891
11974TIP3    H235800   1.789   8.293   4.037
11975TIP3   OH235801   1.850   8.315   3.557
11975TIP3    H135802   1.771   8.363   3.584
11975TIP3    H235803   1.839   8.228   3.596
11976TIP3   OH235804   0.745   8.200   3.530
11976TIP3    H135805   0.797   8.150   3.467
11976TIP3    H235806   0.807   8.261   3.568
11977TIP3   OH235807   1.200   8.369   3.621
11977TIP3    H135808   1.234   8.286   3.655
11977TIP3    H235809   1.258   8.436   3.659
11978TIP3   OH235810   1.051   8.444   4.994
11978TIP3    H135811   1.013   8.384   5.058
11978TIP3    H235812   1.142   8.454   5.023
11979TIP3   OH235813   1.296   8.457   5.117
11979TIP3    H135814   1.371   8.436   5.062
11979TIP3    H235815   1.291   8.384   5.179
11980TIP3   OH235816   2.112   8.573   4.907
11980TIP3    H135817   2.128   8.540   4.995
11980TIP3    H235818   2.196   8.566   4.863
11981TIP3   OH235819   2.305   8.891   3.499
11981TIP3    H135820   2.281   8.984   3.503
11981TIP3    H235821   2.252   8.856   3.428
11982TIP3   OH235822   4.117   9.003   3.607
11982TIP3    H135823   4.145   9.082   3.654
11982TIP3    H235824   4.154   9.013   3.520
11983TIP3   OH235825   3.495   9.137   3.616
11983TIP3    H135826   3.546   9.072   3.664
11983TIP3    H235827   3.466   9.090   3.537
11984TIP3   OH235828   2.860   8.834   3.558
11984TIP3    H135829   2.847   8.914   3.508
11984TIP3    H235830   2.808   8.768   3.512
11985TIP3   OH235831   3.576   8.908   3.209
11985TIP3    H135832   3.642   8.901   3.278
11985TIP3    H235833   3.626   8.934   3.132
11986TIP3   OH235834   2.474   9.006   3.705
11986TIP3    H135835   2.556   8.958   3.720
11986TIP3    H235836   2.429   8.956   3.638
11987TIP3   OH235837   3.028   9.218   3.376
11987TIP3    H135838   3.059   9.305   3.400
11987TIP3    H235839   2.991   9.183   3.456
11988TIP3   OH235840   7.491  -0.016   3.734
11988TIP3    H135841   7.491   0.039   3.656
11988TIP3    H235842   7.526   0.040   3.803
11989TIP3   OH235843   2.836   8.813   4.024
11989TIP3    H135844   2.771   8.828   3.956
11989TIP3    H235845   2.787   8.823   4.106
11990TIP3   OH235846   3.718   8.920   3.440
11990TIP3    H135847   3.685   8.901   3.528
11990TIP3    H235848   3.777   8.995   3.453
11991TIP3   OH235849   2.711   8.896   3.784
11991TIP3    H135850   2.761   8.972   3.813
11991TIP3    H235851   2.764   8.858   3.714
11992TIP3   OH235852   3.926   8.874   3.768
11992TIP3    H135853   3.839   8.899   3.737
11992TIP3    H235854   3.986   8.917   3.707
11993TIP3   OH235855   3.192   8.539   3.751
11993TIP3    H135856   3.187   8.448   3.779
11993TIP3    H235857   3.114   8.580   3.787
11994TIP3   OH235858   3.055   9.105   2.797
11994TIP3    H135859   3.135   9.148   2.826
11994TIP3    H235860   3.059   9.110   2.701
11995TIP3   OH235861   7.065   0.224   3.878
11995TIP3    H135862   7.058   0.319   3.864
11995TIP3    H235863   6.974   0.195   3.883
11996TIP3   OH235864   3.831   8.494   2.837
11996TIP3    H135865   3.754   8.511   2.890
11996TIP3    H235866   3.842   8.574   2.784
11997TIP3   OH235867   7.264   0.155   4.046
11997TIP3    H135868   7.183   0.163   3.996
11997TIP3    H235869   7.275   0.061   4.057
11998TIP3   OH235870   2.951   8.620   3.865
11998TIP3    H135871   2.866   8.589   3.831
11998TIP3    H235872   2.930   8.699   3.914
11999TIP3   OH235873   3.493   8.757   4.094
11999TIP3    H135874   3.566   8.726   4.148
11999TIP3    H235875   3.416   8.720   4.136
12000TIP3   OH235876   3.724   9.188   4.018
12000TIP3    H135877   3.683   9.172   4.103
12000TIP3    H235878   3.668   9.253   3.976
12001TIP3   OH235879   3.153   8.606   2.860
12001TIP3    H135880   3.102   8.629   2.938
12001TIP3    H235881   3.104   8.535   2.819
12002TIP3   OH235882   2.851   9.109   3.881
12002TIP3    H135883   2.843   9.087   3.974
12002TIP3    H235884   2.826   9.201   3.877
12003TIP3   OH235885   2.793   9.057   3.409
12003TIP3    H135886   2.711   9.085   3.451
12003TIP3    H235887   2.765   9.020   3.325
12004TIP3   OH235888   3.273   9.029   3.114
12004TIP3    H135889   3.343   9.093   3.103
12004TIP3    H235890   3.287   8.966   3.044
12005TIP3   OH235891   6.743   0.131   4.267
12005TIP3    H135892   6.701   0.052   4.302
12005TIP3    H235893   6.835   0.122   4.292
12006TIP3   OH235894   3.413   9.056   3.370
12006TIP3    H135895   3.348   9.080   3.305
12006TIP3    H235896   3.466   8.988   3.327
12007TIP3   OH235897   2.759   9.113   4.142
12007TIP3    H135898   2.697   9.169   4.188
12007TIP3    H235899   2.750   9.028   4.186
12008TIP3   OH235900   2.737   8.595   2.765
12008TIP3    H135901   2.710   8.669   2.819
12008TIP3    H235902   2.693   8.608   2.682
12009TIP3   OH235903   2.377   8.674   3.657
12009TIP3    H135904   2.335   8.750   3.616
12009TIP3    H235905   2.388   8.611   3.585
12010TIP3   OH235906   2.267   8.638   3.219
12010TIP3    H135907   2.281   8.646   3.124
12010TIP3    H235908   2.229   8.721   3.245
12011TIP3   OH235909   6.811   0.127   3.888
12011TIP3    H135910   6.806   0.126   3.793
12011TIP3    H235911   6.741   0.067   3.916
12012TIP3   OH235912   3.126   8.799   3.468
12012TIP3    H135913   3.041   8.790   3.511
12012TIP3    H235914   3.174   8.862   3.522
12013TIP3   OH235915   2.554   8.906   3.392
12013TIP3    H135916   2.469   8.885   3.431
12013TIP3    H235917   2.603   8.824   3.396
12014TIP3   OH235918   2.832   9.022   3.143
12014TIP3    H135919   2.904   8.960   3.150
12014TIP3    H235920   2.775   8.985   3.075
12015TIP3   OH235921   3.624   8.898   3.700
12015TIP3    H135922   3.603   8.921   3.790
12015TIP3    H235923   3.556   8.836   3.674
12016TIP3   OH235924   2.727   8.844   2.950
12016TIP3    H135925   2.663   8.860   2.880
12016TIP3    H235926   2.812   8.846   2.905
12017TIP3   OH235927   3.198   9.032   3.596
12017TIP3    H135928   3.244   9.072   3.522
12017TIP3    H235929   3.115   9.079   3.601
12018TIP3   OH235930   2.689   8.667   3.415
12018TIP3    H135931   2.663   8.589   3.464
12018TIP3    H235932   2.700   8.635   3.325
12019TIP3   OH235933   3.131   9.015   3.872
12019TIP3    H135934   3.052   9.069   3.868
12019TIP3    H235935   3.161   9.009   3.782
12020TIP3   OH235936   3.294   8.838   2.916
12020TIP3    H135937   3.237   8.764   2.894
12020TIP3    H235938   3.319   8.875   2.832
12021TIP3   OH235939   3.490   9.092   2.851
12021TIP3    H135940   3.561   9.040   2.890
12021TIP3    H235941   3.457   9.037   2.780
12022TIP3   OH235942   6.508   0.330   4.266
12022TIP3    H135943   6.467   0.414   4.287
12022TIP3    H235944   6.466   0.302   4.185
12023TIP3   OH235945   3.858   9.110   2.743
12023TIP3    H135946   3.793   9.103   2.673
12023TIP3    H235947   3.863   9.204   2.762
12024TIP3   OH235948   2.707   8.865   4.259
12024TIP3    H135949   2.612   8.875   4.268
12024TIP3    H235950   2.731   8.805   4.330
12025TIP3   OH235951   3.544   8.979   3.947
12025TIP3    H135952   3.621   9.018   3.988
12025TIP3    H235953   3.526   8.901   4.000
12026TIP3   OH235954   3.415   8.707   3.127
12026TIP3    H135955   3.376   8.749   3.050
12026TIP3    H235956   3.471   8.774   3.166
12027TIP3   OH235957   3.059   8.888   3.215
12027TIP3    H135958   3.136   8.937   3.185
12027TIP3    H235959   3.080   8.865   3.305
12028TIP3   OH235960   3.384   9.189   4.032
12028TIP3    H135961   3.402   9.194   4.126
12028TIP3    H235962   3.419   9.103   4.006
12029TIP3   OH235963   3.224   8.604   3.297
12029TIP3    H135964   3.204   8.678   3.354
12029TIP3    H235965   3.296   8.635   3.242
12030TIP3   OH235966   2.728   8.630   3.129
12030TIP3    H135967   2.715   8.710   3.077
12030TIP3    H235968   2.822   8.612   3.119
12031TIP3   OH235969   3.985   9.118   4.000
12031TIP3    H135970   3.892   9.127   4.021
12031TIP3    H235971   3.988   9.124   3.904
12032TIP3   OH235972   3.640   9.236   3.340
12032TIP3    H135973   3.569   9.174   3.357
12032TIP3    H235974   3.712   9.205   3.394
12033TIP3   OH235975   2.236   8.722   2.967
12033TIP3    H135976   2.279   8.807   2.975
12033TIP3    H235977   2.173   8.733   2.897
12034TIP3   OH235978   2.683   8.544   3.825
12034TIP3    H135979   2.654   8.518   3.738
12034TIP3    H235980   2.675   8.464   3.878
12035TIP3   OH235981   6.044   0.218   4.491
12035TIP3    H135982   6.083   0.131   4.490
12035TIP3    H235983   5.986   0.218   4.568
12036TIP3   OH235984   6.307   0.044   4.084
12036TIP3    H135985   6.259   0.099   4.145
12036TIP3    H235986   6.370   0.103   4.043
12037TIP3   OH235987   2.780   9.132   2.798
12037TIP3    H135988   2.765   9.149   2.705
12037TIP3    H235989   2.873   9.108   2.804
12038TIP3   OH235990   3.091   9.093   4.276
12038TIP3    H135991   3.086   9.007   4.235
12038TIP3    H235992   3.072   9.154   4.205
12039TIP3   OH235993   3.089   8.881   4.103
12039TIP3    H135994   3.120   8.928   4.025
12039TIP3    H235995   3.000   8.855   4.081
12040TIP3   OH235996   6.991   0.129   4.383
12040TIP3    H135997   7.040   0.047   4.376
12040TIP3    H235998   7.053   0.197   4.360
12041TIP3   OH235999   2.906   9.214   4.457
12041TIP3    H136000   2.865   9.134   4.490
12041TIP3    H236001   2.969   9.184   4.392
12042TIP3   OH236002   3.239   8.665   4.168
12042TIP3    H136003   3.192   8.745   4.144
12042TIP3    H236004   3.177   8.595   4.149
12043TIP3   OH236005   3.352   9.133   4.353
12043TIP3    H136006   3.364   9.072   4.426
12043TIP3    H236007   3.265   9.113   4.320
12044TIP3   OH236008   3.611   9.102   4.244
12044TIP3    H136009   3.535   9.082   4.298
12044TIP3    H236010   3.686   9.085   4.301
12045TIP3   OH236011   3.838   9.085   4.400
12045TIP3    H136012   3.859   8.992   4.398
12045TIP3    H236013   3.847   9.110   4.492
12046TIP3   OH236014   2.814   8.975   4.556
12046TIP3    H136015   2.821   8.889   4.516
12046TIP3    H236016   2.854   8.964   4.642
12047TIP3   OH236017   3.305   8.672   4.432
12047TIP3    H136018   3.374   8.606   4.430
12047TIP3    H236019   3.271   8.674   4.342
12048TIP3   OH236020   3.406   8.904   4.536
12048TIP3    H136021   3.384   8.820   4.496
12048TIP3    H236022   3.322   8.941   4.562
12049TIP3   OH236023   3.664   9.056   2.548
12049TIP3    H136024   3.649   9.064   2.454
12049TIP3    H236025   3.648   8.964   2.568
12050TIP3   OH236026   6.947   0.161   3.108
12050TIP3    H136027   7.008   0.087   3.107
12050TIP3    H236028   6.924   0.172   3.200
12051TIP3   OH236029   7.330   0.444   4.032
12051TIP3    H136030   7.242   0.435   3.994
12051TIP3    H236031   7.372   0.513   3.981
12052TIP3   OH236032   3.619   8.785   2.568
12052TIP3    H136033   3.701   8.754   2.604
12052TIP3    H236034   3.556   8.715   2.588
12053TIP3   OH236035   3.704   8.973   2.975
12053TIP3    H136036   3.762   8.897   2.966
12053TIP3    H236037   3.763   9.047   2.986
12054TIP3   OH236038   3.846   9.154   3.499
12054TIP3    H136039   3.922   9.147   3.441
12054TIP3    H236040   3.883   9.173   3.585
12055TIP3   OH236041   7.202  -0.011   3.749
12055TIP3    H136042   7.152   0.067   3.772
12055TIP3    H236043   7.291   0.021   3.736
12056TIP3   OH236044   2.549   9.036   4.547
12056TIP3    H136045   2.643   9.026   4.532
12056TIP3    H236046   2.518   8.947   4.565
12057TIP3   OH236047   4.395   8.963   4.264
12057TIP3    H136048   4.459   8.902   4.227
12057TIP3    H236049   4.358   9.007   4.188
12058TIP3   OH236050   3.858   8.747   3.021
12058TIP3    H136051   3.895   8.751   3.110
12058TIP3    H236052   3.789   8.681   3.027
12059TIP3   OH236053   2.518   8.747   3.927
12059TIP3    H136054   2.555   8.666   3.892
12059TIP3    H236055   2.567   8.816   3.883
12060TIP3   OH236056   2.377   9.041   3.960
12060TIP3    H136057   2.424   9.032   3.877
12060TIP3    H236058   2.360   9.134   3.969
12061TIP3   OH236059   4.243   9.053   4.057
12061TIP3    H136060   4.156   9.092   4.063
12061TIP3    H236061   4.230   8.972   4.008
12062TIP3   OH236062   3.867   8.711   2.667
12062TIP3    H136063   3.903   8.650   2.603
12062TIP3    H236064   3.928   8.784   2.668
12063TIP3   OH236065   2.323   8.504   3.443
12063TIP3    H136066   2.236   8.485   3.477
12063TIP3    H236067   2.308   8.556   3.364
12064TIP3   OH236068   2.518   8.600   4.245
12064TIP3    H136069   2.457   8.582   4.316
12064TIP3    H236070   2.468   8.653   4.183
12065TIP3   OH236071   4.150   8.817   3.955
12065TIP3    H136072   4.066   8.822   3.908
12065TIP3    H236073   4.175   8.725   3.947
12066TIP3   OH236074   3.417   8.735   3.623
12066TIP3    H136075   3.342   8.678   3.640
12066TIP3    H236076   3.465   8.691   3.553
12067TIP3   OH236077   3.875   8.665   3.484
12067TIP3    H136078   3.916   8.723   3.420
12067TIP3    H236079   3.783   8.691   3.484
12068TIP3   OH236080   3.997   8.771   3.260
12068TIP3    H136081   4.054   8.695   3.249
12068TIP3    H236082   4.050   8.845   3.229
12069TIP3   OH236083   2.608   8.445   3.574
12069TIP3    H136084   2.518   8.413   3.583
12069TIP3    H236085   2.663   8.367   3.577
12070TIP3   OH236086   2.418   8.330   3.233
12070TIP3    H136087   2.447   8.381   3.157
12070TIP3    H236088   2.399   8.395   3.300
12071TIP3   OH236089   3.077   8.478   3.501
12071TIP3    H136090   3.125   8.520   3.429
12071TIP3    H236091   3.121   8.509   3.580
12072TIP3   OH236092   3.589   8.605   3.450
12072TIP3    H136093   3.631   8.568   3.372
12072TIP3    H236094   3.592   8.535   3.515
12073TIP3   OH236095   3.643   8.569   3.032
12073TIP3    H136096   3.564   8.616   3.056
12073TIP3    H236097   3.634   8.483   3.073
12074TIP3   OH236098   2.526   8.470   3.007
12074TIP3    H136099   2.574   8.419   2.943
12074TIP3    H236100   2.592   8.525   3.049
12075TIP3   OH236101   3.010   8.644   3.101
12075TIP3    H136102   3.063   8.591   3.161
12075TIP3    H236103   3.021   8.734   3.132
12076TIP3   OH236104   2.825   8.707   4.470
12076TIP3    H136105   2.790   8.648   4.536
12076TIP3    H236106   2.918   8.716   4.492
12077TIP3   OH236107   3.074   8.722   4.587
12077TIP3    H136108   3.156   8.703   4.542
12077TIP3    H236109   3.068   8.655   4.655
12078TIP3   OH236110   3.909   8.820   4.390
12078TIP3    H136111   3.927   8.790   4.479
12078TIP3    H236112   3.993   8.816   4.345
12079TIP3   OH236113   4.143   9.175   3.001
12079TIP3    H136114   4.108   9.178   2.912
12079TIP3    H236115   4.141   9.083   3.025
12080TIP3   OH236116   9.211   0.030   3.087
12080TIP3    H136117   9.241   0.109   3.131
12080TIP3    H236118   9.250   0.035   2.999
12081TIP3   OH236119   8.543   0.187   3.061
12081TIP3    H136120   8.595   0.116   3.097
12081TIP3    H236121   8.525   0.161   2.970
12082TIP3   OH236122   5.378   9.199   2.694
12082TIP3    H136123   5.440   9.191   2.766
12082TIP3    H236124   5.430   9.239   2.623
12083TIP3   OH236125   7.545   0.051   3.212
12083TIP3    H136126   7.626   0.000   3.208
12083TIP3    H236127   7.494   0.021   3.137
12084TIP3   OH236128   8.035   0.318   2.988
12084TIP3    H136129   8.131   0.323   2.989
12084TIP3    H236130   8.014   0.272   2.907
12085TIP3   OH236131   9.295   0.237   3.259
12085TIP3    H136132   9.218   0.286   3.230
12085TIP3    H236133   9.327   0.286   3.335
12086TIP3   OH236134   4.639   9.072   3.505
12086TIP3    H136135   4.584   9.102   3.433
12086TIP3    H236136   4.585   9.084   3.583
12087TIP3   OH236137   5.538   9.198   2.917
12087TIP3    H136138   5.493   9.194   3.002
12087TIP3    H236139   5.593   9.277   2.923
12088TIP3   OH236140   4.518   9.142   3.272
12088TIP3    H136141   4.570   9.205   3.223
12088TIP3    H236142   4.524   9.061   3.220
12089TIP3   OH236143   5.739   9.153   3.242
12089TIP3    H136144   5.654   9.181   3.208
12089TIP3    H236145   5.802   9.185   3.178
12090TIP3   OH236146   5.022   8.851   3.233
12090TIP3    H136147   4.986   8.805   3.158
12090TIP3    H236148   4.946   8.870   3.288
12091TIP3   OH236149   8.163   0.113   2.209
12091TIP3    H136150   8.240   0.170   2.207
12091TIP3    H236151   8.185   0.042   2.149
12092TIP3   OH236152   8.906   0.560   3.233
12092TIP3    H136153   8.902   0.652   3.259
12092TIP3    H236154   8.854   0.514   3.299
12093TIP3   OH236155   5.625   8.768   2.338
12093TIP3    H136156   5.548   8.788   2.392
12093TIP3    H236157   5.634   8.843   2.280
12094TIP3   OH236158   9.022   0.420   3.558
12094TIP3    H136159   8.941   0.435   3.509
12094TIP3    H236160   9.053   0.334   3.528
12095TIP3   OH236161   4.770   8.885   3.351
12095TIP3    H136162   4.711   8.867   3.278
12095TIP3    H236163   4.725   8.953   3.402
12096TIP3   OH236164   5.287   9.011   3.574
12096TIP3    H136165   5.359   8.992   3.634
12096TIP3    H236166   5.208   8.981   3.620
12097TIP3   OH236167   8.807   0.174   3.485
12097TIP3    H136168   8.769   0.154   3.571
12097TIP3    H236169   8.784   0.265   3.469
12098TIP3   OH236170   4.898   8.930   2.336
12098TIP3    H136171   4.868   8.927   2.427
12098TIP3    H236172   4.865   8.848   2.298
12099TIP3   OH236173   7.983   0.144   3.412
12099TIP3    H136174   7.907   0.119   3.464
12099TIP3    H236175   7.956   0.127   3.321
12100TIP3   OH236176   4.680   9.145   2.880
12100TIP3    H136177   4.602   9.148   2.936
12100TIP3    H236178   4.644   9.142   2.791
12101TIP3   OH236179   8.342   0.187   2.587
12101TIP3    H136180   8.264   0.201   2.533
12101TIP3    H236181   8.405   0.147   2.527
12102TIP3   OH236182   8.580   0.396   3.711
12102TIP3    H136183   8.541   0.377   3.796
12102TIP3    H236184   8.673   0.377   3.722
12103TIP3   OH236185   8.442   0.089   2.829
12103TIP3    H136186   8.390   0.125   2.756
12103TIP3    H236187   8.512   0.040   2.787
12104TIP3   OH236188   7.781   0.134   3.597
12104TIP3    H136189   7.731   0.195   3.651
12104TIP3    H236190   7.782   0.053   3.647
12105TIP3   OH236191   4.570   8.912   2.311
12105TIP3    H136192   4.562   8.910   2.406
12105TIP3    H236193   4.494   8.962   2.281
12106TIP3   OH236194   4.185   8.915   3.099
12106TIP3    H136195   4.270   8.897   3.138
12106TIP3    H236196   4.175   8.848   3.031
12107TIP3   OH236197   4.045   8.928   2.680
12107TIP3    H136198   4.089   8.971   2.606
12107TIP3    H236199   3.980   8.991   2.709
12108TIP3   OH236200   8.598   0.368   3.263
12108TIP3    H136201   8.605   0.313   3.185
12108TIP3    H236202   8.511   0.350   3.298
12109TIP3   OH236203   4.923   9.034   2.934
12109TIP3    H136204   4.836   9.068   2.914
12109TIP3    H236205   4.962   9.101   2.991
12110TIP3   OH236206   4.436   9.125   3.002
12110TIP3    H136207   4.358   9.129   2.946
12110TIP3    H236208   4.451   9.031   3.015
12111TIP3   OH236209   4.609   9.152   2.611
12111TIP3    H136210   4.701   9.170   2.592
12111TIP3    H236211   4.562   9.179   2.532
12112TIP3   OH236212   5.406   9.201   3.162
12112TIP3    H136213   5.388   9.219   3.254
12112TIP3    H236214   5.338   9.138   3.136
12113TIP3   OH236215   4.453   9.214   2.400
12113TIP3    H136216   4.397   9.163   2.342
12113TIP3    H236217   4.507   9.267   2.342
12114TIP3   OH236218   8.246   0.033   3.079
12114TIP3    H136219   8.337   0.032   3.048
12114TIP3    H236220   8.253   0.032   3.174
12115TIP3   OH236221   8.239   0.067   3.355
12115TIP3    H136222   8.153   0.098   3.383
12115TIP3    H236223   8.300   0.103   3.419
12116TIP3   OH236224   5.148   9.041   2.337
12116TIP3    H136225   5.055   9.023   2.330
12116TIP3    H236226   5.155   9.136   2.337
12117TIP3   OH236227   8.504   0.056   2.415
12117TIP3    H136228   8.599   0.049   2.427
12117TIP3    H236229   8.495   0.103   2.331
12118TIP3   OH236230   8.316   0.567   3.794
12118TIP3    H136231   8.239   0.551   3.740
12118TIP3    H236232   8.385   0.591   3.731
12119TIP3   OH236233   8.901   0.170   2.241
12119TIP3    H136234   8.849   0.135   2.168
12119TIP3    H236235   8.876   0.262   2.246
12120TIP3   OH236236   4.496   9.125   3.733
12120TIP3    H136237   4.401   9.124   3.746
12120TIP3    H236238   4.531   9.072   3.805
12121TIP3   OH236239   5.334   9.235   3.423
12121TIP3    H136240   5.415   9.272   3.458
12121TIP3    H236241   5.318   9.157   3.476
12122TIP3   OH236242   5.222   8.997   2.598
12122TIP3    H136243   5.201   9.017   2.506
12122TIP3    H236244   5.271   9.073   2.628
12123TIP3   OH236245   4.890   9.181   2.609
12123TIP3    H136246   4.973   9.198   2.565
12123TIP3    H236247   4.888   9.243   2.682
12124TIP3   OH236248   8.434   0.196   3.512
12124TIP3    H136249   8.456   0.215   3.603
12124TIP3    H236250   8.497   0.128   3.486
12125TIP3   OH236251   5.051   8.862   2.762
12125TIP3    H136252   5.021   8.925   2.827
12125TIP3    H236253   5.116   8.909   2.709
12126TIP3   OH236254   4.553   8.879   2.583
12126TIP3    H136255   4.544   8.969   2.612
12126TIP3    H236256   4.645   8.858   2.595
12127TIP3   OH236257   9.074   0.168   3.456
12127TIP3    H136258   8.980   0.151   3.465
12127TIP3    H236259   9.092   0.155   3.363
12128TIP3   OH236260   8.735   0.307   2.800
12128TIP3    H136261   8.694   0.382   2.843
12128TIP3    H236262   8.792   0.269   2.867
12129TIP3   OH236263   4.065   9.104   2.458
12129TIP3    H136264   4.081   9.168   2.388
12129TIP3    H236265   4.003   9.042   2.421
12130TIP3   OH236266   4.411   8.800   3.385
12130TIP3    H136267   4.456   8.809   3.301
12130TIP3    H236268   4.446   8.720   3.423
12131TIP3   OH236269   7.862   0.492   3.962
12131TIP3    H136270   7.878   0.398   3.973
12131TIP3    H236271   7.779   0.508   4.007
12132TIP3   OH236272   8.143   0.272   3.591
12132TIP3    H136273   8.081   0.242   3.525
12132TIP3    H236274   8.166   0.361   3.564
12133TIP3   OH236275   7.883   0.114   2.233
12133TIP3    H136276   7.861   0.089   2.144
12133TIP3    H236277   7.979   0.121   2.234
12134TIP3   OH236278   8.165   0.061   3.777
12134TIP3    H136279   8.159  -0.008   3.711
12134TIP3    H236280   8.153   0.143   3.728
12135TIP3   OH236281   4.897   9.131   3.560
12135TIP3    H136282   4.931   9.167   3.477
12135TIP3    H236283   4.806   9.111   3.541
12136TIP3   OH236284   8.850   0.377   3.775
12136TIP3    H136285   8.874   0.291   3.810
12136TIP3    H236286   8.920   0.399   3.714
12137TIP3   OH236287   7.977   0.249   4.033
12137TIP3    H136288   7.940   0.161   4.025
12137TIP3    H236289   8.047   0.252   3.968
12138TIP3   OH236290   5.033   8.918   3.656
12138TIP3    H136291   4.990   8.998   3.624
12138TIP3    H236292   4.970   8.848   3.637
12139TIP3   OH236293   8.436   0.120   3.804
12139TIP3    H136294   8.429   0.191   3.867
12139TIP3    H236295   8.346   0.088   3.794
12140TIP3   OH236296   8.689   0.097   3.712
12140TIP3    H136297   8.601   0.093   3.750
12140TIP3    H236298   8.748   0.094   3.787
12141TIP3   OH236299   8.907   0.116   3.888
12141TIP3    H136300   8.925   0.022   3.883
12141TIP3    H236301   8.903   0.135   3.982
12142TIP3   OH236302   4.606   9.235   4.039
12142TIP3    H136303   4.619   9.149   3.998
12142TIP3    H236304   4.636   9.223   4.129
12143TIP3   OH236305   5.101   8.925   3.919
12143TIP3    H136306   5.172   8.861   3.912
12143TIP3    H236307   5.065   8.932   3.831
12144TIP3   OH236308   5.195   9.138   4.068
12144TIP3    H136309   5.176   9.063   4.012
12144TIP3    H236310   5.117   9.193   4.063
12145TIP3   OH236311   8.740   0.073   2.050
12145TIP3    H136312   8.656   0.116   2.065
12145TIP3    H236313   8.717  -0.010   2.008
12146TIP3   OH236314   8.886   0.271   2.571
12146TIP3    H136315   8.840   0.193   2.539
12146TIP3    H236316   8.835   0.299   2.647
12147TIP3   OH236317   9.251   0.566   3.595
12147TIP3    H136318   9.169   0.524   3.568
12147TIP3    H236319   9.320   0.514   3.552
12148TIP3   OH236320   5.420   9.040   2.000
12148TIP3    H136321   5.487   9.014   2.063
12148TIP3    H236322   5.340   8.997   2.033
12149TIP3   OH236323   8.781   0.036   2.457
12149TIP3    H136324   8.828  -0.046   2.469
12149TIP3    H236325   8.819   0.073   2.377
12150TIP3   OH236326   8.935   0.199   2.964
12150TIP3    H136327   9.007   0.226   2.908
12150TIP3    H236328   8.960   0.230   3.051
12151TIP3   OH236329   9.065   0.347   3.164
12151TIP3    H136330   9.013   0.425   3.185
12151TIP3    H236331   9.102   0.366   3.077
12152TIP3   OH236332   7.608   0.059   3.981
12152TIP3    H136333   7.703   0.054   3.993
12152TIP3    H236334   7.575  -0.025   4.012
12153TIP3   OH236335   6.197   9.213   3.753
12153TIP3    H136336   6.264   9.159   3.710
12153TIP3    H236337   6.158   9.263   3.681
12154TIP3   OH236338   5.635   9.037   2.516
12154TIP3    H136339   5.679   9.024   2.599
12154TIP3    H236340   5.569   8.967   2.513
12155TIP3   OH236341   4.274   9.033   3.381
12155TIP3    H136342   4.312   8.946   3.389
12155TIP3    H236343   4.346   9.088   3.352
12156TIP3   OH236344   7.435   0.083   3.479
12156TIP3    H136345   7.490   0.060   3.404
12156TIP3    H236346   7.393   0.165   3.453
12157TIP3   OH236347   9.315   0.084   3.554
12157TIP3    H136348   9.231   0.130   3.545
12157TIP3    H236349   9.304   0.004   3.502
12158TIP3   OH236350   5.655   8.972   2.153
12158TIP3    H136351   5.706   8.911   2.099
12158TIP3    H236352   5.707   9.052   2.155
12159TIP3   OH236353   4.104   8.756   2.883
12159TIP3    H136354   4.018   8.743   2.923
12159TIP3    H236355   4.089   8.821   2.815
12160TIP3   OH236356   4.317   8.848   3.730
12160TIP3    H136357   4.267   8.843   3.812
12160TIP3    H236358   4.257   8.890   3.668
12161TIP3   OH236359   5.955   9.084   3.445
12161TIP3    H136360   5.873   9.090   3.396
12161TIP3    H236361   5.981   8.992   3.438
12162TIP3   OH236362   5.194   9.038   3.105
12162TIP3    H136363   5.136   8.976   3.149
12162TIP3    H236364   5.246   8.984   3.045
12163TIP3   OH236365   5.661   8.911   2.968
12163TIP3    H136366   5.704   8.961   2.898
12163TIP3    H236367   5.573   8.947   2.972
12164TIP3   OH236368   5.788   8.994   2.741
12164TIP3    H136369   5.857   8.936   2.711
12164TIP3    H236370   5.824   9.082   2.729
12165TIP3   OH236371   4.222   8.572   2.710
12165TIP3    H136372   4.256   8.625   2.638
12165TIP3    H236373   4.188   8.635   2.772
12166TIP3   OH236374   4.847   8.790   3.026
12166TIP3    H136375   4.883   8.867   2.983
12166TIP3    H236376   4.760   8.817   3.056
12167TIP3   OH236377   5.370   8.890   2.955
12167TIP3    H136378   5.382   8.857   2.866
12167TIP3    H236379   5.377   8.812   3.010
12168TIP3   OH236380   5.437   8.840   2.524
12168TIP3    H136381   5.359   8.891   2.544
12168TIP3    H236382   5.420   8.754   2.563
12169TIP3   OH236383   4.344   8.714   2.498
12169TIP3    H136384   4.389   8.658   2.434
12169TIP3    H236385   4.412   8.770   2.533
12170TIP3   OH236386   4.828   8.911   2.605
12170TIP3    H136387   4.897   8.871   2.659
12170TIP3    H236388   4.843   9.005   2.614
12171TIP3   OH236389   4.621   8.967   3.945
12171TIP3    H136390   4.586   8.907   4.010
12171TIP3    H236391   4.713   8.977   3.968
12172TIP3   OH236392   4.866   8.980   4.066
12172TIP3    H136393   4.951   8.963   4.024
12172TIP3    H236394   4.860   8.915   4.135
12173TIP3   OH236395   5.705   9.088   3.874
12173TIP3    H136396   5.723   9.058   3.963
12173TIP3    H236397   5.789   9.081   3.829
12174TIP3   OH236398   9.115   0.206   2.427
12174TIP3    H136399   9.054   0.241   2.492
12174TIP3    H236400   9.061   0.192   2.349
12175TIP3   OH236401   0.556   0.484   2.576
12175TIP3    H136402   0.590   0.398   2.602
12175TIP3    H236403   0.527   0.471   2.486
12176TIP3   OH236404   9.714   0.119   2.528
12176TIP3    H136405   9.691   0.198   2.479
12176TIP3    H236406   9.655   0.052   2.493
12177TIP3   OH236407   0.643   0.226   2.215
12177TIP3    H136408   0.699   0.219   2.292
12177TIP3    H236409   0.703   0.211   2.141
12178TIP3   OH236410   9.354   0.302   2.714
12178TIP3    H136411   9.448   0.301   2.730
12178TIP3    H236412   9.345   0.281   2.621
12179TIP3   OH236413   9.767   0.476   2.580
12179TIP3    H136414   9.856   0.453   2.552
12179TIP3    H236415   9.712   0.445   2.508
12180TIP3   OH236416   9.714   0.123   2.993
12180TIP3    H136417   9.665   0.165   2.922
12180TIP3    H236418   9.659   0.135   3.071
12181TIP3   OH236419   0.798   0.209   2.440
12181TIP3    H136420   0.734   0.213   2.512
12181TIP3    H236421   0.882   0.227   2.481
12182TIP3   OH236422   9.621   0.236   2.759
12182TIP3    H136423   9.683   0.308   2.763
12182TIP3    H236424   9.650   0.182   2.685
12183TIP3   OH236425   0.906   0.168   2.712
12183TIP3    H136426   0.815   0.196   2.709
12183TIP3    H236427   0.952   0.241   2.754
12184TIP3   OH236428   6.779   9.058   2.732
12184TIP3    H136429   6.774   8.966   2.760
12184TIP3    H236430   6.701   9.099   2.770
12185TIP3   OH236431   0.159   0.456   1.749
12185TIP3    H136432   0.145   0.396   1.823
12185TIP3    H236433   0.209   0.405   1.686
12186TIP3   OH236434   7.463   9.070   1.913
12186TIP3    H136435   7.378   9.080   1.957
12186TIP3    H236436   7.489   9.160   1.891
12187TIP3   OH236437   6.542   9.146   2.851
12187TIP3    H136438   6.458   9.116   2.816
12187TIP3    H236439   6.522   9.229   2.895
12188TIP3   OH236440   0.561   0.045   3.059
12188TIP3    H136441   0.634   0.012   3.110
12188TIP3    H236442   0.483   0.015   3.106
12189TIP3   OH236443   0.790   0.471   2.967
12189TIP3    H136444   0.753   0.478   3.055
12189TIP3    H236445   0.737   0.530   2.914
12190TIP3   OH236446   6.741   9.108   1.840
12190TIP3    H136447   6.721   9.144   1.926
12190TIP3    H236448   6.663   9.057   1.817
12191TIP3   OH236449   9.756   0.495   2.851
12191TIP3    H136450   9.667   0.480   2.886
12191TIP3    H236451   9.742   0.510   2.758
12192TIP3   OH236452   9.616   0.339   2.393
12192TIP3    H136453   9.526   0.315   2.415
12192TIP3    H236454   9.631   0.301   2.307
12193TIP3   OH236455   0.317   0.418   2.088
12193TIP3    H136456   0.294   0.509   2.070
12193TIP3    H236457   0.379   0.394   2.019
12194TIP3   OH236458   0.472   0.654   3.177
12194TIP3    H136459   0.468   0.584   3.242
12194TIP3    H236460   0.565   0.679   3.176
12195TIP3   OH236461   0.451   0.390   2.335
12195TIP3    H136462   0.395   0.409   2.260
12195TIP3    H236463   0.520   0.334   2.300
12196TIP3   OH236464   9.577   0.421   3.060
12196TIP3    H136465   9.644   0.470   3.107
12196TIP3    H236466   9.562   0.343   3.114
12197TIP3   OH236467   6.340   9.174   1.837
12197TIP3    H136468   6.336   9.179   1.933
12197TIP3    H236469   6.256   9.207   1.808
12198TIP3   OH236470   9.173  -0.012   2.680
12198TIP3    H136471   9.245   0.023   2.733
12198TIP3    H236472   9.194   0.015   2.591
12199TIP3   OH236473   9.074  -0.033   2.162
12199TIP3    H136474   9.110   0.001   2.080
12199TIP3    H236475   9.017   0.037   2.194
12200TIP3   OH236476   0.604   0.611   2.818
12200TIP3    H136477   0.599   0.586   2.725
12200TIP3    H236478   0.516   0.595   2.851
12201TIP3   OH236479   0.173   0.124   2.419
12201TIP3    H136480   0.090   0.107   2.465
12201TIP3    H236481   0.209   0.201   2.463
12202TIP3   OH236482   9.386   0.202   2.456
12202TIP3    H136483   9.294   0.203   2.431
12202TIP3    H236484   9.417   0.115   2.431
12203TIP3   OH236485   9.650   0.194   2.164
12203TIP3    H136486   9.740   0.214   2.135
12203TIP3    H236487   9.595   0.220   2.090
12204TIP3   OH236488   0.631   0.229   2.665
12204TIP3    H136489   0.604   0.252   2.754
12204TIP3    H236490   0.569   0.162   2.638
12205TIP3   OH236491   9.489   0.235   1.948
12205TIP3    H136492   9.432   0.182   1.892
12205TIP3    H236493   9.560   0.263   1.891
12206TIP3   OH236494   0.229   0.374   2.530
12206TIP3    H136495   0.314   0.395   2.491
12206TIP3    H236496   0.247   0.369   2.624
12207TIP3   OH236497   6.254   9.193   2.414
12207TIP3    H136498   6.229   9.117   2.466
12207TIP3    H236499   6.271   9.158   2.326
12208TIP3   OH236500   0.201   0.367   2.814
12208TIP3    H136501   0.120   0.417   2.824
12208TIP3    H236502   0.267   0.420   2.860
12209TIP3   OH236503   0.378   0.140   1.922
12209TIP3    H136504   0.294   0.138   1.877
12209TIP3    H236505   0.424   0.215   1.882
12210TIP3   OH236506   0.476   0.402   1.857
12210TIP3    H136507   0.567   0.384   1.830
12210TIP3    H236508   0.451   0.478   1.804
12211TIP3   OH236509   0.241   0.778   3.253
12211TIP3    H136510   0.249   0.867   3.219
12211TIP3    H236511   0.318   0.732   3.219
12212TIP3   OH236512   9.563   0.176   3.216
12212TIP3    H136513   9.469   0.184   3.230
12212TIP3    H236514   9.594   0.126   3.292
12213TIP3   OH236515   0.576   0.288   2.931
12213TIP3    H136516   0.662   0.322   2.953
12213TIP3    H236517   0.570   0.204   2.976
12214TIP3   OH236518   0.480   0.015   2.136
12214TIP3    H136519   0.440   0.053   2.058
12214TIP3    H236520   0.528   0.087   2.176
12215TIP3   OH236521   0.131   0.217   2.157
12215TIP3    H136522   0.197   0.282   2.133
12215TIP3    H236523   0.149   0.197   2.248
12216TIP3   OH236524   0.391   0.495   2.961
12216TIP3    H136525   0.416   0.546   3.038
12216TIP3    H236526   0.452   0.422   2.959
12217TIP3   OH236527   6.816   9.144   2.292
12217TIP3    H136528   6.789   9.221   2.341
12217TIP3    H236529   6.894   9.171   2.244
12218TIP3   OH236530   6.350   9.163   2.119
12218TIP3    H136531   6.347   9.255   2.145
12218TIP3    H236532   6.443   9.143   2.112
12219TIP3   OH236533   1.020   0.366   2.858
12219TIP3    H136534   0.948   0.413   2.900
12219TIP3    H236535   1.084   0.352   2.928
12220TIP3   OH236536   9.104   0.119   1.933
12220TIP3    H136537   9.154   0.177   1.875
12220TIP3    H236538   9.013   0.132   1.907
12221TIP3   OH236539   6.278   9.070   2.809
12221TIP3    H136540   6.251   9.041   2.722
12221TIP3    H236541   6.269   8.992   2.864
12222TIP3   OH236542   9.589   0.650   3.487
12222TIP3    H136543   9.672   0.624   3.449
12222TIP3    H236544   9.550   0.709   3.423
12223TIP3   OH236545   0.021   0.568   3.111
12223TIP3    H136546   0.069   0.650   3.121
12223TIP3    H236547   0.012   0.556   3.016
12224TIP3   OH236548   9.702   0.289   1.793
12224TIP3    H136549   9.680   0.297   1.700
12224TIP3    H236550   9.786   0.243   1.794
12225TIP3   OH236551   0.169   0.385   3.249
12225TIP3    H136552   0.178   0.310   3.191
12225TIP3    H236553   0.121   0.449   3.197
12226TIP3   OH236554   0.171   0.200   3.039
12226TIP3    H136555   0.196   0.243   2.958
12226TIP3    H236556   0.081   0.172   3.025
12227TIP3   OH236557   0.800   0.665   3.339
12227TIP3    H136558   0.762   0.591   3.293
12227TIP3    H236559   0.894   0.659   3.320
12228TIP3   OH236560   0.032   0.494   3.468
12228TIP3    H136561  -0.031   0.426   3.492
12228TIP3    H236562   0.073   0.461   3.388
12229TIP3   OH236563   6.830   9.213   3.135
12229TIP3    H136564   6.791   9.293   3.100
12229TIP3    H236565   6.764   9.145   3.118
12230TIP3   OH236566   0.428   0.439   3.341
12230TIP3    H136567   0.423   0.433   3.436
12230TIP3    H236568   0.341   0.414   3.311
12231TIP3   OH236569   0.682   0.445   3.221
12231TIP3    H136570   0.599   0.420   3.262
12231TIP3    H236571   0.748   0.395   3.269
12232TIP3   OH236572   0.890   0.358   3.378
12232TIP3    H136573   0.913   0.265   3.369
12232TIP3    H236574   0.882   0.371   3.473
12233TIP3   OH236575   9.674   0.281   3.548
12233TIP3    H136576   9.676   0.194   3.507
12233TIP3    H236577   9.714   0.267   3.634
12234TIP3   OH236578   6.885   9.196   3.401
12234TIP3    H136579   6.959   9.136   3.397
12234TIP3    H236580   6.858   9.206   3.309
12235TIP3   OH236581   0.438   0.168   3.553
12235TIP3    H136582   0.410   0.098   3.494
12235TIP3    H236583   0.366   0.231   3.552
12236TIP3   OH236584   0.803   0.117   1.672
12236TIP3    H136585   0.887   0.073   1.684
12236TIP3    H236586   0.773   0.088   1.586
12237TIP3   OH236587   9.406   0.345   3.491
12237TIP3    H136588   9.499   0.355   3.507
12237TIP3    H236589   9.383   0.261   3.532
12238TIP3   OH236590   0.465   1.966   7.005
12238TIP3    H136591   0.480   1.901   7.073
12238TIP3    H236592   0.548   1.972   6.959
12239TIP3   OH236593   0.839   0.107   2.055
12239TIP3    H136594   0.917   0.090   2.108
12239TIP3    H236595   0.792   0.024   2.054
12240TIP3   OH236596   9.380   0.047   2.865
12240TIP3    H136597   9.442  -0.025   2.850
12240TIP3    H236598   9.424   0.124   2.830
12241TIP3   OH236599   9.174   0.369   2.912
12241TIP3    H136600   9.227   0.327   2.845
12241TIP3    H236601   9.197   0.462   2.905
12242TIP3   OH236602   5.888   9.068   2.386
12242TIP3    H136603   5.803   9.056   2.430
12242TIP3    H236604   5.868   9.124   2.311
12243TIP3   OH236605   6.121   9.099   3.216
12243TIP3    H136606   6.071   9.101   3.298
12243TIP3    H236607   6.067   9.149   3.154
12244TIP3   OH236608   1.177   0.117   2.962
12244TIP3    H136609   1.131   0.131   2.879
12244TIP3    H236610   1.228   0.037   2.948
12245TIP3   OH236611   0.455   0.035   2.592
12245TIP3    H136612   0.384  -0.026   2.613
12245TIP3    H236613   0.509  -0.013   2.529
12246TIP3   OH236614   7.463   9.186   2.428
12246TIP3    H136615   7.511   9.236   2.361
12246TIP3    H236616   7.389   9.242   2.451
12247TIP3   OH236617   1.065   0.052   2.208
12247TIP3    H136618   1.119  -0.026   2.195
12247TIP3    H236619   1.128   0.122   2.223
12248TIP3   OH236620   6.196   8.967   2.567
12248TIP3    H136621   6.107   8.934   2.575
12248TIP3    H236622   6.250   8.889   2.558
12249TIP3   OH236623   6.035   8.878   2.252
12249TIP3    H136624   6.059   8.925   2.172
12249TIP3    H236625   5.988   8.943   2.304
12250TIP3   OH236626   6.673   8.997   2.480
12250TIP3    H136627   6.718   9.049   2.412
12250TIP3    H236628   6.713   9.026   2.562
12251TIP3   OH236629   7.157   9.128   2.434
12251TIP3    H136630   7.199   9.095   2.354
12251TIP3    H236631   7.171   9.059   2.499
12252TIP3   OH236632   7.231   9.109   2.050
12252TIP3    H136633   7.149   9.156   2.067
12252TIP3    H236634   7.218   9.024   2.093
12253TIP3   OH236635   6.134   9.009   2.024
12253TIP3    H136636   6.176   8.945   1.966
12253TIP3    H236637   6.207   9.058   2.063
12254TIP3   OH236638   6.632   9.192   2.085
12254TIP3    H136639   6.686   9.154   2.154
12254TIP3    H236640   6.641   9.286   2.096
12255TIP3   OH236641   6.421   9.256   3.442
12255TIP3    H136642   6.389   9.190   3.504
12255TIP3    H236643   6.514   9.265   3.462
12256TIP3   OH236644   6.668   9.257   3.567
12256TIP3    H136645   6.745   9.233   3.515
12256TIP3    H236646   6.664   9.190   3.635
12257TIP3   OH236647   0.964   0.097   3.361
12257TIP3    H136648   0.984   0.064   3.449
12257TIP3    H236649   1.049   0.100   3.317
12258TIP3   OH236650   2.220   0.626   7.819
12258TIP3    H136651   2.179   0.575   7.888
12258TIP3    H236652   2.222   0.715   7.854
12259TIP3   OH236653   1.828   1.055   7.808
12259TIP3    H136654   1.855   0.995   7.740
12259TIP3    H236655   1.882   1.032   7.884
12260TIP3   OH236656   2.213   0.877   7.939
12260TIP3    H136657   2.139   0.906   7.992
12260TIP3    H236658   2.232   0.951   7.881
12261TIP3   OH236659   1.978   0.910   7.628
12261TIP3    H136660   2.018   0.825   7.610
12261TIP3    H236661   2.049   0.973   7.612
12262TIP3   OH236662   2.110   0.676   7.573
12262TIP3    H136663   2.136   0.606   7.513
12262TIP3    H236664   2.154   0.656   7.655
12263TIP3   OH236665   5.628   5.428   0.392
12263TIP3    H136666   5.670   5.343   0.387
12263TIP3    H236667   5.688   5.488   0.346
12264TIP3   OH236668   5.972   4.991   0.065
12264TIP3    H136669   5.900   5.032   0.112
12264TIP3    H236670   6.008   5.060   0.010
12265TIP3   OH236671   2.323   0.756   7.014
12265TIP3    H136672   2.323   0.848   6.989
12265TIP3    H236673   2.413   0.727   7.002
12266TIP3   OH236674   6.021   5.761   0.472
12266TIP3    H136675   5.945   5.710   0.446
12266TIP3    H236676   5.993   5.852   0.466
12267TIP3   OH236677   1.614   1.069   7.460
12267TIP3    H136678   1.569   1.052   7.377
12267TIP3    H236679   1.573   1.149   7.493
12268TIP3   OH236680   1.817   0.961   7.130
12268TIP3    H136681   1.874   0.892   7.096
12268TIP3    H236682   1.850   0.977   7.218
12269TIP3   OH236683   1.871   1.019   7.395
12269TIP3    H136684   1.780   1.031   7.424
12269TIP3    H236685   1.914   0.975   7.468
12270TIP3   OH236686   5.754   6.176   0.627
12270TIP3    H136687   5.726   6.233   0.556
12270TIP3    H236688   5.768   6.235   0.701
12271TIP3   OH236689   5.762   5.165   0.100
12271TIP3    H136690   5.796   5.232   0.040
12271TIP3    H236691   5.675   5.197   0.124
12272TIP3   OH236692   5.925   5.481   0.556
12272TIP3    H136693   5.879   5.398   0.547
12272TIP3    H236694   5.990   5.480   0.486
12273TIP3   OH236695   2.242   0.822   7.272
12273TIP3    H136696   2.215   0.746   7.324
12273TIP3    H236697   2.265   0.785   7.187
12274TIP3   OH236698   2.030   0.571   7.196
12274TIP3    H136699   2.091   0.539   7.263
12274TIP3    H236700   1.943   0.557   7.233
12275TIP3   OH236701   5.533   5.782   0.216
12275TIP3    H136702   5.442   5.756   0.228
12275TIP3    H236703   5.530   5.851   0.150
12276TIP3   OH236704   2.325   1.030   6.978
12276TIP3    H136705   2.368   1.103   6.933
12276TIP3    H236706   2.246   1.068   7.017
12277TIP3   OH236707   2.193   0.478   7.396
12277TIP3    H136708   2.176   0.387   7.421
12277TIP3    H236709   2.288   0.482   7.386
12278TIP3   OH236710   2.280   1.130   7.838
12278TIP3    H136711   2.233   1.179   7.771
12278TIP3    H236712   2.373   1.151   7.823
12279TIP3   OH236713   1.963   0.764   7.006
12279TIP3    H136714   2.005   0.704   7.068
12279TIP3    H236715   2.020   0.763   6.929
12280TIP3   OH236716   2.305   0.280   7.035
12280TIP3    H136717   2.285   0.221   6.962
12280TIP3    H236718   2.267   0.364   7.008
12281TIP3   OH236719   2.538   1.229   7.824
12281TIP3    H136720   2.545   1.264   7.913
12281TIP3    H236721   2.597   1.284   7.772
12282TIP3   OH236722   5.821   5.869   0.093
12282TIP3    H136723   5.776   5.785   0.090
12282TIP3    H236724   5.910   5.847   0.120
12283TIP3   OH236725   2.464   0.461   7.384
12283TIP3    H136726   2.522   0.530   7.350
12283TIP3    H236727   2.510   0.427   7.460
12284TIP3   OH236728   2.586   0.343   7.604
12284TIP3    H136729   2.537   0.348   7.686
12284TIP3    H236730   2.672   0.379   7.625
12285TIP3   OH236731   2.593   0.738   7.941
12285TIP3    H136732   2.663   0.681   7.908
12285TIP3    H236733   2.601   0.818   7.888
12286TIP3   OH236734   5.697   5.620   0.071
12286TIP3    H136735   5.626   5.664   0.118
12286TIP3    H236736   5.652   5.565   0.007
12287TIP3   OH236737   2.504   0.240   7.220
12287TIP3    H136738   2.437   0.241   7.152
12287TIP3    H236739   2.484   0.316   7.275
12288TIP3   OH236740   6.039   5.206   0.515
12288TIP3    H136741   6.063   5.114   0.530
12288TIP3    H236742   5.962   5.220   0.570
12289TIP3   OH236743   6.072   4.947   0.580
12289TIP3    H136744   6.017   4.899   0.642
12289TIP3    H236745   6.157   4.954   0.624
12290TIP3   OH236746   2.151   1.106   7.556
12290TIP3    H136747   2.196   1.103   7.471
12290TIP3    H236748   2.156   1.198   7.582
12291TIP3   OH236749   5.340   5.895   0.553
12291TIP3    H136750   5.391   5.842   0.615
12291TIP3    H236751   5.260   5.917   0.601
12292TIP3   OH236752   5.072   5.847   0.108
12292TIP3    H136753   5.008   5.842   0.037
12292TIP3    H236754   5.040   5.916   0.166
12293TIP3   OH236755   5.245   5.735   0.295
12293TIP3    H136756   5.186   5.743   0.370
12293TIP3    H236757   5.188   5.744   0.219
12294TIP3   OH236758   2.223   1.346   8.016
12294TIP3    H136759   2.226   1.434   7.980
12294TIP3    H236760   2.250   1.289   7.943
12295TIP3   OH236761   1.549   0.989   7.199
12295TIP3    H136762   1.640   0.989   7.170
12295TIP3    H236763   1.517   0.901   7.179
12296TIP3   OH236764   2.272   1.089   7.309
12296TIP3    H136765   2.266   0.993   7.301
12296TIP3    H236766   2.227   1.122   7.232
12297TIP3   OH236767   5.769   5.911   0.675
12297TIP3    H136768   5.741   5.860   0.598
12297TIP3    H236769   5.762   6.002   0.647
12298TIP3   OH236770   3.765   0.620   7.256
12298TIP3    H136771   3.730   0.705   7.228
12298TIP3    H236772   3.697   0.557   7.230
12299TIP3   OH236773   3.756   0.611   7.651
12299TIP3    H136774   3.803   0.593   7.732
12299TIP3    H236775   3.710   0.529   7.631
12300TIP3   OH236776   3.060   0.540   7.965
12300TIP3    H136777   3.075   0.461   8.017
12300TIP3    H236778   3.141   0.553   7.916
12301TIP3   OH236779   4.028   0.917   7.349
12301TIP3    H136780   4.012   0.852   7.418
12301TIP3    H236781   4.048   0.997   7.397
12302TIP3   OH236782   3.067   0.901   7.699
12302TIP3    H136783   3.041   0.809   7.696
12302TIP3    H236784   3.161   0.900   7.681
12303TIP3   OH236785   2.709   0.128   7.467
12303TIP3    H136786   2.663   0.193   7.520
12303TIP3    H236787   2.663   0.128   7.383
12304TIP3   OH236788   2.840   0.428   7.663
12304TIP3    H136789   2.896   0.354   7.687
12304TIP3    H236790   2.901   0.497   7.638
12305TIP3   OH236791   3.706   1.328   7.371
12305TIP3    H136792   3.724   1.266   7.300
12305TIP3    H236793   3.726   1.280   7.451
12306TIP3   OH236794   3.584   0.840   7.633
12306TIP3    H136795   3.625   0.755   7.613
12306TIP3    H236796   3.657   0.896   7.658
12307TIP3   OH236797   3.981   0.324   7.735
12307TIP3    H136798   4.030   0.254   7.777
12307TIP3    H236799   3.953   0.287   7.651
12308TIP3   OH236800   2.996   0.218   7.748
12308TIP3    H136801   3.076   0.189   7.792
12308TIP3    H236802   2.987   0.158   7.674
12309TIP3   OH236803   3.381   0.385   7.597
12309TIP3    H136804   3.474   0.367   7.603
12309TIP3    H236805   3.341   0.300   7.579
12310TIP3   OH236806   4.579   0.346   7.943
12310TIP3    H136807   4.514   0.389   7.888
12310TIP3    H236808   4.633   0.296   7.882
12311TIP3   OH236809   3.659   0.833   7.114
12311TIP3    H136810   3.619   0.801   7.032
12311TIP3    H236811   3.606   0.908   7.139
12312TIP3   OH236812   3.442   0.751   7.850
12312TIP3    H136813   3.380   0.816   7.885
12312TIP3    H236814   3.484   0.796   7.776
12313TIP3   OH236815   3.208   0.109   7.884
12313TIP3    H136816   3.272   0.175   7.911
12313TIP3    H236817   3.260   0.031   7.865
12314TIP3   OH236818   3.263   0.936   7.945
12314TIP3    H136819   3.230   1.007   7.891
12314TIP3    H236820   3.191   0.918   8.006
12315TIP3   OH236821   2.625   0.652   7.264
12315TIP3    H136822   2.596   0.663   7.174
12315TIP3    H236823   2.650   0.740   7.293
12316TIP3   OH236824   4.061   1.164   7.487
12316TIP3    H136825   3.971   1.162   7.519
12316TIP3    H236826   4.068   1.247   7.441
12317TIP3   OH236827   3.776   1.187   7.139
12317TIP3    H136828   3.829   1.109   7.128
12317TIP3    H236829   3.833   1.259   7.114
12318TIP3   OH236830   3.912   0.954   7.101
12318TIP3    H136831   3.835   0.897   7.105
12318TIP3    H236832   3.961   0.933   7.181
12319TIP3   OH236833   4.315   1.046   7.830
12319TIP3    H136834   4.284   0.975   7.774
12319TIP3    H236835   4.300   1.125   7.779
12320TIP3   OH236836   3.604   0.446   7.108
12320TIP3    H136837   3.518   0.484   7.091
12320TIP3    H236838   3.650   0.451   7.024
12321TIP3   OH236839   3.577   0.246   6.851
12321TIP3    H136840   3.655   0.299   6.867
12321TIP3    H236841   3.581   0.176   6.915
12322TIP3   OH236842   4.469   0.727   7.704
12322TIP3    H136843   4.383   0.769   7.698
12322TIP3    H236844   4.503   0.730   7.615
12323TIP3   OH236845   3.949   0.553   7.066
12323TIP3    H136846   3.894   0.581   7.139
12323TIP3    H236847   4.033   0.530   7.107
12324TIP3   OH236848   4.148   0.548   7.969
12324TIP3    H136849   4.171   0.627   8.019
12324TIP3    H236850   4.060   0.565   7.937
12325TIP3   OH236851   3.190   0.526   7.451
12325TIP3    H136852   3.144   0.463   7.396
12325TIP3    H236853   3.259   0.475   7.493
12326TIP3   OH236854   3.324   0.943   7.595
12326TIP3    H136855   3.295   0.928   7.505
12326TIP3    H236856   3.414   0.909   7.596
12327TIP3   OH236857   3.280   0.536   7.803
12327TIP3    H136858   3.319   0.490   7.729
12327TIP3    H236859   3.342   0.606   7.822
12328TIP3   OH236860   3.809   1.175   7.593
12328TIP3    H136861   3.807   1.246   7.657
12328TIP3    H236862   3.809   1.096   7.646
12329TIP3   OH236863   6.686   5.686   0.122
12329TIP3    H136864   6.621   5.752   0.144
12329TIP3    H236865   6.645   5.634   0.053
12330TIP3   OH236866   3.794   0.410   6.890
12330TIP3    H136867   3.851   0.468   6.941
12330TIP3    H236868   3.816   0.429   6.799
12331TIP3   OH236869   6.557   5.240   0.117
12331TIP3    H136870   6.576   5.321   0.164
12331TIP3    H236871   6.461   5.237   0.111
12332TIP3   OH236872   3.525   1.073   7.149
12332TIP3    H136873   3.608   1.121   7.156
12332TIP3    H236874   3.466   1.132   7.103
12333TIP3   OH236875   6.482   5.872   0.164
12333TIP3    H136876   6.467   5.866   0.069
12333TIP3    H236877   6.395   5.877   0.202
12334TIP3   OH236878   3.040   0.368   7.280
12334TIP3    H136879   2.962   0.411   7.247
12334TIP3    H236880   3.013   0.277   7.295
12335TIP3   OH236881   4.109   1.007   6.516
12335TIP3    H136882   4.102   1.100   6.495
12335TIP3    H236883   4.199   0.984   6.494
12336TIP3   OH236884   6.082   5.450   0.095
12336TIP3    H136885   6.008   5.455   0.034
12336TIP3    H236886   6.091   5.357   0.115
12337TIP3   OH236887   2.661   0.978   7.830
12337TIP3    H136888   2.750   1.008   7.849
12337TIP3    H236889   2.607   1.056   7.840
12338TIP3   OH236890   4.536   1.428   7.896
12338TIP3    H136891   4.544   1.333   7.906
12338TIP3    H236892   4.454   1.450   7.940
12339TIP3   OH236893   6.911   5.802   0.001
12339TIP3    H136894   6.913   5.894   0.028
12339TIP3    H236895   6.833   5.766   0.043
12340TIP3   OH236896   3.417   1.292   6.982
12340TIP3    H136897   3.369   1.272   6.902
12340TIP3    H236898   3.381   1.376   7.011
12341TIP3   OH236899   2.849   1.150   7.350
12341TIP3    H136900   2.898   1.141   7.431
12341TIP3    H236901   2.803   1.066   7.339
12342TIP3   OH236902   3.618   1.230   6.606
12342TIP3    H136903   3.668   1.156   6.573
12342TIP3    H236904   3.653   1.244   6.695
12343TIP3   OH236905   3.670   1.271   6.877
12343TIP3    H136906   3.584   1.274   6.918
12343TIP3    H236907   3.727   1.234   6.945
12344TIP3   OH236908   7.742   5.102   0.151
12344TIP3    H136909   7.647   5.103   0.142
12344TIP3    H236910   7.772   5.038   0.086
12345TIP3   OH236911   6.327   5.569   0.128
12345TIP3    H136912   6.306   5.642   0.187
12345TIP3    H236913   6.242   5.534   0.101
12346TIP3   OH236914   7.352   4.913   0.056
12346TIP3    H136915   7.416   4.897   0.126
12346TIP3    H236916   7.379   4.996   0.018
12347TIP3   OH236917   3.831   0.425   6.614
12347TIP3    H136918   3.807   0.391   6.528
12347TIP3    H236919   3.913   0.472   6.601
12348TIP3   OH236920   3.365   0.319   7.974
12348TIP3    H136921   3.298   0.331   8.041
12348TIP3    H236922   3.359   0.398   7.920
12349TIP3   OH236923   3.236   0.163   7.522
12349TIP3    H136924   3.147   0.134   7.542
12349TIP3    H236925   3.251   0.133   7.432
12350TIP3   OH236926   3.731   0.251   7.255
12350TIP3    H136927   3.681   0.323   7.218
12350TIP3    H236928   3.787   0.221   7.184
12351TIP3   OH236929   7.217   5.218   0.224
12351TIP3    H136930   7.162   5.155   0.270
12351TIP3    H236931   7.300   5.173   0.210
12352TIP3   OH236932   3.890   0.252   7.483
12352TIP3    H136933   3.828   0.276   7.413
12352TIP3    H236934   3.931   0.171   7.451
12353TIP3   OH236935   6.398   4.949   0.122
12353TIP3    H136936   6.362   4.984   0.203
12353TIP3    H236937   6.359   4.862   0.114
12354TIP3   OH236938   3.879   0.523   7.884
12354TIP3    H136939   3.918   0.455   7.829
12354TIP3    H236940   3.849   0.476   7.962
12355TIP3   OH236941   2.969   0.057   7.530
12355TIP3    H136942   2.878   0.080   7.508
12355TIP3    H236943   2.985  -0.025   7.484
12356TIP3   OH236944   3.259   0.067   7.269
12356TIP3    H136945   3.353   0.058   7.257
12356TIP3    H236946   3.224   0.075   7.179
12357TIP3   OH236947   3.171   0.098   7.009
12357TIP3    H136948   3.100   0.041   6.980
12357TIP3    H236949   3.228   0.107   6.933
12358TIP3   OH236950   4.250   1.761   7.975
12358TIP3    H136951   4.250   1.779   7.881
12358TIP3    H236952   4.327   1.809   8.008
12359TIP3   OH236953   6.404   5.557   0.435
12359TIP3    H136954   6.489   5.535   0.396
12359TIP3    H236955   6.395   5.497   0.508
12360TIP3   OH236956   3.655   0.345   7.644
12360TIP3    H136957   3.731   0.301   7.608
12360TIP3    H236958   3.647   0.311   7.733
12361TIP3   OH236959   3.629   0.251   7.899
12361TIP3    H136960   3.543   0.267   7.936
12361TIP3    H236961   3.690   0.276   7.969
12362TIP3   OH236962   3.364   0.566   7.046
12362TIP3    H136963   3.296   0.501   7.030
12362TIP3    H236964   3.329   0.618   7.119
12363TIP3   OH236965   4.233   0.854   7.650
12363TIP3    H136966   4.269   0.901   7.575
12363TIP3    H236967   4.153   0.812   7.616
12364TIP3   OH236968   7.044   5.544  -0.006
12364TIP3    H136969   7.025   5.479   0.062
12364TIP3    H236970   7.010   5.626   0.030
12365TIP3   OH236971   3.889   0.190   7.042
12365TIP3    H136972   3.984   0.188   7.053
12365TIP3    H236973   3.873   0.261   6.979
12366TIP3   OH236974   3.043   0.621   7.662
12366TIP3    H136975   3.090   0.601   7.581
12366TIP3    H236976   3.101   0.589   7.731
12367TIP3   OH236977   3.505   0.745   6.895
12367TIP3    H136978   3.456   0.827   6.893
12367TIP3    H236979   3.451   0.684   6.946
12368TIP3   OH236980   6.279   5.015   0.353
12368TIP3    H136981   6.293   5.033   0.446
12368TIP3    H236982   6.205   4.954   0.352
12369TIP3   OH236983   6.978   5.362   0.193
12369TIP3    H136984   6.916   5.291   0.180
12369TIP3    H236985   7.063   5.319   0.202
12370TIP3   OH236986   3.916   1.205   7.917
12370TIP3    H136987   3.823   1.192   7.935
12370TIP3    H236988   3.947   1.260   7.989
12371TIP3   OH236989   4.283   0.249   6.836
12371TIP3    H136990   4.265   0.189   6.764
12371TIP3    H236991   4.272   0.336   6.798
12372TIP3   OH236992   4.561   1.151   7.911
12372TIP3    H136993   4.470   1.125   7.924
12372TIP3    H236994   4.585   1.115   7.826
12373TIP3   OH236995   4.031   1.078   6.782
12373TIP3    H136996   4.005   1.010   6.843
12373TIP3    H236997   4.050   1.032   6.700
12374TIP3   OH236998   4.003   0.719   7.551
12374TIP3    H136999   3.912   0.695   7.569
12374TIP3    H237000   4.042   0.639   7.515
12375TIP3   OH237001   3.172   0.945   7.361
12375TIP3    H137002   3.168   1.023   7.306
12375TIP3    H237003   3.083   0.934   7.395
12376TIP3   OH237004   2.754   0.215   7.112
12376TIP3    H137005   2.787   0.305   7.112
12376TIP3    H237006   2.665   0.221   7.147
12377TIP3   OH237007   3.247   0.706   7.247
12377TIP3    H137008   3.235   0.793   7.283
12377TIP3    H237009   3.230   0.647   7.321
12378TIP3   OH237010   3.457   1.263   7.800
12378TIP3    H137011   3.488   1.342   7.757
12378TIP3    H237012   3.534   1.228   7.845
12379TIP3   OH237013   3.091   1.170   7.219
12379TIP3    H137014   3.002   1.177   7.252
12379TIP3    H237015   3.126   1.258   7.224
12380TIP3   OH237016   3.827   0.936   7.731
12380TIP3    H137017   3.812   0.933   7.825
12380TIP3    H237018   3.900   0.877   7.716
12381TIP3   OH237019   3.794   0.805   6.660
12381TIP3    H137020   3.849   0.776   6.734
12381TIP3    H237021   3.710   0.763   6.675
12382TIP3   OH237022   4.069   1.430   7.812
12382TIP3    H137023   3.995   1.370   7.827
12382TIP3    H237024   4.038   1.489   7.743
12383TIP3   OH237025   4.106   1.278   6.470
12383TIP3    H137026   4.125   1.338   6.397
12383TIP3    H237027   4.037   1.321   6.519
12384TIP3   OH237028   3.976   0.711   6.842
12384TIP3    H137029   3.960   0.669   6.926
12384TIP3    H237030   4.070   0.728   6.840
12385TIP3   OH237031   2.885   1.117   7.909
12385TIP3    H137032   2.981   1.114   7.912
12385TIP3    H237033   2.860   1.135   7.999
12386TIP3   OH237034   3.150   0.775   6.688
12386TIP3    H137035   3.159   0.683   6.663
12386TIP3    H237036   3.135   0.774   6.782
12387TIP3   OH237037   3.097   0.800   6.961
12387TIP3    H137038   3.148   0.774   7.037
12387TIP3    H237039   3.098   0.896   6.963
12388TIP3   OH237040   2.823   0.485   7.160
12388TIP3    H137041   2.756   0.531   7.211
12388TIP3    H237042   2.839   0.541   7.085
12389TIP3   OH237043   3.365   0.975   6.884
12389TIP3    H137044   3.281   1.000   6.923
12389TIP3    H237045   3.389   1.050   6.829
12390TIP3   OH237046   3.534   0.058   7.283
12390TIP3    H137047   3.601   0.125   7.270
12390TIP3    H237048   3.544   0.032   7.375
12391TIP3   OH237049   7.081   4.966   0.085
12391TIP3    H137050   7.058   4.971   0.178
12391TIP3    H237051   7.168   4.926   0.085
12392TIP3   OH237052   3.120   1.072   6.966
12392TIP3    H137053   3.099   1.144   6.906
12392TIP3    H237054   3.109   1.109   7.053
12393TIP3   OH237055   4.096   0.464   7.465
12393TIP3    H137056   4.023   0.405   7.488
12393TIP3    H237057   4.171   0.429   7.513
12394TIP3   OH237058   2.851   0.670   6.950
12394TIP3    H137059   2.922   0.733   6.958
12394TIP3    H237060   2.886   0.601   6.893
12395TIP3   OH237061   9.255   9.218   6.971
12395TIP3    H137062   9.275   9.307   6.998
12395TIP3    H237063   9.219   9.176   7.049
12396TIP3   OH237064   4.088   1.425   7.397
12396TIP3    H137065   4.046   1.478   7.329
12396TIP3    H237066   4.181   1.440   7.385
12397TIP3   OH237067   2.681   0.920   7.330
12397TIP3    H137068   2.644   0.961   7.409
12397TIP3    H237069   2.638   0.965   7.257
12398TIP3   OH237070   6.155   6.075   0.264
12398TIP3    H137071   6.216   6.083   0.338
12398TIP3    H237072   6.071   6.052   0.304
12399TIP3   OH237073   6.677   6.047   0.258
12399TIP3    H137074   6.742   5.985   0.289
12399TIP3    H237075   6.615   5.994   0.208
12400TIP3   OH237076   3.299   0.975   6.566
12400TIP3    H137077   3.253   0.907   6.615
12400TIP3    H237078   3.374   0.929   6.527
12401TIP3   OH237079   7.287   5.981   0.117
12401TIP3    H137080   7.298   5.898   0.162
12401TIP3    H237081   7.362   6.034   0.145
12402TIP3   OH237082   3.743   1.015   6.491
12402TIP3    H137083   3.778   0.951   6.553
12402TIP3    H237084   3.801   1.010   6.416
12403TIP3   OH237085   6.259   5.357   0.581
12403TIP3    H137086   6.187   5.297   0.563
12403TIP3    H237087   6.216   5.436   0.613
12404TIP3   OH237088   3.009   0.486   6.830
12404TIP3    H137089   3.065   0.446   6.896
12404TIP3    H237090   3.063   0.486   6.751
12405TIP3   OH237091   6.909   5.620   0.267
12405TIP3    H137092   6.837   5.635   0.207
12405TIP3    H237093   6.935   5.529   0.252
12406TIP3   OH237094   3.534   0.685   6.631
12406TIP3    H137095   3.514   0.706   6.722
12406TIP3    H237096   3.519   0.591   6.624
12407TIP3   OH237097   4.095   0.984   7.990
12407TIP3    H137098   4.167   1.025   7.942
12407TIP3    H237099   4.018   1.038   7.970
12408TIP3   OH237100   6.342   5.033   0.617
12408TIP3    H137101   6.426   4.988   0.604
12408TIP3    H237102   6.353   5.078   0.701
12409TIP3   OH237103   3.166   0.374   7.033
12409TIP3    H137104   3.129   0.387   7.120
12409TIP3    H237105   3.169   0.279   7.022
12410TIP3   OH237106   6.790   5.127   0.204
12410TIP3    H137107   6.701   5.159   0.188
12410TIP3    H237108   6.830   5.124   0.117
12411TIP3   OH237109   3.323   0.152   6.789
12411TIP3    H137110   3.281   0.200   6.717
12411TIP3    H237111   3.402   0.202   6.808
12412TIP3   OH237112   7.314   5.486   0.301
12412TIP3    H137113   7.321   5.445   0.214
12412TIP3    H237114   7.320   5.413   0.362
12413TIP3   OH237115   4.070   0.518   6.516
12413TIP3    H137116   4.058   0.478   6.430
12413TIP3    H237117   4.051   0.611   6.501
12414TIP3   OH237118   6.749   4.895   0.341
12414TIP3    H137119   6.824   4.839   0.321
12414TIP3    H237120   6.764   4.974   0.290
12415TIP3   OH237121   3.612   0.571   7.962
12415TIP3    H137122   3.696   0.581   7.917
12415TIP3    H237123   3.555   0.636   7.922
12416TIP3   OH237124   7.479   5.070   0.285
12416TIP3    H137125   7.425   5.050   0.362
12416TIP3    H237126   7.538   5.139   0.314
12417TIP3   OH237127   7.494   5.394   0.094
12417TIP3    H137128   7.445   5.467   0.058
12417TIP3    H237129   7.586   5.415   0.076
12418TIP3   OH237130   6.591   4.921   0.572
12418TIP3    H137131   6.563   4.838   0.611
12418TIP3    H237132   6.638   4.894   0.493
12419TIP3   OH237133   7.100   4.895   0.573
12419TIP3    H137134   7.076   4.908   0.664
12419TIP3    H237135   7.168   4.829   0.574
12420TIP3   OH237136   3.115   1.282   6.785
12420TIP3    H137137   3.202   1.257   6.755
12420TIP3    H237138   3.075   1.325   6.710
12421TIP3   OH237139   2.580   0.659   6.987
12421TIP3    H137140   2.671   0.683   6.972
12421TIP3    H237141   2.564   0.587   6.926
12422TIP3   OH237142   2.476   1.237   7.414
12422TIP3    H137143   2.411   1.186   7.365
12422TIP3    H237144   2.522   1.173   7.467
12423TIP3   OH237145   2.629   1.064   7.564
12423TIP3    H137146   2.624   1.002   7.637
12423TIP3    H237147   2.680   1.137   7.599
12424TIP3   OH237148   4.358   1.476   7.395
12424TIP3    H137149   4.375   1.501   7.485
12424TIP3    H237150   4.412   1.535   7.343
12425TIP3   OH237151   4.374   1.508   7.672
12425TIP3    H137152   4.330   1.423   7.670
12425TIP3    H237153   4.445   1.498   7.735
12426TIP3   OH237154   7.700   5.861   0.181
12426TIP3    H137155   7.638   5.863   0.254
12426TIP3    H237156   7.753   5.939   0.192
12427TIP3   OH237157   4.253   0.727   6.856
12427TIP3    H137158   4.308   0.801   6.827
12427TIP3    H237159   4.299   0.692   6.933
12428TIP3   OH237160   4.378   0.590   7.064
12428TIP3    H137161   4.310   0.558   7.124
12428TIP3    H237162   4.448   0.621   7.122
12429TIP3   OH237163   4.426   0.982   7.489
12429TIP3    H137164   4.475   0.914   7.442
12429TIP3    H237165   4.429   1.058   7.432
12430TIP3   OH237166   4.241   1.262   7.678
12430TIP3    H137167   4.175   1.311   7.729
12430TIP3    H237168   4.191   1.221   7.608
12431TIP3   OH237169   4.253   0.492   6.717
12431TIP3    H137170   4.188   0.502   6.647
12431TIP3    H237171   4.245   0.573   6.768
12432TIP3   OH237172   4.138   0.181   6.589
12432TIP3    H137173   4.074   0.243   6.624
12432TIP3    H237174   4.086   0.116   6.542
12433TIP3   OH237175   4.174   0.459   7.199
12433TIP3    H137176   4.169   0.365   7.179
12433TIP3    H237177   4.150   0.464   7.292
12434TIP3   OH237178   2.796   0.563   7.894
12434TIP3    H137179   2.803   0.523   7.807
12434TIP3    H237180   2.886   0.574   7.923
12435TIP3   OH237181   4.481   0.845   8.014
12435TIP3    H137182   4.550   0.780   8.010
12435TIP3    H237183   4.474   0.879   7.925
12436TIP3   OH237184   7.944   5.273   0.029
12436TIP3    H137185   7.893   5.197   0.057
12436TIP3    H237186   8.016   5.279   0.092
12437TIP3   OH237187   4.167   0.197   7.083
12437TIP3    H137188   4.222   0.127   7.120
12437TIP3    H237189   4.207   0.215   6.998
12438TIP3   OH237190   4.317   0.363   7.591
12438TIP3    H137191   4.402   0.378   7.549
12438TIP3    H237192   4.329   0.391   7.682
12439TIP3   OH237193   4.380   0.492   7.828
12439TIP3    H137194   4.298   0.515   7.872
12439TIP3    H237195   4.411   0.574   7.790
12440TIP3   OH237196   2.856   0.163   7.974
12440TIP3    H137197   2.901   0.183   7.892
12440TIP3    H237198   2.819   0.246   8.003
12441TIP3   OH237199   3.916   1.394   7.041
12441TIP3    H137200   3.972   1.386   6.964
12441TIP3    H237201   3.954   1.465   7.092
12442TIP3   OH237202   6.271   5.769   0.331
12442TIP3    H137203   6.209   5.798   0.399
12442TIP3    H237204   6.334   5.715   0.378
12443TIP3   OH237205   3.204   1.208   7.896
12443TIP3    H137206   3.161   1.288   7.866
12443TIP3    H237207   3.294   1.216   7.865
12444TIP3   OH237208   6.916   6.061   0.077
12444TIP3    H137209   6.959   6.064   0.163
12444TIP3    H237210   6.962   6.127   0.025
12445TIP3   OH237211   3.817   1.622   7.960
12445TIP3    H137212   3.876   1.566   7.910
12445TIP3    H237213   3.874   1.677   8.013
12446TIP3   OH237214   6.158   6.042  -0.017
12446TIP3    H137215   6.079   6.082  -0.053
12446TIP3    H237216   6.152   6.055   0.077
12447TIP3   OH237217   3.115   1.455   7.833
12447TIP3    H137218   3.035   1.453   7.886
12447TIP3    H237219   3.086   1.489   7.749
12448TIP3   OH237220   3.530   1.482   7.651
12448TIP3    H137221   3.459   1.493   7.587
12448TIP3    H237222   3.540   1.569   7.690
12449TIP3   OH237223   3.794   1.426   7.710
12449TIP3    H137224   3.702   1.443   7.686
12449TIP3    H237225   3.844   1.491   7.661
12450TIP3   OH237226   3.993   1.589   7.598
12450TIP3    H137227   3.994   1.677   7.560
12450TIP3    H237228   4.021   1.532   7.527
12451TIP3   OH237229   2.793   1.260   7.690
12451TIP3    H137230   2.814   1.238   7.781
12451TIP3    H237231   2.868   1.228   7.640
12452TIP3   OH237232   3.007   1.137   7.575
12452TIP3    H137233   3.018   1.056   7.625
12452TIP3    H237234   3.094   1.177   7.576
12453TIP3   OH237235   3.277   1.220   7.591
12453TIP3    H137236   3.295   1.127   7.575
12453TIP3    H237237   3.337   1.244   7.661
12454TIP3   OH237238   2.563   1.053   7.123
12454TIP3    H137239   2.480   1.016   7.092
12454TIP3    H237240   2.565   1.141   7.087
12455TIP3   OH237241   3.365   1.198   6.710
12455TIP3    H137242   3.448   1.225   6.671
12455TIP3    H237243   3.333   1.127   6.653
12456TIP3   OH237244   4.068   1.347   6.812
12456TIP3    H137245   4.059   1.252   6.806
12456TIP3    H237246   4.023   1.380   6.734
12457TIP3   OH237247   2.671   1.037   6.765
12457TIP3    H137248   2.671   1.040   6.860
12457TIP3    H237249   2.751   0.990   6.742
12458TIP3   OH237250   4.283   1.490   7.985
12458TIP3    H137251   4.210   1.456   7.933
12458TIP3    H237252   4.270   1.585   7.987
12459TIP3   OH237253   5.542   0.898   6.759
12459TIP3    H137254   5.527   0.988   6.731
12459TIP3    H237255   5.477   0.846   6.711
12460TIP3   OH237256   5.555   0.877   7.170
12460TIP3    H137257   5.600   0.866   7.253
12460TIP3    H237258   5.511   0.794   7.155
12461TIP3   OH237259   4.850   0.727   7.505
12461TIP3    H137260   4.885   0.672   7.575
12461TIP3    H237261   4.925   0.746   7.449
12462TIP3   OH237262   5.826   1.162   6.848
12462TIP3    H137263   5.806   1.104   6.922
12462TIP3    H237264   5.846   1.246   6.888
12463TIP3   OH237265   4.849   1.155   7.193
12463TIP3    H137266   4.828   1.062   7.203
12463TIP3    H237267   4.944   1.158   7.185
12464TIP3   OH237268   4.497   0.351   6.984
12464TIP3    H137269   4.458   0.434   7.012
12464TIP3    H237270   4.426   0.304   6.941
12465TIP3   OH237271   4.615   0.655   7.201
12465TIP3    H137272   4.666   0.577   7.226
12465TIP3    H237273   4.680   0.717   7.169
12466TIP3   OH237274   5.491   1.591   6.861
12466TIP3    H137275   5.516   1.530   6.792
12466TIP3    H237276   5.502   1.541   6.942
12467TIP3   OH237277   5.363   1.089   7.165
12467TIP3    H137278   5.409   1.009   7.140
12467TIP3    H237279   5.431   1.148   7.196
12468TIP3   OH237280   5.784   0.567   7.257
12468TIP3    H137281   5.827   0.488   7.290
12468TIP3    H237282   5.726   0.534   7.188
12469TIP3   OH237283   4.747   0.430   7.301
12469TIP3    H137284   4.833   0.423   7.343
12469TIP3    H237285   4.751   0.369   7.228
12470TIP3   OH237286   5.174   0.694   7.105
12470TIP3    H137287   5.264   0.683   7.134
12470TIP3    H237288   5.161   0.627   7.039
12471TIP3   OH237289   6.313   0.575   7.514
12471TIP3    H137290   6.276   0.631   7.447
12471TIP3    H237291   6.407   0.595   7.514
12472TIP3   OH237292   5.466   1.105   6.596
12472TIP3    H137293   5.424   1.068   6.519
12472TIP3    H237294   5.410   1.178   6.621
12473TIP3   OH237295   5.198   1.013   7.376
12473TIP3    H137296   5.143   1.084   7.409
12473TIP3    H237297   5.243   1.051   7.300
12474TIP3   OH237298   5.000   0.385   7.394
12474TIP3    H137299   5.064   0.440   7.440
12474TIP3    H237300   5.052   0.337   7.329
12475TIP3   OH237301   5.043   1.216   7.481
12475TIP3    H137302   5.032   1.306   7.451
12475TIP3    H237303   4.964   1.197   7.531
12476TIP3   OH237304   4.413   0.927   6.743
12476TIP3    H137305   4.379   0.947   6.655
12476TIP3    H237306   4.437   1.012   6.779
12477TIP3   OH237307   5.862   1.414   6.978
12477TIP3    H137308   5.773   1.409   7.014
12477TIP3    H237309   5.864   1.496   6.929
12478TIP3   OH237310   5.573   1.447   6.639
12478TIP3    H137311   5.628   1.370   6.626
12478TIP3    H237312   5.625   1.520   6.606
12479TIP3   OH237313   5.720   1.221   6.598
12479TIP3    H137314   5.644   1.164   6.591
12479TIP3    H237315   5.766   1.191   6.676
12480TIP3   OH237316   6.112   1.294   7.338
12480TIP3    H137317   6.088   1.226   7.275
12480TIP3    H237318   6.093   1.376   7.293
12481TIP3   OH237319   5.382   0.763   6.577
12481TIP3    H137320   5.290   0.786   6.566
12481TIP3    H237321   5.421   0.773   6.490
12482TIP3   OH237322   5.327   0.581   6.304
12482TIP3    H137323   5.409   0.612   6.343
12482TIP3    H237324   5.351   0.501   6.257
12483TIP3   OH237325   6.272   0.987   7.191
12483TIP3    H137326   6.185   1.027   7.184
12483TIP3    H237327   6.311   1.000   7.104
12484TIP3   OH237328   5.732   0.833   6.556
12484TIP3    H137329   5.688   0.857   6.637
12484TIP3    H237330   5.815   0.795   6.584
12485TIP3   OH237331   5.957   0.847   7.462
12485TIP3    H137332   5.961   0.920   7.523
12485TIP3    H237333   5.864   0.836   7.444
12486TIP3   OH237334   4.962   0.803   6.959
12486TIP3    H137335   4.919   0.724   6.927
12486TIP3    H237336   5.038   0.771   7.007
12487TIP3   OH237337   5.111   1.202   7.098
12487TIP3    H137338   5.086   1.190   7.006
12487TIP3    H237339   5.199   1.164   7.104
12488TIP3   OH237340   5.068   0.775   7.344
12488TIP3    H137341   5.100   0.744   7.259
12488TIP3    H237342   5.112   0.858   7.357
12489TIP3   OH237343   5.619   1.410   7.102
12489TIP3    H137344   5.605   1.490   7.152
12489TIP3    H237345   5.603   1.339   7.165
12490TIP3   OH237346   5.241   1.306   7.653
12490TIP3    H137347   5.181   1.365   7.699
12490TIP3    H237348   5.185   1.257   7.593
12491TIP3   OH237349   5.571   0.707   6.373
12491TIP3    H137350   5.630   0.752   6.433
12491TIP3    H237351   5.599   0.737   6.286
12492TIP3   OH237352   4.994   0.864   7.792
12492TIP3    H137353   5.001   0.958   7.810
12492TIP3    H237354   4.901   0.850   7.775
12493TIP3   OH237355   5.321   1.335   6.638
12493TIP3    H137356   5.403   1.383   6.647
12493TIP3    H237357   5.264   1.394   6.590
12494TIP3   OH237358   5.038   1.468   7.741
12494TIP3    H137359   5.013   1.483   7.650
12494TIP3    H237360   4.955   1.454   7.787
12495TIP3   OH237361   4.835   0.624   6.725
12495TIP3    H137362   4.763   0.685   6.708
12495TIP3    H237363   4.795   0.551   6.772
12496TIP3   OH237364   5.907   1.275   5.998
12496TIP3    H137365   5.905   1.368   5.977
12496TIP3    H237366   5.998   1.249   5.984
12497TIP3   OH237367   4.629   1.029   7.678
12497TIP3    H137368   4.557   1.011   7.618
12497TIP3    H237369   4.664   0.942   7.700
12498TIP3   OH237370   4.471   1.222   7.347
12498TIP3    H137371   4.561   1.248   7.367
12498TIP3    H237372   4.418   1.298   7.371
12499TIP3   OH237373   6.333   1.687   7.393
12499TIP3    H137374   6.340   1.592   7.407
12499TIP3    H237375   6.251   1.711   7.437
12500TIP3   OH237376   5.432   1.450   7.518
12500TIP3    H137377   5.426   1.542   7.545
12500TIP3    H237378   5.362   1.406   7.566
12501TIP3   OH237379   5.214   1.549   6.471
12501TIP3    H137380   5.165   1.533   6.391
12501TIP3    H237381   5.180   1.632   6.504
12502TIP3   OH237382   4.647   1.409   6.846
12502TIP3    H137383   4.692   1.401   6.931
12502TIP3    H237384   4.598   1.327   6.838
12503TIP3   OH237385   5.414   1.489   6.095
12503TIP3    H137386   5.468   1.419   6.059
12503TIP3    H237387   5.448   1.503   6.183
12504TIP3   OH237388   5.467   1.533   6.362
12504TIP3    H137389   5.383   1.531   6.408
12504TIP3    H237390   5.531   1.506   6.428
12505TIP3   OH237391   6.228   0.767   7.698
12505TIP3    H137392   6.165   0.808   7.639
12505TIP3    H237393   6.262   0.692   7.650
12506TIP3   OH237394   4.823   1.222   7.647
12506TIP3    H137395   4.870   1.216   7.730
12506TIP3    H237396   4.753   1.158   7.654
12507TIP3   OH237397   5.917   0.587   7.597
12507TIP3    H137398   5.975   0.515   7.574
12507TIP3    H237399   5.946   0.660   7.542
12508TIP3   OH237400   5.656   0.771   6.124
12508TIP3    H137401   5.603   0.768   6.044
12508TIP3    H237402   5.736   0.817   6.097
12509TIP3   OH237403   5.179   0.572   7.507
12509TIP3    H137404   5.122   0.578   7.583
12509TIP3    H237405   5.148   0.642   7.449
12510TIP3   OH237406   4.901   0.527   7.022
12510TIP3    H137407   4.856   0.444   7.037
12510TIP3    H237408   4.984   0.503   6.980
12511TIP3   OH237409   5.547   0.581   6.690
12511TIP3    H137410   5.487   0.642   6.648
12511TIP3    H237411   5.567   0.516   6.623
12512TIP3   OH237412   5.702   0.810   7.792
12512TIP3    H137413   5.678   0.752   7.864
12512TIP3    H237414   5.797   0.821   7.801
12513TIP3   OH237415   5.671   0.706   6.903
12513TIP3    H137416   5.633   0.791   6.882
12513TIP3    H237417   5.646   0.649   6.831
12514TIP3   OH237418   4.994   0.598   7.708
12514TIP3    H137419   5.001   0.681   7.755
12514TIP3    H237420   4.981   0.532   7.776
12515TIP3   OH237421   5.698   0.787   7.392
12515TIP3    H137422   5.723   0.710   7.341
12515TIP3    H237423   5.647   0.751   7.465
12516TIP3   OH237424   4.746   0.268   7.074
12516TIP3    H137425   4.660   0.299   7.044
12516TIP3    H237426   4.732   0.175   7.094
12517TIP3   OH237427   5.097   0.273   6.727
12517TIP3    H137428   5.188   0.259   6.754
12517TIP3    H237429   5.100   0.350   6.671
12518TIP3   OH237430   4.836   0.390   6.538
12518TIP3    H137431   4.771   0.343   6.591
12518TIP3    H237432   4.873   0.455   6.597
12519TIP3   OH237433   6.040   2.016   7.485
12519TIP3    H137434   6.035   2.019   7.390
12519TIP3    H237435   6.117   2.069   7.507
12520TIP3   OH237436   4.988   1.126   7.881
12520TIP3    H137437   5.068   1.147   7.930
12520TIP3    H237438   4.917   1.136   7.945
12521TIP3   OH237439   5.429   0.628   7.186
12521TIP3    H137440   5.441   0.546   7.139
12521TIP3    H237441   5.435   0.604   7.278
12522TIP3   OH237442   5.442   0.514   7.434
12522TIP3    H137443   5.355   0.531   7.472
12522TIP3    H237444   5.504   0.543   7.501
12523TIP3   OH237445   5.129   0.855   6.524
12523TIP3    H137446   5.052   0.805   6.497
12523TIP3    H237447   5.105   0.893   6.609
12524TIP3   OH237448   6.038   1.121   7.142
12524TIP3    H137449   6.072   1.178   7.073
12524TIP3    H237450   5.953   1.092   7.110
12525TIP3   OH237451   5.549   1.180   7.554
12525TIP3    H137452   5.601   1.182   7.634
12525TIP3    H237453   5.507   1.266   7.550
12526TIP3   OH237454   5.610   0.448   6.450
12526TIP3    H137455   5.698   0.440   6.487
12526TIP3    H237456   5.606   0.538   6.418
12527TIP3   OH237457   4.832   0.870   7.193
12527TIP3    H137458   4.868   0.855   7.106
12527TIP3    H237459   4.896   0.831   7.253
12528TIP3   OH237460   5.302   1.013   6.386
12528TIP3    H137461   5.257   1.098   6.384
12528TIP3    H237462   5.241   0.955   6.431
12529TIP3   OH237463   4.723   0.791   7.797
12529TIP3    H137464   4.730   0.754   7.885
12529TIP3    H237465   4.645   0.750   7.760
12530TIP3   OH237466   5.465   0.947   7.845
12530TIP3    H137467   5.395   0.888   7.814
12530TIP3    H237468   5.545   0.910   7.808
12531TIP3   OH237469   5.704   1.467   7.448
12531TIP3    H137470   5.609   1.459   7.449
12531TIP3    H237471   5.726   1.509   7.531
12532TIP3   OH237472   6.138   0.484   6.402
12532TIP3    H137473   6.169   0.414   6.343
12532TIP3    H237474   6.059   0.518   6.360
12533TIP3   OH237475   6.355   1.409   7.418
12533TIP3    H137476   6.263   1.384   7.423
12533TIP3    H237477   6.384   1.376   7.333
12534TIP3   OH237478   5.827   1.335   6.266
12534TIP3    H137479   5.804   1.262   6.324
12534TIP3    H237480   5.847   1.293   6.182
12535TIP3   OH237481   5.795   0.995   7.075
12535TIP3    H137482   5.704   0.965   7.085
12535TIP3    H237483   5.848   0.918   7.097
12536TIP3   OH237484   4.968   1.210   6.857
12536TIP3    H137485   4.963   1.285   6.798
12536TIP3    H237486   4.880   1.200   6.893
12537TIP3   OH237487   4.489   0.515   6.577
12537TIP3    H137488   4.542   0.591   6.602
12537TIP3    H237489   4.413   0.519   6.635
12538TIP3   OH237490   5.043   0.967   6.751
12538TIP3    H137491   5.031   1.056   6.785
12538TIP3    H237492   5.014   0.911   6.823
12539TIP3   OH237493   5.251   1.526   7.309
12539TIP3    H137494   5.284   1.601   7.260
12539TIP3    H237495   5.327   1.494   7.359
12540TIP3   OH237496   4.883   1.428   6.705
12540TIP3    H137497   4.795   1.434   6.743
12540TIP3    H237498   4.918   1.517   6.711
12541TIP3   OH237499   5.597   1.193   7.279
12541TIP3    H137500   5.586   1.185   7.373
12541TIP3    H237501   5.677   1.145   7.260
12542TIP3   OH237502   5.584   1.082   6.150
12542TIP3    H137503   5.639   1.057   6.224
12542TIP3    H237504   5.499   1.044   6.168
12543TIP3   OH237505   5.856   1.678   7.322
12543TIP3    H137506   5.782   1.620   7.342
12543TIP3    H237507   5.824   1.731   7.249
12544TIP3   OH237508   5.916   1.549   5.960
12544TIP3    H137509   5.964   1.624   5.926
12544TIP3    H237510   5.837   1.587   5.999
12545TIP3   OH237511   5.763   1.006   6.339
12545TIP3    H137512   5.748   0.956   6.419
12545TIP3    H237513   5.859   1.008   6.330
12546TIP3   OH237514   4.678   1.424   7.469
12546TIP3    H137515   4.731   1.366   7.524
12546TIP3    H237516   4.691   1.511   7.506
12547TIP3   OH237517   4.935   1.047   6.177
12547TIP3    H137518   4.948   0.957   6.148
12547TIP3    H237519   4.924   1.040   6.272
12548TIP3   OH237520   4.884   1.054   6.450
12548TIP3    H137521   4.947   1.027   6.517
12548TIP3    H237522   4.886   1.150   6.453
12549TIP3   OH237523   4.610   0.760   6.644
12549TIP3    H137524   4.547   0.809   6.697
12549TIP3    H237525   4.628   0.818   6.570
12550TIP3   OH237526   5.157   1.239   6.374
12550TIP3    H137527   5.072   1.262   6.413
12550TIP3    H237528   5.179   1.314   6.319
12551TIP3   OH237529   5.364   0.232   6.801
12551TIP3    H137530   5.444   0.283   6.788
12551TIP3    H237531   5.389   0.164   6.863
12552TIP3   OH237532   5.637   0.615   7.606
12552TIP3    H137533   5.638   0.683   7.673
12552TIP3    H237534   5.726   0.581   7.604
12553TIP3   OH237535   4.908   1.326   6.453
12553TIP3    H137536   4.889   1.398   6.393
12553TIP3    H237537   4.897   1.364   6.540
12554TIP3   OH237538   5.940   0.676   6.918
12554TIP3    H137539   5.846   0.695   6.924
12554TIP3    H237540   5.978   0.724   6.992
12555TIP3   OH237541   4.636   0.935   6.427
12555TIP3    H137542   4.711   0.992   6.442
12555TIP3    H237543   4.664   0.875   6.358
12556TIP3   OH237544   4.518   0.235   6.579
12556TIP3    H137545   4.512   0.329   6.597
12556TIP3    H237546   4.489   0.193   6.660
12557TIP3   OH237547   5.877   1.677   6.879
12557TIP3    H137548   5.833   1.729   6.812
12557TIP3    H237549   5.970   1.699   6.870
12558TIP3   OH237550   4.469   1.191   6.825
12558TIP3    H137551   4.429   1.228   6.904
12558TIP3    H237552   4.424   1.234   6.752
12559TIP3   OH237553   4.671   1.721   7.889
12559TIP3    H137554   4.753   1.723   7.939
12559TIP3    H237555   4.646   1.629   7.888
12560TIP3   OH237556   5.143   1.623   7.944
12560TIP3    H137557   5.235   1.600   7.949
12560TIP3    H237558   5.109   1.573   7.870
12561TIP3   OH237559   5.107   1.223   6.059
12561TIP3    H137560   5.046   1.168   6.108
12561TIP3    H237561   5.184   1.167   6.046
12562TIP3   OH237562   5.759   1.575   7.694
12562TIP3    H137563   5.775   1.507   7.760
12562TIP3    H237564   5.831   1.636   7.704
12563TIP3   OH237565   5.549   1.286   5.972
12563TIP3    H137566   5.573   1.222   6.039
12563TIP3    H237567   5.612   1.270   5.901
12564TIP3   OH237568   8.051   5.740   0.066
12564TIP3    H137569   8.066   5.646   0.073
12564TIP3    H237570   7.966   5.747   0.022
12565TIP3   OH237571   4.748   0.750   6.262
12565TIP3    H137572   4.795   0.723   6.342
12565TIP3    H237573   4.817   0.764   6.197
12566TIP3   OH237574   5.404   1.218   7.855
12566TIP3    H137575   5.355   1.236   7.775
12566TIP3    H237576   5.435   1.128   7.844
12567TIP3   OH237577   5.306   0.991   6.113
12567TIP3    H137578   5.296   0.996   6.208
12567TIP3    H237579   5.295   0.899   6.092
12568TIP3   OH237580   5.869   1.243   7.472
12568TIP3    H137581   5.948   1.274   7.429
12568TIP3    H237582   5.806   1.313   7.461
12569TIP3   OH237583   8.157   5.483   0.062
12569TIP3    H137584   8.218   5.469  -0.010
12569TIP3    H237585   8.210   5.476   0.141
12570TIP3   OH237586   4.914   0.692   6.472
12570TIP3    H137587   4.893   0.663   6.561
12570TIP3    H237588   4.951   0.615   6.429
12571TIP3   OH237589   5.266   0.784   7.738
12571TIP3    H137590   5.178   0.822   7.739
12571TIP3    H237591   5.302   0.809   7.653
12572TIP3   OH237592   5.060   0.517   6.324
12572TIP3    H137593   5.029   0.508   6.234
12572TIP3    H237594   5.153   0.538   6.316
12573TIP3   OH237595   5.756   1.129   7.840
12573TIP3    H137596   5.806   1.076   7.778
12573TIP3    H237597   5.749   1.073   7.918
12574TIP3   OH237598   5.896   0.807   5.972
12574TIP3    H137599   5.868   0.759   5.894
12574TIP3    H237600   5.868   0.897   5.957
12575TIP3   OH237601   5.255   0.540   7.866
12575TIP3    H137602   5.281   0.476   7.799
12575TIP3    H237603   5.264   0.625   7.822
12576TIP3   OH237604   5.398   0.890   7.519
12576TIP3    H137605   5.467   0.957   7.521
12576TIP3    H237606   5.329   0.928   7.465
12577TIP3   OH237607   5.967   0.827   7.880
12577TIP3    H137608   6.017   0.750   7.853
12577TIP3    H237609   6.033   0.896   7.889
12578TIP3   OH237610   5.989   1.064   7.638
12578TIP3    H137611   5.933   1.127   7.593
12578TIP3    H237612   6.077   1.082   7.605
12579TIP3   OH237613   8.512   5.254   0.125
12579TIP3    H137614   8.424   5.248   0.161
12579TIP3    H237615   8.506   5.213   0.039
12580TIP3   OH237616   8.905   5.257  -0.012
12580TIP3    H137617   8.826   5.270   0.041
12580TIP3    H237618   8.924   5.164  -0.002
12581TIP3   OH237619   4.909   1.534   6.270
12581TIP3    H137620   4.997   1.510   6.241
12581TIP3    H237621   4.871   1.580   6.196
12582TIP3   OH237622   4.364   0.926   6.452
12582TIP3    H137623   4.459   0.940   6.446
12582TIP3    H237624   4.349   0.842   6.410
12583TIP3   OH237625   4.274   1.496   6.912
12583TIP3    H137626   4.209   1.443   6.866
12583TIP3    H237627   4.318   1.434   6.971
12584TIP3   OH237628   4.419   1.326   7.077
12584TIP3    H137629   4.411   1.257   7.143
12584TIP3    H237630   4.471   1.394   7.119
12585TIP3   OH237631   6.142   1.754   6.887
12585TIP3    H137632   6.159   1.759   6.981
12585TIP3    H237633   6.173   1.838   6.852
12586TIP3   OH237634   6.169   1.741   7.160
12586TIP3    H137635   6.127   1.655   7.166
12586TIP3    H237636   6.239   1.739   7.226
12587TIP3   OH237637   6.237   1.461   7.734
12587TIP3    H137638   6.163   1.472   7.794
12587TIP3    H237639   6.282   1.546   7.735
12588TIP3   OH237640   6.038   1.002   6.326
12588TIP3    H137641   6.098   1.073   6.301
12588TIP3    H237642   6.075   0.969   6.408
12589TIP3   OH237643   6.147   0.891   6.551
12589TIP3    H137644   6.086   0.838   6.601
12589TIP3    H237645   6.209   0.925   6.615
12590TIP3   OH237646   6.216   1.273   6.991
12590TIP3    H137647   6.263   1.206   6.942
12590TIP3    H237648   6.217   1.350   6.935
12591TIP3   OH237649   6.026   1.505   7.187
12591TIP3    H137650   5.960   1.559   7.232
12591TIP3    H237651   5.980   1.470   7.111
12592TIP3   OH237652   6.078   0.777   6.175
12592TIP3    H137653   6.024   0.786   6.096
12592TIP3    H237654   6.066   0.859   6.222
12593TIP3   OH237655   6.029   0.455   6.065
12593TIP3    H137656   5.941   0.489   6.059
12593TIP3    H237657   6.026   0.391   6.137
12594TIP3   OH237658   5.961   0.702   6.648
12594TIP3    H137659   5.943   0.615   6.613
12594TIP3    H237660   5.966   0.689   6.743
12595TIP3   OH237661   4.585   0.745   7.457
12595TIP3    H137662   4.579   0.720   7.365
12595TIP3    H237663   4.679   0.750   7.474
12596TIP3   OH237664   6.235   1.111   7.528
12596TIP3    H137665   6.313   1.063   7.501
12596TIP3    H237666   6.217   1.171   7.455
12597TIP3   OH237667   6.472   0.953   7.574
12597TIP3    H137668   6.435   0.920   7.656
12597TIP3    H237669   6.544   1.009   7.601
12598TIP3   OH237670   5.858   0.423   6.552
12598TIP3    H137671   5.900   0.343   6.584
12598TIP3    H237672   5.894   0.435   6.463
12599TIP3   OH237673   6.203   0.601   7.140
12599TIP3    H137674   6.220   0.666   7.071
12599TIP3    H237675   6.207   0.651   7.221
12600TIP3   OH237676   6.208   0.777   7.360
12600TIP3    H137677   6.123   0.807   7.391
12600TIP3    H237678   6.239   0.847   7.302
12601TIP3   OH237679   4.564   0.453   7.508
12601TIP3    H137680   4.626   0.428   7.439
12601TIP3    H237681   4.572   0.549   7.513
12602TIP3   OH237682   5.698   1.654   6.522
12602TIP3    H137683   5.759   1.645   6.449
12602TIP3    H237684   5.735   1.723   6.577
12603TIP3   OH237685   4.813   1.434   7.895
12603TIP3    H137686   4.718   1.425   7.883
12603TIP3    H237687   4.826   1.426   7.989
12604TIP3   OH237688   5.024   1.493   7.459
12604TIP3    H137689   4.973   1.568   7.429
12604TIP3    H237690   5.109   1.502   7.415
12605TIP3   OH237691   5.420   1.717   7.593
12605TIP3    H137692   5.456   1.715   7.682
12605TIP3    H237693   5.481   1.773   7.544
12606TIP3   OH237694   5.608   1.879   7.470
12606TIP3    H137695   5.670   1.834   7.413
12606TIP3    H237696   5.662   1.934   7.526
12607TIP3   OH237697   4.683   1.720   7.507
12607TIP3    H137698   4.593   1.738   7.481
12607TIP3    H237699   4.703   1.787   7.572
12608TIP3   OH237700   4.914   1.723   7.356
12608TIP3    H137701   4.831   1.725   7.404
12608TIP3    H237702   4.891   1.746   7.266
12609TIP3   OH237703   5.322   1.740   7.151
12609TIP3    H137704   5.253   1.752   7.086
12609TIP3    H237705   5.335   1.827   7.189
12610TIP3   OH237706   5.581   1.662   7.202
12610TIP3    H137707   5.492   1.689   7.181
12610TIP3    H237708   5.636   1.725   7.155
12611TIP3   OH237709   5.781   1.822   7.096
12611TIP3    H137710   5.792   1.914   7.074
12611TIP3    H237711   5.810   1.775   7.018
12612TIP3   OH237712   4.592   1.505   7.217
12612TIP3    H137713   4.617   1.482   7.307
12612TIP3    H237714   4.665   1.473   7.164
12613TIP3   OH237715   4.797   1.395   7.077
12613TIP3    H137716   4.808   1.311   7.122
12613TIP3    H237717   4.884   1.436   7.083
12614TIP3   OH237718   5.065   1.478   7.107
12614TIP3    H137719   5.083   1.386   7.092
12614TIP3    H237720   5.119   1.502   7.181
12615TIP3   OH237721   4.351   1.307   6.606
12615TIP3    H137722   4.267   1.275   6.573
12615TIP3    H237723   4.357   1.397   6.572
12616TIP3   OH237724   5.160   1.455   6.195
12616TIP3    H137725   5.244   1.484   6.159
12616TIP3    H237726   5.134   1.382   6.139
12617TIP3   OH237727   5.859   1.605   6.299
12617TIP3    H137728   5.852   1.509   6.293
12617TIP3    H237729   5.816   1.637   6.219
12618TIP3   OH237730   4.469   1.302   6.262
12618TIP3    H137731   4.471   1.310   6.357
12618TIP3    H237732   4.550   1.255   6.240
12619TIP3   OH237733   6.077   1.742   7.483
12619TIP3    H137734   6.002   1.713   7.431
12619TIP3    H237735   6.065   1.837   7.492
12620TIP3   OH237736   7.351   1.161   6.254
12620TIP3    H137737   7.334   1.250   6.221
12620TIP3    H237738   7.281   1.108   6.217
12621TIP3   OH237739   7.337   1.145   6.623
12621TIP3    H137740   7.361   1.143   6.715
12621TIP3    H237741   7.290   1.063   6.608
12622TIP3   OH237742   6.634   1.054   6.989
12622TIP3    H137743   6.681   1.001   7.053
12622TIP3    H237744   6.702   1.085   6.930
12623TIP3   OH237745   7.623   1.422   6.338
12623TIP3    H137746   7.601   1.368   6.413
12623TIP3    H237747   7.644   1.508   6.374
12624TIP3   OH237748   6.642   1.414   6.682
12624TIP3    H137749   6.618   1.321   6.680
12624TIP3    H237750   6.737   1.414   6.671
12625TIP3   OH237751   6.307   0.690   6.453
12625TIP3    H137752   6.258   0.769   6.475
12625TIP3    H237753   6.240   0.625   6.434
12626TIP3   OH237754   6.388   0.966   6.683
12626TIP3    H137755   6.437   0.886   6.699
12626TIP3    H237756   6.454   1.029   6.653
12627TIP3   OH237757   7.292   1.850   6.345
12627TIP3    H137758   7.312   1.788   6.274
12627TIP3    H237759   7.306   1.800   6.425
12628TIP3   OH237760   7.154   1.356   6.652
12628TIP3    H137761   7.195   1.278   6.613
12628TIP3    H237762   7.228   1.412   6.676
12629TIP3   OH237763   7.543   0.909   6.674
12629TIP3    H137764   7.635   0.936   6.680
12629TIP3    H237765   7.515   0.937   6.587
12630TIP3   OH237766   6.498   0.728   6.787
12630TIP3    H137767   6.589   0.722   6.814
12630TIP3    H237768   6.493   0.674   6.708
12631TIP3   OH237769   6.951   0.970   6.602
12631TIP3    H137770   7.043   0.944   6.613
12631TIP3    H237771   6.904   0.887   6.597
12632TIP3   OH237772   8.200   0.774   6.847
12632TIP3    H137773   8.208   0.866   6.823
12632TIP3    H237774   8.287   0.750   6.879
12633TIP3   OH237775   7.265   1.363   6.089
12633TIP3    H137776   7.222   1.324   6.013
12633TIP3    H237777   7.207   1.435   6.115
12634TIP3   OH237778   7.033   1.286   6.892
12634TIP3    H137779   6.968   1.351   6.919
12634TIP3    H237780   7.068   1.318   6.809
12635TIP3   OH237781   6.757   0.663   6.816
12635TIP3    H137782   6.820   0.721   6.860
12635TIP3    H237783   6.781   0.668   6.723
12636TIP3   OH237784   6.844   1.469   6.970
12636TIP3    H137785   6.830   1.557   6.936
12636TIP3    H237786   6.765   1.450   7.022
12637TIP3   OH237787   6.216   1.191   6.236
12637TIP3    H137788   6.188   1.206   6.146
12637TIP3    H237789   6.239   1.278   6.269
12638TIP3   OH237790   7.659   1.675   6.464
12638TIP3    H137791   7.569   1.673   6.496
12638TIP3    H237792   7.665   1.757   6.415
12639TIP3   OH237793   7.367   1.710   6.116
12639TIP3    H137794   7.423   1.632   6.107
12639TIP3    H237795   7.421   1.782   6.085
12640TIP3   OH237796   7.515   1.483   6.088
12640TIP3    H137797   7.439   1.426   6.080
12640TIP3    H237798   7.561   1.452   6.166
12641TIP3   OH237799   7.904   1.575   6.822
12641TIP3    H137800   7.875   1.506   6.762
12641TIP3    H237801   7.887   1.657   6.775
12642TIP3   OH237802   7.178   1.018   6.089
12642TIP3    H137803   7.085   1.037   6.075
12642TIP3    H237804   7.217   1.025   6.002
12643TIP3   OH237805   7.118   0.816   5.808
12643TIP3    H137806   7.192   0.871   5.834
12643TIP3    H237807   7.135   0.732   5.850
12644TIP3   OH237808   8.073   1.267   6.657
12644TIP3    H137809   7.984   1.302   6.663
12644TIP3    H237810   8.103   1.292   6.570
12645TIP3   OH237811   7.528   1.083   6.046
12645TIP3    H137812   7.487   1.112   6.128
12645TIP3    H237813   7.612   1.047   6.074
12646TIP3   OH237814   7.704   1.185   6.904
12646TIP3    H137815   7.702   1.280   6.912
12646TIP3    H237816   7.612   1.160   6.893
12647TIP3   OH237817   6.751   1.062   6.426
12647TIP3    H137818   6.718   0.995   6.366
12647TIP3    H237819   6.823   1.020   6.471
12648TIP3   OH237820   6.902   1.457   6.587
12648TIP3    H137821   6.880   1.447   6.495
12648TIP3    H237822   6.990   1.422   6.596
12649TIP3   OH237823   6.845   1.100   6.812
12649TIP3    H137824   6.886   1.067   6.732
12649TIP3    H237825   6.907   1.164   6.846
12650TIP3   OH237826   7.409   1.681   6.572
12650TIP3    H137827   7.400   1.759   6.627
12650TIP3    H237828   7.396   1.607   6.632
12651TIP3   OH237829   7.038   1.572   7.138
12651TIP3    H137830   6.977   1.631   7.182
12651TIP3    H237831   6.983   1.519   7.080
12652TIP3   OH237832   7.349   0.970   5.873
12652TIP3    H137833   7.411   1.019   5.928
12652TIP3    H237834   7.372   0.995   5.783
12653TIP3   OH237835   6.769   1.139   7.302
12653TIP3    H137836   6.775   1.232   7.323
12653TIP3    H237837   6.675   1.120   7.305
12654TIP3   OH237838   7.118   1.592   6.131
12654TIP3    H137839   7.199   1.643   6.132
12654TIP3    H237840   7.058   1.645   6.079
12655TIP3   OH237841   6.830   1.727   7.226
12655TIP3    H137842   6.802   1.737   7.135
12655TIP3    H237843   6.749   1.709   7.274
12656TIP3   OH237844   6.644   0.892   6.234
12656TIP3    H137845   6.571   0.950   6.211
12656TIP3    H237846   6.604   0.806   6.241
12657TIP3   OH237847   7.706   1.533   5.486
12657TIP3    H137848   7.702   1.626   5.465
12657TIP3    H237849   7.797   1.508   5.467
12658TIP3   OH237850   6.424   1.295   7.180
12658TIP3    H137851   6.351   1.287   7.118
12658TIP3    H237852   6.456   1.206   7.191
12659TIP3   OH237853   6.261   1.504   6.843
12659TIP3    H137854   6.348   1.533   6.868
12659TIP3    H237855   6.206   1.582   6.855
12660TIP3   OH237856   8.128   1.951   6.877
12660TIP3    H137857   8.138   1.856   6.888
12660TIP3    H237858   8.047   1.972   6.923
12661TIP3   OH237859   7.232   1.712   7.002
12661TIP3    H137860   7.225   1.803   7.030
12661TIP3    H237861   7.163   1.666   7.050
12662TIP3   OH237862   7.011   1.809   5.957
12662TIP3    H137863   6.962   1.788   5.878
12662TIP3    H237864   6.972   1.890   5.989
12663TIP3   OH237865   6.448   1.667   6.334
12663TIP3    H137866   6.492   1.661   6.418
12663TIP3    H237867   6.398   1.585   6.327
12664TIP3   OH237868   7.208   1.758   5.573
12664TIP3    H137869   7.258   1.684   5.538
12664TIP3    H237870   7.242   1.770   5.662
12665TIP3   OH237871   7.262   1.794   5.843
12665TIP3    H137872   7.177   1.793   5.888
12665TIP3    H237873   7.323   1.756   5.906
12666TIP3   OH237874   8.020   1.093   7.032
12666TIP3    H137875   7.946   1.151   7.050
12666TIP3    H237876   7.986   1.005   7.051
12667TIP3   OH237877   6.626   1.480   7.141
12667TIP3    H137878   6.672   1.476   7.225
12667TIP3    H237879   6.553   1.419   7.150
12668TIP3   OH237880   7.753   1.038   7.144
12668TIP3    H137881   7.732   0.945   7.132
12668TIP3    H237882   7.744   1.076   7.057
12669TIP3   OH237883   7.437   1.025   5.627
12669TIP3    H137884   7.388   0.998   5.549
12669TIP3    H237885   7.520   1.059   5.593
12670TIP3   OH237886   6.912   0.857   6.927
12670TIP3    H137887   6.869   0.862   7.012
12670TIP3    H237888   6.882   0.935   6.880
12671TIP3   OH237889   6.768   0.771   6.552
12671TIP3    H137890   6.686   0.723   6.542
12671TIP3    H237891   6.821   0.746   6.476
12672TIP3   OH237892   7.341   0.843   6.216
12672TIP3    H137893   7.279   0.902   6.174
12672TIP3    H237894   7.367   0.782   6.146
12673TIP3   OH237895   7.523   1.170   7.229
12673TIP3    H137896   7.496   1.117   7.304
12673TIP3    H237897   7.613   1.144   7.212
12674TIP3   OH237898   7.480   0.978   6.413
12674TIP3    H137899   7.439   1.061   6.389
12674TIP3    H237900   7.443   0.914   6.352
12675TIP3   OH237901   6.788   0.902   7.164
12675TIP3    H137902   6.788   0.975   7.226
12675TIP3    H237903   6.733   0.835   7.204
12676TIP3   OH237904   7.446   1.078   6.868
12676TIP3    H137905   7.476   1.014   6.802
12676TIP3    H237906   7.433   1.026   6.947
12677TIP3   OH237907   6.548   0.607   6.546
12677TIP3    H137908   6.468   0.643   6.508
12677TIP3    H237909   6.561   0.525   6.498
12678TIP3   OH237910   6.896   0.461   6.201
12678TIP3    H137911   6.966   0.523   6.219
12678TIP3    H237912   6.840   0.507   6.138
12679TIP3   OH237913   6.747   0.609   6.017
12679TIP3    H137914   6.670   0.552   6.019
12679TIP3    H237915   6.757   0.633   5.925
12680TIP3   OH237916   7.837   2.272   6.966
12680TIP3    H137917   7.832   2.288   6.872
12680TIP3    H237918   7.916   2.317   6.994
12681TIP3   OH237919   6.773   1.401   7.385
12681TIP3    H137920   6.855   1.416   7.431
12681TIP3    H237921   6.705   1.413   7.451
12682TIP3   OH237922   7.214   0.899   6.652
12682TIP3    H137923   7.220   0.835   6.581
12682TIP3    H237924   7.223   0.846   6.732
12683TIP3   OH237925   7.232   0.751   6.887
12683TIP3    H137926   7.144   0.713   6.881
12683TIP3    H237927   7.266   0.719   6.971
12684TIP3   OH237928   6.928   1.105   6.013
12684TIP3    H137929   6.854   1.049   5.990
12684TIP3    H237930   6.900   1.149   6.094
12685TIP3   OH237931   7.831   1.396   6.632
12685TIP3    H137932   7.866   1.448   6.559
12685TIP3    H237933   7.746   1.365   6.600
12686TIP3   OH237934   7.397   1.479   7.013
12686TIP3    H137935   7.349   1.404   7.048
12686TIP3    H237936   7.340   1.554   7.030
12687TIP3   OH237937   7.414   0.724   5.969
12687TIP3    H137938   7.506   0.722   5.995
12687TIP3    H237939   7.401   0.813   5.935
12688TIP3   OH237940   6.613   1.133   6.653
12688TIP3    H137941   6.650   1.115   6.566
12688TIP3    H237942   6.685   1.115   6.713
12689TIP3   OH237943   7.100   1.271   5.883
12689TIP3    H137944   7.053   1.355   5.878
12689TIP3    H237945   7.038   1.211   5.924
12690TIP3   OH237946   6.509   1.048   7.315
12690TIP3    H137947   6.509   1.006   7.401
12690TIP3    H237948   6.434   1.010   7.270
12691TIP3   OH237949   7.248   1.237   7.333
12691TIP3    H137950   7.169   1.184   7.326
12691TIP3    H237951   7.287   1.235   7.246
12692TIP3   OH237952   7.503   1.749   6.916
12692TIP3    H137953   7.409   1.731   6.920
12692TIP3    H237954   7.527   1.773   7.005
12693TIP3   OH237955   7.955   0.735   5.906
12693TIP3    H137956   7.970   0.662   5.847
12693TIP3    H237957   7.880   0.782   5.868
12694TIP3   OH237958   8.154   1.677   6.900
12694TIP3    H137959   8.061   1.652   6.907
12694TIP3    H237960   8.181   1.643   6.814
12695TIP3   OH237961   7.621   1.594   5.751
12695TIP3    H137962   7.596   1.522   5.809
12695TIP3    H237963   7.642   1.552   5.668
12696TIP3   OH237964   7.590   1.261   6.573
12696TIP3    H137965   7.502   1.225   6.570
12696TIP3    H237966   7.647   1.187   6.593
12697TIP3   OH237967   6.764   1.471   6.344
12697TIP3    H137968   6.759   1.546   6.285
12697TIP3    H237969   6.675   1.460   6.377
12698TIP3   OH237970   6.313   0.822   6.018
12698TIP3    H137971   6.362   0.887   6.068
12698TIP3    H237972   6.249   0.788   6.080
12699TIP3   OH237973   6.842   1.235   6.231
12699TIP3    H137974   6.830   1.323   6.266
12699TIP3    H237975   6.810   1.177   6.301
12700TIP3   OH237976   7.049   1.783   6.794
12700TIP3    H137977   7.082   1.858   6.745
12700TIP3    H237978   7.125   1.754   6.846
12701TIP3   OH237979   6.679   1.687   6.189
12701TIP3    H137980   6.592   1.692   6.229
12701TIP3    H237981   6.715   1.775   6.197
12702TIP3   OH237982   7.401   1.455   6.737
12702TIP3    H137983   7.408   1.465   6.832
12702TIP3    H237984   7.480   1.407   6.712
12703TIP3   OH237985   7.393   1.340   5.629
12703TIP3    H137986   7.442   1.310   5.706
12703TIP3    H237987   7.309   1.295   5.636
12704TIP3   OH237988   7.654   1.950   6.805
12704TIP3    H137989   7.587   1.886   6.829
12704TIP3    H237990   7.615   1.999   6.732
12705TIP3   OH237991   7.711   1.806   5.448
12705TIP3    H137992   7.759   1.877   5.408
12705TIP3    H237993   7.631   1.847   5.483
12706TIP3   OH237994   7.558   1.257   5.829
12706TIP3    H137995   7.544   1.204   5.908
12706TIP3    H237996   7.653   1.266   5.823
12707TIP3   OH237997   6.471   1.678   6.951
12707TIP3    H137998   6.530   1.625   7.005
12707TIP3    H237999   6.481   1.766   6.986
12708TIP3   OH238000   6.741   1.315   5.663
12708TIP3    H138001   6.749   1.226   5.632
12708TIP3    H238002   6.728   1.307   5.758
12709TIP3   OH238003   6.684   1.313   5.935
12709TIP3    H138004   6.745   1.285   6.003
12709TIP3    H238005   6.685   1.409   5.939
12710TIP3   OH238006   6.431   1.041   6.150
12710TIP3    H138007   6.361   1.083   6.200
12710TIP3    H238008   6.441   1.095   6.072
12711TIP3   OH238009   6.958   1.500   5.863
12711TIP3    H138010   6.871   1.522   5.898
12711TIP3    H238011   6.979   1.572   5.804
12712TIP3   OH238012   7.175   0.502   6.245
12712TIP3    H138013   7.261   0.543   6.243
12712TIP3    H238014   7.180   0.438   6.317
12713TIP3   OH238015   7.415   0.944   7.102
12713TIP3    H138016   7.413   1.027   7.150
12713TIP3    H238017   7.495   0.901   7.130
12714TIP3   OH238018   6.707   1.585   5.938
12714TIP3    H138019   6.686   1.657   5.878
12714TIP3    H238020   6.695   1.623   6.025
12715TIP3   OH238021   7.747   0.937   6.401
12715TIP3    H138022   7.657   0.968   6.405
12715TIP3    H238023   7.789   0.976   6.479
12716TIP3   OH238024   6.435   1.196   5.917
12716TIP3    H138025   6.513   1.251   5.925
12716TIP3    H238026   6.459   1.129   5.853
12717TIP3   OH238027   6.288   0.513   5.968
12717TIP3    H138028   6.354   0.463   6.016
12717TIP3    H238029   6.206   0.495   6.014
12718TIP3   OH238030   7.682   1.937   6.372
12718TIP3    H138031   7.640   1.990   6.304
12718TIP3    H238032   7.776   1.954   6.361
12719TIP3   OH238033   6.272   1.451   6.319
12719TIP3    H138034   6.231   1.488   6.397
12719TIP3    H238035   6.228   1.494   6.246
12720TIP3   OH238036   6.463   1.977   7.378
12720TIP3    H138037   6.544   1.975   7.428
12720TIP3    H238038   6.435   1.885   7.373
12721TIP3   OH238039   6.931   1.889   7.424
12721TIP3    H138040   7.024   1.866   7.433
12721TIP3    H238041   6.900   1.836   7.351
12722TIP3   OH238042   6.905   1.496   5.539
12722TIP3    H138043   6.855   1.431   5.589
12722TIP3    H238044   6.976   1.446   5.500
12723TIP3   OH238045   7.558   1.828   7.173
12723TIP3    H138046   7.571   1.763   7.242
12723TIP3    H238047   7.629   1.891   7.186
12724TIP3   OH238048   7.339   1.547   5.461
12724TIP3    H138049   7.371   1.483   5.525
12724TIP3    H238050   7.397   1.535   5.385
12725TIP3   OH238051   6.577   1.382   7.581
12725TIP3    H138052   6.593   1.288   7.590
12725TIP3    H238053   6.493   1.387   7.536
12726TIP3   OH238054   6.550   1.005   5.758
12726TIP3    H138055   6.599   0.976   5.836
12726TIP3    H238056   6.618   1.028   5.695
12727TIP3   OH238057   7.187   1.504   7.356
12727TIP3    H138058   7.142   1.519   7.273
12727TIP3    H238059   7.225   1.416   7.347
12728TIP3   OH238060   7.139   1.233   5.615
12728TIP3    H138061   7.118   1.243   5.708
12728TIP3    H238062   7.123   1.140   5.597
12729TIP3   OH238063   7.660   1.454   6.948
12729TIP3    H138064   7.700   1.535   6.918
12729TIP3    H238065   7.572   1.479   6.976
12730TIP3   OH238066   6.685   1.117   7.615
12730TIP3    H138067   6.761   1.077   7.574
12730TIP3    H238068   6.716   1.144   7.701
12731TIP3   OH238069   6.716   0.933   5.966
12731TIP3    H138070   6.700   0.904   6.056
12731TIP3    H238071   6.760   0.858   5.925
12732TIP3   OH238072   7.037   1.073   7.298
12732TIP3    H138073   6.945   1.099   7.295
12732TIP3    H238074   7.055   1.040   7.209
12733TIP3   OH238075   6.846   0.753   5.801
12733TIP3    H138076   6.816   0.758   5.710
12733TIP3    H238077   6.938   0.781   5.797
12734TIP3   OH238078   7.549   1.400   7.378
12734TIP3    H138079   7.534   1.339   7.306
12734TIP3    H238080   7.543   1.347   7.457
12735TIP3   OH238081   7.671   1.062   5.459
12735TIP3    H138082   7.653   1.016   5.377
12735TIP3    H238083   7.644   1.152   5.442
12736TIP3   OH238084   7.045   0.715   7.206
12736TIP3    H138085   7.139   0.702   7.190
12736TIP3    H238086   7.026   0.800   7.167
12737TIP3   OH238087   7.265   1.238   7.044
12737TIP3    H138088   7.319   1.197   6.977
12737TIP3    H238089   7.178   1.243   7.005
12738TIP3   OH238090   7.872   1.097   7.605
12738TIP3    H138091   7.813   1.070   7.535
12738TIP3    H238092   7.850   1.189   7.621
12739TIP3   OH238093   7.808   1.347   7.154
12739TIP3    H138094   7.736   1.381   7.102
12739TIP3    H238095   7.887   1.366   7.103
12740TIP3   OH238096   6.927   0.923   7.653
12740TIP3    H138097   6.859   0.903   7.717
12740TIP3    H238098   7.006   0.935   7.705
12741TIP3   OH238099   7.416   0.984   7.403
12741TIP3    H138100   7.357   1.025   7.467
12741TIP3    H238101   7.382   0.895   7.393
12742TIP3   OH238102   6.706   1.797   5.757
12742TIP3    H138103   6.794   1.772   5.728
12742TIP3    H238104   6.668   1.840   5.681
12743TIP3   OH238105   6.165   1.188   5.960
12743TIP3    H138106   6.258   1.205   5.945
12743TIP3    H238107   6.148   1.108   5.912
12744TIP3   OH238108   6.071   1.751   6.393
12744TIP3    H138109   6.003   1.698   6.350
12744TIP3    H238110   6.113   1.691   6.455
12745TIP3   OH238111   6.213   1.586   6.564
12745TIP3    H138112   6.204   1.520   6.633
12745TIP3    H238113   6.265   1.655   6.603
12746TIP3   OH238114   7.950   1.999   6.373
12746TIP3    H138115   7.966   2.024   6.464
12746TIP3    H238116   8.001   2.062   6.321
12747TIP3   OH238117   7.963   2.027   6.652
12747TIP3    H138118   7.919   1.942   6.651
12747TIP3    H238119   8.035   2.016   6.714
12748TIP3   OH238120   8.017   1.732   7.216
12748TIP3    H138121   7.949   1.741   7.283
12748TIP3    H238122   8.067   1.814   7.221
12749TIP3   OH238123   7.832   1.273   5.818
12749TIP3    H138124   7.894   1.341   5.792
12749TIP3    H238125   7.872   1.232   5.895
12750TIP3   OH238126   7.948   1.141   6.027
12750TIP3    H138127   7.886   1.090   6.080
12750TIP3    H238128   8.007   1.181   6.091
12751TIP3   OH238129   8.011   1.528   6.469
12751TIP3    H138130   8.060   1.461   6.421
12751TIP3    H238131   8.015   1.605   6.413
12752TIP3   OH238132   7.825   1.785   6.664
12752TIP3    H138133   7.758   1.834   6.710
12752TIP3    H238134   7.779   1.743   6.591
12753TIP3   OH238135   7.871   1.067   5.644
12753TIP3    H138136   7.804   1.070   5.575
12753TIP3    H238137   7.853   1.144   5.698
12754TIP3   OH238138   7.834   0.696   5.553
12754TIP3    H138139   7.751   0.741   5.538
12754TIP3    H238140   7.824   0.655   5.639
12755TIP3   OH238141   7.761   0.953   6.130
12755TIP3    H138142   7.744   0.866   6.094
12755TIP3    H238143   7.771   0.939   6.224
12756TIP3   OH238144   6.369   1.047   6.940
12756TIP3    H138145   6.366   1.030   6.846
12756TIP3    H238146   6.463   1.055   6.959
12757TIP3   OH238147   8.025   1.399   6.995
12757TIP3    H138148   8.100   1.364   6.948
12757TIP3    H238149   7.984   1.460   6.934
12758TIP3   OH238150   8.262   1.230   7.030
12758TIP3    H138151   8.179   1.191   7.058
12758TIP3    H238152   8.303   1.261   7.111
12759TIP3   OH238153   7.673   0.687   6.032
12759TIP3    H138154   7.706   0.606   6.072
12759TIP3    H238155   7.704   0.683   5.942
12760TIP3   OH238156   7.976   0.860   6.617
12760TIP3    H138157   8.020   0.917   6.554
12760TIP3    H238158   8.027   0.869   6.697
12761TIP3   OH238159   8.118   1.031   6.787
12761TIP3    H138160   8.089   1.055   6.875
12761TIP3    H238161   8.102   1.109   6.734
12762TIP3   OH238162   6.271   0.778   6.937
12762TIP3    H138163   6.351   0.766   6.885
12762TIP3    H238164   6.262   0.872   6.945
12763TIP3   OH238165   7.499   1.917   6.007
12763TIP3    H138166   7.556   1.905   5.932
12763TIP3    H238167   7.544   1.982   6.061
12764TIP3   OH238168   6.611   1.688   7.395
12764TIP3    H138169   6.516   1.682   7.386
12764TIP3    H238170   6.625   1.700   7.489
12765TIP3   OH238171   6.820   1.745   6.942
12765TIP3    H138172   6.768   1.820   6.912
12765TIP3    H238173   6.904   1.755   6.898
12766TIP3   OH238174   7.215   1.977   7.080
12766TIP3    H138175   7.252   1.973   7.168
12766TIP3    H238176   7.276   2.032   7.030
12767TIP3   OH238177   7.405   2.134   6.956
12767TIP3    H138178   7.468   2.081   6.907
12767TIP3    H238179   7.459   2.192   7.010
12768TIP3   OH238180   6.476   1.974   6.995
12768TIP3    H138181   6.384   1.991   6.977
12768TIP3    H238182   6.501   2.042   7.058
12769TIP3   OH238183   6.708   1.978   6.845
12769TIP3    H138184   6.624   1.979   6.891
12769TIP3    H238185   6.686   2.005   6.755
12770TIP3   OH238186   7.116   1.999   6.636
12770TIP3    H138187   7.043   2.010   6.575
12770TIP3    H238188   7.125   2.085   6.677
12771TIP3   OH238189   7.378   1.931   6.678
12771TIP3    H138190   7.288   1.955   6.659
12771TIP3    H238191   7.430   1.997   6.632
12772TIP3   OH238192   7.580   2.093   6.575
12772TIP3    H138193   7.589   2.182   6.540
12772TIP3    H238194   7.611   2.036   6.505
12773TIP3   OH238195   6.389   1.762   6.695
12773TIP3    H138196   6.405   1.741   6.787
12773TIP3    H238197   6.465   1.728   6.649
12774TIP3   OH238198   6.598   1.652   6.563
12774TIP3    H138199   6.607   1.569   6.610
12774TIP3    H238200   6.685   1.693   6.569
12775TIP3   OH238201   6.864   1.736   6.591
12775TIP3    H138202   6.880   1.643   6.577
12775TIP3    H238203   6.920   1.759   6.666
12776TIP3   OH238204   6.158   1.565   6.100
12776TIP3    H138205   6.075   1.526   6.071
12776TIP3    H238206   6.158   1.652   6.062
12777TIP3   OH238207   6.958   1.718   5.684
12777TIP3    H138208   7.041   1.748   5.645
12777TIP3    H238209   6.930   1.646   5.628
12778TIP3   OH238210   7.652   1.864   5.780
12778TIP3    H138211   7.645   1.769   5.774
12778TIP3    H238212   7.611   1.896   5.700
12779TIP3   OH238213   6.267   1.558   5.742
12779TIP3    H138214   6.265   1.552   5.837
12779TIP3    H238215   6.346   1.510   5.716
12780TIP3   OH238216   7.873   1.999   6.972
12780TIP3    H138217   7.799   1.970   6.918
12780TIP3    H238218   7.860   2.094   6.980
12781TIP3   OH238219   9.157   1.364   5.736
12781TIP3    H138220   9.130   1.454   5.720
12781TIP3    H238221   9.092   1.311   5.689
12782TIP3   OH238222   9.086   1.374   6.117
12782TIP3    H138223   9.158   1.369   6.181
12782TIP3    H238224   9.052   1.285   6.112
12783TIP3   OH238225   8.427   1.300   6.471
12783TIP3    H138226   8.468   1.247   6.539
12783TIP3    H238227   8.500   1.331   6.417
12784TIP3   OH238228   9.402   1.669   5.818
12784TIP3    H138229   9.380   1.607   5.888
12784TIP3    H238230   9.429   1.749   5.865
12785TIP3   OH238231   8.432   1.673   6.168
12785TIP3    H138232   8.412   1.580   6.166
12785TIP3    H238233   8.527   1.677   6.159
12786TIP3   OH238234   8.128   0.942   5.964
12786TIP3    H138235   8.077   1.022   5.977
12786TIP3    H238236   8.063   0.873   5.950
12787TIP3   OH238237   8.189   1.230   6.150
12787TIP3    H138238   8.236   1.149   6.168
12787TIP3    H238239   8.257   1.292   6.126
12788TIP3   OH238240   9.098   2.088   5.835
12788TIP3    H138241   9.115   2.025   5.765
12788TIP3    H238242   9.115   2.039   5.916
12789TIP3   OH238243   8.941   1.609   6.142
12789TIP3    H138244   8.976   1.523   6.118
12789TIP3    H238245   9.018   1.663   6.158
12790TIP3   OH238246   9.468   1.159   6.134
12790TIP3    H138247   9.469   1.067   6.158
12790TIP3    H238248   9.410   1.164   6.059
12791TIP3   OH238249   8.296   0.995   6.248
12791TIP3    H138250   8.387   0.981   6.273
12791TIP3    H238251   8.277   0.925   6.186
12792TIP3   OH238252   8.747   1.238   6.089
12792TIP3    H138253   8.834   1.200   6.100
12792TIP3    H238254   8.689   1.162   6.079
12793TIP3   OH238255   9.046   1.592   5.600
12793TIP3    H138256   9.011   1.561   5.517
12793TIP3    H238257   8.993   1.669   5.622
12794TIP3   OH238258   8.818   1.551   6.383
12794TIP3    H138259   8.754   1.618   6.404
12794TIP3    H238260   8.858   1.580   6.300
12795TIP3   OH238261   8.554   0.918   6.297
12795TIP3    H138262   8.604   0.980   6.351
12795TIP3    H238263   8.613   0.896   6.225
12796TIP3   OH238264   8.633   1.737   6.456
12796TIP3    H138265   8.624   1.827   6.426
12796TIP3    H238266   8.554   1.721   6.508
12797TIP3   OH238267   8.018   1.446   5.712
12797TIP3    H138268   7.986   1.467   5.624
12797TIP3    H238269   8.042   1.531   5.750
12798TIP3   OH238270   9.434   1.904   5.965
12798TIP3    H138271   9.342   1.909   5.990
12798TIP3    H238272   9.454   1.989   5.927
12799TIP3   OH238273   9.167   1.944   5.603
12799TIP3    H138274   9.224   1.868   5.591
12799TIP3    H238275   9.223   2.019   5.582
12800TIP3   OH238276   9.297   1.700   5.570
12800TIP3    H138277   9.212   1.660   5.587
12800TIP3    H238278   9.346   1.688   5.651
12801TIP3   OH238279   8.997   1.227   5.557
12801TIP3    H138280   8.910   1.265   5.543
12801TIP3    H238281   9.036   1.225   5.470
12802TIP3   OH238282   8.922   1.046   5.289
12802TIP3    H138283   9.002   1.098   5.299
12802TIP3    H238284   8.941   0.964   5.337
12803TIP3   OH238285   9.330   1.301   5.522
12803TIP3    H138286   9.280   1.326   5.600
12803TIP3    H238287   9.410   1.261   5.556
12804TIP3   OH238288   9.530   1.340   6.481
12804TIP3    H138289   9.568   1.416   6.526
12804TIP3    H238290   9.470   1.379   6.417
12805TIP3   OH238291   8.559   1.338   5.904
12805TIP3    H138292   8.527   1.265   5.851
12805TIP3    H238293   8.632   1.301   5.953
12806TIP3   OH238294   8.693   1.715   6.074
12806TIP3    H138295   8.677   1.704   5.980
12806TIP3    H238296   8.780   1.679   6.088
12807TIP3   OH238297   8.645   1.351   6.311
12807TIP3    H138298   8.687   1.322   6.230
12807TIP3    H238299   8.704   1.418   6.346
12808TIP3   OH238300   9.179   1.939   6.057
12808TIP3    H138301   9.176   2.012   6.118
12808TIP3    H238302   9.173   1.861   6.112
12809TIP3   OH238303   8.834   1.820   6.629
12809TIP3    H138304   8.776   1.880   6.674
12809TIP3    H238305   8.778   1.771   6.570
12810TIP3   OH238306   9.165   1.171   5.338
12810TIP3    H138307   9.230   1.211   5.396
12810TIP3    H238308   9.190   1.199   5.250
12811TIP3   OH238309   8.578   1.401   6.787
12811TIP3    H138310   8.585   1.494   6.806
12811TIP3    H238311   8.483   1.385   6.781
12812TIP3   OH238312   8.913   1.836   5.616
12812TIP3    H138313   8.996   1.884   5.620
12812TIP3    H238314   8.854   1.895   5.570
12813TIP3   OH238315   8.630   1.985   6.711
12813TIP3    H138316   8.606   1.999   6.619
12813TIP3    H238317   8.546   1.970   6.755
12814TIP3   OH238318   8.445   1.166   5.712
12814TIP3    H138319   8.371   1.220   5.686
12814TIP3    H238320   8.407   1.083   5.741
12815TIP3   OH238321   8.218   1.563   6.661
12815TIP3    H138322   8.146   1.547   6.599
12815TIP3    H238323   8.253   1.476   6.680
12816TIP3   OH238324   8.066   1.752   6.319
12816TIP3    H138325   8.157   1.775   6.336
12816TIP3    H238326   8.016   1.830   6.342
12817TIP3   OH238327   9.024   1.963   6.490
12817TIP3    H138328   9.012   2.053   6.520
12817TIP3    H238329   8.959   1.912   6.539
12818TIP3   OH238330   8.800   2.057   5.450
12818TIP3    H138331   8.754   2.041   5.367
12818TIP3    H238332   8.765   2.141   5.480
12819TIP3   OH238333   8.240   1.926   5.821
12819TIP3    H138334   8.288   1.920   5.904
12819TIP3    H238335   8.194   1.843   5.813
12820TIP3   OH238336   9.017   1.982   5.075
12820TIP3    H138337   9.074   1.909   5.050
12820TIP3    H238338   9.041   2.002   5.166
12821TIP3   OH238339   9.052   2.030   5.348
12821TIP3    H138340   8.966   2.034   5.389
12821TIP3    H238341   9.110   1.998   5.417
12822TIP3   OH238342   8.418   1.748   6.628
12822TIP3    H138343   8.467   1.741   6.710
12822TIP3    H238344   8.347   1.685   6.637
12823TIP3   OH238345   9.235   1.243   5.084
12823TIP3    H138346   9.187   1.222   5.004
12823TIP3    H238347   9.243   1.338   5.082
12824TIP3   OH238348   8.706   1.104   6.427
12824TIP3    H138349   8.668   1.105   6.515
12824TIP3    H238350   8.681   1.188   6.389
12825TIP3   OH238351   8.561   1.050   6.029
12825TIP3    H138352   8.500   0.977   6.037
12825TIP3    H238353   8.616   1.028   5.954
12826TIP3   OH238354   9.191   1.046   5.678
12826TIP3    H138355   9.135   1.092   5.615
12826TIP3    H238356   9.230   0.975   5.628
12827TIP3   OH238357   9.280   1.368   6.745
12827TIP3    H138358   9.320   1.316   6.815
12827TIP3    H238359   9.312   1.457   6.760
12828TIP3   OH238360   9.261   1.181   5.933
12828TIP3    H138361   9.229   1.257   5.884
12828TIP3    H238362   9.282   1.117   5.866
12829TIP3   OH238363   8.567   1.154   6.658
12829TIP3    H138364   8.577   1.227   6.718
12829TIP3    H238365   8.521   1.087   6.709
12830TIP3   OH238366   9.310   1.337   6.277
12830TIP3    H138367   9.370   1.269   6.249
12830TIP3    H238368   9.274   1.305   6.360
12831TIP3   OH238369   8.384   0.835   6.025
12831TIP3    H138370   8.318   0.893   5.987
12831TIP3    H238371   8.340   0.750   6.029
12832TIP3   OH238372   8.678   0.770   5.670
12832TIP3    H138373   8.765   0.736   5.689
12832TIP3    H238374   8.693   0.851   5.621
12833TIP3   OH238375   8.419   0.913   5.508
12833TIP3    H138376   8.345   0.927   5.567
12833TIP3    H238377   8.495   0.909   5.566
12834TIP3   OH238378   9.607   2.563   6.468
12834TIP3    H138379   9.590   2.544   6.376
12834TIP3    H238380   9.581   2.654   6.479
12835TIP3   OH238381   8.573   1.663   6.869
12835TIP3    H138382   8.656   1.677   6.916
12835TIP3    H238383   8.506   1.674   6.937
12836TIP3   OH238384   8.987   1.105   6.144
12836TIP3    H138385   8.946   1.023   6.114
12836TIP3    H238386   9.005   1.089   6.237
12837TIP3   OH238387   9.022   1.008   6.396
12837TIP3    H138388   8.943   0.957   6.414
12837TIP3    H238389   9.078   0.992   6.472
12838TIP3   OH238390   8.745   1.335   5.502
12838TIP3    H138391   8.667   1.294   5.465
12838TIP3    H238392   8.711   1.392   5.571
12839TIP3   OH238393   9.201   1.733   6.480
12839TIP3    H138394   9.154   1.656   6.514
12839TIP3    H238395   9.143   1.806   6.498
12840TIP3   OH238396   8.418   1.392   6.138
12840TIP3    H138397   8.459   1.380   6.053
12840TIP3    H238398   8.487   1.371   6.201
12841TIP3   OH238399   8.899   1.522   5.372
12841TIP3    H138400   8.848   1.603   5.367
12841TIP3    H238401   8.840   1.459   5.412
12842TIP3   OH238402   8.314   1.326   6.782
12842TIP3    H138403   8.313   1.291   6.871
12842TIP3    H238404   8.244   1.279   6.737
12843TIP3   OH238405   9.040   1.457   6.856
12843TIP3    H138406   8.964   1.407   6.824
12843TIP3    H238407   9.110   1.436   6.794
12844TIP3   OH238408   9.290   2.031   6.420
12844TIP3    H138409   9.199   2.003   6.419
12844TIP3    H238410   9.310   2.046   6.512
12845TIP3   OH238411   9.391   1.827   5.212
12845TIP3    H138412   9.392   1.744   5.261
12845TIP3    H238413   9.323   1.814   5.146
12846TIP3   OH238414   9.325   1.507   6.032
12846TIP3    H138415   9.236   1.472   6.025
12846TIP3    H238416   9.371   1.446   6.089
12847TIP3   OH238417   8.568   1.728   5.823
12847TIP3    H138418   8.558   1.805   5.768
12847TIP3    H238419   8.480   1.714   5.859
12848TIP3   OH238420   8.119   1.032   5.542
12848TIP3    H138421   8.168   1.112   5.564
12848TIP3    H238422   8.034   1.045   5.584
12849TIP3   OH238423   8.622   1.497   5.684
12849TIP3    H138424   8.626   1.585   5.722
12849TIP3    H238425   8.599   1.440   5.758
12850TIP3   OH238426   8.846   2.043   6.279
12850TIP3    H138427   8.881   2.118   6.230
12850TIP3    H238428   8.922   2.010   6.329
12851TIP3   OH238429   8.472   1.943   5.674
12851TIP3    H138430   8.385   1.949   5.714
12851TIP3    H238431   8.508   2.031   5.681
12852TIP3   OH238432   9.191   1.708   6.205
12852TIP3    H138433   9.208   1.711   6.299
12852TIP3    H238434   9.260   1.652   6.170
12853TIP3   OH238435   9.213   1.520   5.105
12853TIP3    H138436   9.247   1.526   5.194
12853TIP3    H238437   9.118   1.511   5.116
12854TIP3   OH238438   9.485   2.169   6.292
12854TIP3    H138439   9.412   2.120   6.330
12854TIP3    H238440   9.445   2.221   6.222
12855TIP3   OH238441   9.323   1.532   5.355
12855TIP3    H138442   9.334   1.448   5.401
12855TIP3    H238443   9.320   1.597   5.425
12856TIP3   OH238444   8.271   1.942   6.442
12856TIP3    H138445   8.326   1.887   6.498
12856TIP3    H238446   8.284   2.031   6.476
12857TIP3   OH238447   8.538   1.559   5.154
12857TIP3    H138448   8.549   1.469   5.123
12857TIP3    H238449   8.530   1.550   5.249
12858TIP3   OH238450   8.484   1.563   5.431
12858TIP3    H138451   8.532   1.541   5.511
12858TIP3    H238452   8.484   1.659   5.429
12859TIP3   OH238453   8.218   1.283   5.614
12859TIP3    H138454   8.153   1.328   5.667
12859TIP3    H238455   8.231   1.340   5.538
12860TIP3   OH238456   8.748   1.745   5.347
12860TIP3    H138457   8.663   1.770   5.383
12860TIP3    H238458   8.773   1.819   5.291
12861TIP3   OH238459   8.941   0.765   5.757
12861TIP3    H138460   8.967   0.840   5.809
12861TIP3    H238461   8.988   0.691   5.797
12862TIP3   OH238462   9.208   1.238   6.513
12862TIP3    H138463   9.241   1.280   6.593
12862TIP3    H238464   9.258   1.156   6.507
12863TIP3   OH238465   8.500   1.836   5.424
12863TIP3    H138466   8.481   1.907   5.363
12863TIP3    H238467   8.489   1.876   5.511
12864TIP3   OH238468   8.232   1.452   5.394
12864TIP3    H138469   8.308   1.509   5.408
12864TIP3    H238470   8.261   1.389   5.328
12865TIP3   OH238471   8.105   0.754   5.550
12865TIP3    H138472   8.115   0.849   5.554
12865TIP3    H238473   8.010   0.740   5.550
12866TIP3   OH238474   9.484   2.158   5.880
12866TIP3    H138475   9.456   2.211   5.805
12866TIP3    H238476   9.579   2.173   5.885
12867TIP3   OH238477   8.069   1.704   5.805
12867TIP3    H138478   8.030   1.742   5.884
12867TIP3    H238479   8.024   1.748   5.733
12868TIP3   OH238480   8.267   2.235   6.860
12868TIP3    H138481   8.350   2.235   6.908
12868TIP3    H238482   8.245   2.142   6.852
12869TIP3   OH238483   8.732   2.142   6.911
12869TIP3    H138484   8.825   2.119   6.918
12869TIP3    H238485   8.700   2.091   6.837
12870TIP3   OH238486   8.688   1.753   5.027
12870TIP3    H138487   8.644   1.683   5.076
12870TIP3    H238488   8.764   1.710   4.987
12871TIP3   OH238489   9.346   2.090   6.682
12871TIP3    H138490   9.355   2.012   6.736
12871TIP3    H238491   9.425   2.141   6.700
12872TIP3   OH238492   9.187   1.775   5.005
12872TIP3    H138493   9.200   1.682   5.025
12872TIP3    H238494   9.188   1.779   4.909
12873TIP3   OH238495   8.375   1.653   7.065
12873TIP3    H138496   8.400   1.561   7.078
12873TIP3    H238497   8.292   1.649   7.018
12874TIP3   OH238498   8.349   1.259   5.243
12874TIP3    H138499   8.401   1.227   5.317
12874TIP3    H238500   8.414   1.275   5.174
12875TIP3   OH238501   8.990   1.733   6.839
12875TIP3    H138502   8.947   1.750   6.755
12875TIP3    H238503   9.024   1.644   6.831
12876TIP3   OH238504   8.942   1.486   5.103
12876TIP3    H138505   8.919   1.498   5.195
12876TIP3    H238506   8.921   1.394   5.085
12877TIP3   OH238507   9.477   1.740   6.437
12877TIP3    H138508   9.498   1.799   6.364
12877TIP3    H238509   9.384   1.754   6.453
12878TIP3   OH238510   8.503   1.411   7.101
12878TIP3    H138511   8.574   1.380   7.044
12878TIP3    H238512   8.544   1.420   7.187
12879TIP3   OH238513   8.527   1.177   5.441
12879TIP3    H138514   8.500   1.164   5.532
12879TIP3    H238515   8.537   1.088   5.407
12880TIP3   OH238516   8.830   1.293   6.788
12880TIP3    H138517   8.746   1.339   6.780
12880TIP3    H238518   8.857   1.276   6.698
12881TIP3   OH238519   8.653   0.971   5.273
12881TIP3    H138520   8.622   0.990   5.185
12881TIP3    H238521   8.744   1.001   5.274
12882TIP3   OH238522   9.361   1.607   6.863
12882TIP3    H138523   9.455   1.625   6.854
12882TIP3    H238524   9.353   1.563   6.948
12883TIP3   OH238525   8.884   0.948   6.674
12883TIP3    H138526   8.980   0.957   6.670
12883TIP3    H238527   8.860   0.991   6.756
12884TIP3   OH238528   9.046   1.514   6.541
12884TIP3    H138529   9.066   1.420   6.534
12884TIP3    H238530   8.962   1.523   6.495
12885TIP3   OH238531   9.647   1.585   6.574
12885TIP3    H138532   9.579   1.640   6.535
12885TIP3    H238533   9.723   1.596   6.516
12886TIP3   OH238534   8.783   1.306   7.121
12886TIP3    H138535   8.762   1.214   7.137
12886TIP3    H238536   8.848   1.304   7.051
12887TIP3   OH238537   9.357   1.185   6.956
12887TIP3    H138538   9.319   1.111   7.003
12887TIP3    H238539   9.395   1.147   6.877
12888TIP3   OH238540   8.501   2.047   5.244
12888TIP3    H138541   8.590   2.026   5.216
12888TIP3    H238542   8.462   2.090   5.168
12889TIP3   OH238543   7.962   1.447   5.430
12889TIP3    H138544   8.056   1.460   5.419
12889TIP3    H238545   7.944   1.363   5.387
12890TIP3   OH238546   7.864   2.007   5.881
12890TIP3    H138547   7.799   1.955   5.835
12890TIP3    H238548   7.908   1.946   5.940
12891TIP3   OH238549   8.012   1.842   6.049
12891TIP3    H138550   8.005   1.776   6.118
12891TIP3    H238551   8.064   1.912   6.087
12892TIP3   OH238552   9.548   1.900   6.223
12892TIP3    H138553   9.545   1.994   6.242
12892TIP3    H238554   9.520   1.893   6.132
12893TIP3   OH238555   8.167   1.312   6.406
12893TIP3    H138556   8.164   1.294   6.312
12893TIP3    H238557   8.260   1.315   6.428
12894TIP3   OH238558   8.110   1.033   6.441
12894TIP3    H138559   8.174   1.029   6.370
12894TIP3    H238560   8.095   1.127   6.454
12895TIP3   OH238561   9.305   2.159   5.515
12895TIP3    H138562   9.359   2.141   5.439
12895TIP3    H238563   9.351   2.228   5.562
12896TIP3   OH238564   8.407   1.956   6.875
12896TIP3    H138565   8.312   1.944   6.871
12896TIP3    H238566   8.427   1.956   6.968
12897TIP3   OH238567   8.619   2.012   6.430
12897TIP3    H138568   8.569   2.087   6.398
12897TIP3    H238569   8.704   2.019   6.386
12898TIP3   OH238570   8.998   2.226   6.572
12898TIP3    H138571   9.038   2.227   6.659
12898TIP3    H238572   9.056   2.280   6.519
12899TIP3   OH238573   9.185   2.378   6.441
12899TIP3    H138574   9.241   2.319   6.391
12899TIP3    H238575   9.246   2.426   6.498
12900TIP3   OH238576   8.274   2.233   6.481
12900TIP3    H138577   8.183   2.250   6.458
12900TIP3    H238578   8.296   2.301   6.544
12901TIP3   OH238579   8.504   2.239   6.328
12901TIP3    H138580   8.421   2.240   6.375
12901TIP3    H238581   8.481   2.262   6.238
12902TIP3   OH238582   8.910   2.261   6.120
12902TIP3    H138583   8.838   2.272   6.058
12902TIP3    H238584   8.922   2.347   6.160
12903TIP3   OH238585   9.166   2.182   6.180
12903TIP3    H138586   9.081   2.213   6.150
12903TIP3    H238587   9.229   2.242   6.139
12904TIP3   OH238588   9.385   2.321   6.078
12904TIP3    H138589   9.350   2.394   6.026
12904TIP3    H238590   9.415   2.258   6.013
12905TIP3   OH238591   8.185   2.024   6.189
12905TIP3    H138592   8.209   2.001   6.279
12905TIP3    H238593   8.258   1.992   6.136
12906TIP3   OH238594   8.390   1.914   6.050
12906TIP3    H138595   8.399   1.830   6.095
12906TIP3    H238596   8.477   1.953   6.056
12907TIP3   OH238597   8.657   1.993   6.080
12907TIP3    H138598   8.674   1.900   6.066
12907TIP3    H238599   8.716   2.018   6.152
12908TIP3   OH238600   7.950   1.823   5.591
12908TIP3    H138601   7.866   1.786   5.562
12908TIP3    H238602   7.953   1.909   5.551
12909TIP3   OH238603   8.756   1.971   5.174
12909TIP3    H138604   8.841   1.994   5.137
12909TIP3    H238605   8.722   1.902   5.116
12910TIP3   OH238606   9.463   2.084   5.296
12910TIP3    H138607   9.449   1.991   5.276
12910TIP3    H238608   9.424   2.130   5.222
12911TIP3   OH238609   8.065   1.814   5.228
12911TIP3    H138610   8.069   1.820   5.323
12911TIP3    H238611   8.145   1.766   5.204
12912TIP3   OH238612   9.642   2.272   6.500
12912TIP3    H138613   9.599   2.232   6.425
12912TIP3    H238614   9.642   2.366   6.481
12913TIP3   OH238615   1.609   2.174   7.402
12913TIP3    H138616   1.573   2.260   7.380
12913TIP3    H238617   1.539   2.112   7.380
12914TIP3   OH238618   1.562   2.170   7.769
12914TIP3    H138619   1.620   2.142   7.839
12914TIP3    H238620   1.527   2.088   7.733
12915TIP3   OH238621   4.249   6.787   0.107
12915TIP3    H138622   4.314   6.717   0.112
12915TIP3    H238623   4.298   6.864   0.078
12916TIP3   OH238624   1.878   2.474   7.491
12916TIP3    H138625   1.870   2.410   7.561
12916TIP3    H238626   1.895   2.557   7.536
12917TIP3   OH238627   0.900   2.456   7.849
12917TIP3    H138628   0.878   2.363   7.843
12917TIP3    H238629   0.986   2.463   7.808
12918TIP3   OH238630   1.537   2.881   7.508
12918TIP3    H138631   1.557   2.820   7.437
12918TIP3    H238632   1.559   2.832   7.587
12919TIP3   OH238633   1.404   2.393   7.808
12919TIP3    H138634   1.450   2.313   7.782
12919TIP3    H238635   1.472   2.460   7.812
12920TIP3   OH238636   2.451   1.707   7.800
12920TIP3    H138637   2.457   1.795   7.839
12920TIP3    H238638   2.491   1.717   7.714
12921TIP3   OH238639   1.829   1.856   7.858
12921TIP3    H138640   1.873   1.775   7.884
12921TIP3    H238641   1.794   1.837   7.771
12922TIP3   OH238642   1.874   1.634   7.448
12922TIP3    H138643   1.938   1.617   7.517
12922TIP3    H238644   1.924   1.670   7.375
12923TIP3   OH238645   1.255   1.937   7.682
12923TIP3    H138646   1.347   1.918   7.698
12923TIP3    H238647   1.210   1.853   7.690
12924TIP3   OH238648   2.473   1.965   7.903
12924TIP3    H138649   2.381   1.978   7.924
12924TIP3    H238650   2.517   1.958   7.988
12925TIP3   OH238651   1.469   2.376   7.278
12925TIP3    H138652   1.450   2.364   7.185
12925TIP3    H238653   1.428   2.460   7.300
12926TIP3   OH238654   1.205   2.325   7.988
12926TIP3    H138655   1.158   2.406   8.005
12926TIP3    H238656   1.278   2.350   7.931
12927TIP3   OH238657   2.041   1.623   7.658
12927TIP3    H138658   2.004   1.605   7.744
12927TIP3    H238659   2.094   1.701   7.670
12928TIP3   OH238660   4.308   7.148   0.071
12928TIP3    H138661   4.309   7.243   0.079
12928TIP3    H238662   4.244   7.130   0.002
12929TIP3   OH238663   0.495   2.229   7.392
12929TIP3    H138664   0.437   2.241   7.317
12929TIP3    H238665   0.503   2.317   7.431
12930TIP3   OH238666   1.895   2.721   7.624
12930TIP3    H138667   1.803   2.719   7.650
12930TIP3    H238668   1.906   2.806   7.582
12931TIP3   OH238669   2.228   1.600   7.923
12931TIP3    H138670   2.161   1.663   7.899
12931TIP3    H238671   2.307   1.632   7.880
12932TIP3   OH238672   1.613   2.737   7.283
12932TIP3    H138673   1.668   2.660   7.273
12932TIP3    H238674   1.671   2.810   7.262
12933TIP3   OH238675   1.775   2.524   7.240
12933TIP3    H138676   1.776   2.441   7.191
12933TIP3    H238677   1.814   2.502   7.325
12934TIP3   OH238678   2.141   2.604   7.976
12934TIP3    H138679   2.136   2.537   7.908
12934TIP3    H238680   2.124   2.686   7.930
12935TIP3   OH238681   1.437   2.010   7.253
12935TIP3    H138682   1.357   2.059   7.234
12935TIP3    H238683   1.487   2.014   7.172
12936TIP3   OH238684   1.406   1.829   6.945
12936TIP3    H138685   1.468   1.881   6.996
12936TIP3    H238686   1.458   1.757   6.910
12937TIP3   OH238687   2.331   2.275   7.837
12937TIP3    H138688   2.249   2.326   7.832
12937TIP3    H238689   2.369   2.283   7.750
12938TIP3   OH238690   1.794   2.103   7.214
12938TIP3    H138691   1.740   2.130   7.288
12938TIP3    H238692   1.877   2.076   7.254
12939TIP3   OH238693   1.974   2.166   8.001
12939TIP3    H138694   1.984   2.259   8.024
12939TIP3    H238695   1.891   2.161   7.954
12940TIP3   OH238696   1.039   2.094   7.609
12940TIP3    H138697   0.993   2.041   7.544
12940TIP3    H238698   1.119   2.044   7.628
12941TIP3   OH238699   1.146   2.492   7.734
12941TIP3    H138700   1.127   2.482   7.640
12941TIP3    H238701   1.236   2.462   7.743
12942TIP3   OH238702   1.172   2.060   7.911
12942TIP3    H138703   1.205   2.031   7.826
12942TIP3    H238704   1.195   2.153   7.915
12943TIP3   OH238705   1.635   2.723   7.716
12943TIP3    H138706   1.637   2.800   7.773
12943TIP3    H238707   1.634   2.648   7.777
12944TIP3   OH238708   4.578   7.163   0.278
12944TIP3    H138709   4.505   7.220   0.305
12944TIP3    H238710   4.550   7.127   0.194
12945TIP3   OH238711   1.625   1.970   7.045
12945TIP3    H138712   1.686   2.026   7.092
12945TIP3    H238713   1.655   1.971   6.954
12946TIP3   OH238714   4.304   6.701   0.400
12946TIP3    H138715   4.339   6.733   0.317
12946TIP3    H238716   4.228   6.755   0.418
12947TIP3   OH238717   1.359   2.632   7.298
12947TIP3    H138718   1.446   2.671   7.303
12947TIP3    H238719   1.306   2.698   7.252
12948TIP3   OH238720   4.350   7.296   0.343
12948TIP3    H138721   4.324   7.354   0.272
12948TIP3    H238722   4.278   7.302   0.406
12949TIP3   OH238723   2.125   1.184   7.094
12949TIP3    H138724   2.054   1.207   7.154
12949TIP3    H238725   2.136   1.261   7.038
12950TIP3   OH238726   0.914   1.942   7.416
12950TIP3    H138727   0.830   1.978   7.385
12950TIP3    H238728   0.895   1.850   7.434
12951TIP3   OH238729   1.956   2.557   6.663
12951TIP3    H138730   1.948   2.650   6.643
12951TIP3    H238731   2.044   2.533   6.636
12952TIP3   OH238732   0.498   2.476   7.932
12952TIP3    H138733   0.575   2.427   7.904
12952TIP3    H238734   0.533   2.548   7.984
12953TIP3   OH238735   5.653   7.636  -0.004
12953TIP3    H138736   5.659   7.540   0.003
12953TIP3    H238737   5.574   7.658   0.046
12954TIP3   OH238738   4.809   7.310   0.157
12954TIP3    H138739   4.869   7.384   0.172
12954TIP3    H238740   4.722   7.347   0.172
12955TIP3   OH238741   1.256   2.847   7.132
12955TIP3    H138742   1.213   2.832   7.048
12955TIP3    H238743   1.224   2.933   7.160
12956TIP3   OH238744   0.694   2.690   7.495
12956TIP3    H138745   0.732   2.685   7.583
12956TIP3    H238746   0.637   2.613   7.489
12957TIP3   OH238747   1.458   2.782   6.758
12957TIP3    H138748   1.508   2.708   6.725
12957TIP3    H238749   1.493   2.799   6.845
12958TIP3   OH238750   1.510   2.826   7.026
12958TIP3    H138751   1.425   2.830   7.070
12958TIP3    H238752   1.570   2.792   7.093
12959TIP3   OH238753   5.561   6.747   0.168
12959TIP3    H138754   5.503   6.823   0.174
12959TIP3    H238755   5.534   6.703   0.087
12960TIP3   OH238756   4.050   7.139   0.268
12960TIP3    H138757   4.141   7.112   0.283
12960TIP3    H238758   4.009   7.135   0.354
12961TIP3   OH238759   4.941   5.972   0.333
12961TIP3    H138760   4.992   5.917   0.393
12961TIP3    H238761   4.917   6.048   0.386
12962TIP3   OH238762   5.279   6.571   0.172
12962TIP3    H138763   5.275   6.613   0.258
12962TIP3    H238764   5.268   6.642   0.109
12963TIP3   OH238765   1.699   1.929   6.781
12963TIP3    H138766   1.656   1.934   6.696
12963TIP3    H238767   1.782   1.976   6.769
12964TIP3   OH238768   1.402   1.382   7.070
12964TIP3    H138769   1.370   1.391   7.159
12964TIP3    H238770   1.404   1.288   7.053
12965TIP3   OH238771   4.530   6.343   0.082
12965TIP3    H138772   4.472   6.365   0.155
12965TIP3    H238773   4.481   6.369   0.003
12966TIP3   OH238774   1.112   1.704   7.715
12966TIP3    H138775   1.083   1.622   7.756
12966TIP3    H238776   1.094   1.692   7.622
12967TIP3   OH238777   1.560   1.807   7.387
12967TIP3    H138778   1.511   1.879   7.347
12967TIP3    H238779   1.617   1.776   7.316
12968TIP3   OH238780   5.024   6.750   0.518
12968TIP3    H138781   5.061   6.721   0.601
12968TIP3    H238782   5.094   6.800   0.476
12969TIP3   OH238783   1.732   1.816   7.601
12969TIP3    H138784   1.665   1.835   7.535
12969TIP3    H238785   1.781   1.742   7.565
12970TIP3   OH238786   1.709   2.069   7.971
12970TIP3    H138787   1.749   1.990   7.937
12970TIP3    H238788   1.739   2.074   8.062
12971TIP3   OH238789   1.438   1.549   7.705
12971TIP3    H138790   1.385   1.571   7.782
12971TIP3    H238791   1.528   1.548   7.738
12972TIP3   OH238792   1.083   1.657   7.447
12972TIP3    H138793   1.178   1.649   7.440
12972TIP3    H238794   1.051   1.651   7.357
12973TIP3   OH238795   1.917   1.600   7.901
12973TIP3    H138796   1.925   1.574   7.993
12973TIP3    H238797   1.834   1.562   7.873
12974TIP3   OH238798   0.996   1.654   7.185
12974TIP3    H138799   0.926   1.605   7.142
12974TIP3    H238800   1.052   1.683   7.114
12975TIP3   OH238801   5.380   7.954   0.130
12975TIP3    H138802   5.370   7.974   0.037
12975TIP3    H238803   5.459   8.002   0.156
12976TIP3   OH238804   4.144   7.004   0.693
12976TIP3    H138805   4.221   7.055   0.666
12976TIP3    H238806   4.180   6.928   0.738
12977TIP3   OH238807   1.511   1.885   7.766
12977TIP3    H138808   1.586   1.850   7.717
12977TIP3    H238809   1.519   1.845   7.852
12978TIP3   OH238810   4.794   6.374   0.006
12978TIP3    H138811   4.707   6.363   0.044
12978TIP3    H238812   4.853   6.333   0.070
12979TIP3   OH238813   1.211   2.154   7.181
12979TIP3    H138814   1.139   2.095   7.160
12979TIP3    H238815   1.183   2.200   7.259
12980TIP3   OH238816   2.096   2.408   7.787
12980TIP3    H138817   2.130   2.457   7.712
12980TIP3    H238818   2.015   2.369   7.755
12981TIP3   OH238819   1.659   1.479   7.097
12981TIP3    H138820   1.565   1.466   7.090
12981TIP3    H238821   1.669   1.573   7.114
12982TIP3   OH238822   4.827   7.038   0.129
12982TIP3    H138823   4.909   7.041   0.177
12982TIP3    H238824   4.789   7.125   0.141
12983TIP3   OH238825   1.726   1.738   7.170
12983TIP3    H138826   1.820   1.741   7.183
12983TIP3    H238827   1.705   1.817   7.121
12984TIP3   OH238828   0.887   2.185   7.829
12984TIP3    H138829   0.937   2.151   7.754
12984TIP3    H238830   0.930   2.147   7.906
12985TIP3   OH238831   1.365   2.312   7.016
12985TIP3    H138832   1.313   2.393   7.018
12985TIP3    H238833   1.316   2.251   7.072
12986TIP3   OH238834   4.777   6.841   0.446
12986TIP3    H138835   4.725   6.764   0.467
12986TIP3    H238836   4.867   6.817   0.468
12987TIP3   OH238837   5.089   7.363  -0.023
12987TIP3    H138838   5.020   7.299  -0.043
12987TIP3    H238839   5.077   7.384   0.069
12988TIP3   OH238840   2.131   1.819   6.988
12988TIP3    H138841   2.071   1.775   6.927
12988TIP3    H238842   2.138   1.908   6.954
12989TIP3   OH238843   5.655   7.365   0.029
12989TIP3    H138844   5.572   7.328   0.061
12989TIP3    H238845   5.674   7.317  -0.051
12990TIP3   OH238846   1.867   2.637   6.922
12990TIP3    H138847   1.853   2.567   6.986
12990TIP3    H238848   1.896   2.591   6.843
12991TIP3   OH238849   1.859   2.273   7.693
12991TIP3    H138850   1.764   2.260   7.692
12991TIP3    H238851   1.894   2.190   7.660
12992TIP3   OH238852   1.007   2.509   7.495
12992TIP3    H138853   1.008   2.589   7.443
12992TIP3    H238854   0.914   2.493   7.513
12993TIP3   OH238855   1.095   2.269   7.396
12993TIP3    H138856   1.080   2.358   7.427
12993TIP3    H238857   1.080   2.214   7.473
12994TIP3   OH238858   1.283   2.826   7.892
12994TIP3    H138859   1.333   2.902   7.861
12994TIP3    H238860   1.307   2.819   7.985
12995TIP3   OH238861   0.927   2.735   7.356
12995TIP3    H138862   0.840   2.735   7.397
12995TIP3    H238863   0.957   2.825   7.363
12996TIP3   OH238864   1.664   2.510   7.892
12996TIP3    H138865   1.621   2.475   7.970
12996TIP3    H238866   1.750   2.468   7.891
12997TIP3   OH238867   1.633   2.370   6.846
12997TIP3    H138868   1.698   2.355   6.915
12997TIP3    H238869   1.549   2.353   6.888
12998TIP3   OH238870   1.882   3.022   7.982
12998TIP3    H138871   1.832   2.942   7.967
12998TIP3    H238872   1.879   3.068   7.898
12999TIP3   OH238873   1.948   2.830   6.620
12999TIP3    H138874   1.972   2.893   6.552
12999TIP3    H238875   1.877   2.873   6.668
13000TIP3   OH238876   1.822   2.313   7.039
13000TIP3    H138877   1.808   2.240   7.098
13000TIP3    H238878   1.916   2.311   7.021
13001TIP3   OH238879   3.922   7.288   0.065
13001TIP3    H138880   3.966   7.222   0.118
13001TIP3    H238881   3.948   7.371   0.104
13002TIP3   OH238882   0.979   2.324   6.824
13002TIP3    H138883   1.004   2.233   6.805
13002TIP3    H238884   0.968   2.326   6.919
13003TIP3   OH238885   0.929   2.349   7.097
13003TIP3    H138886   0.987   2.319   7.167
13003TIP3    H238887   0.931   2.444   7.103
13004TIP3   OH238888   0.687   2.053   7.306
13004TIP3    H138889   0.622   2.101   7.357
13004TIP3    H238890   0.699   2.105   7.226
13005TIP3   OH238891   5.004   6.265   0.174
13005TIP3    H138892   5.099   6.277   0.170
13005TIP3    H238893   4.987   6.239   0.265
13006TIP3   OH238894   1.729   1.419   7.361
13006TIP3    H138895   1.704   1.438   7.271
13006TIP3    H238896   1.772   1.499   7.392
13007TIP3   OH238897   1.203   2.529   7.028
13007TIP3    H138898   1.120   2.551   7.071
13007TIP3    H238899   1.227   2.609   6.981
13008TIP3   OH238900   1.359   1.631   7.457
13008TIP3    H138901   1.425   1.695   7.432
13008TIP3    H238902   1.382   1.606   7.547
13009TIP3   OH238903   4.976   6.541   0.252
13009TIP3    H138904   5.017   6.513   0.333
13009TIP3    H238905   4.988   6.467   0.192
13010TIP3   OH238906   1.531   1.325   7.530
13010TIP3    H138907   1.511   1.392   7.596
13010TIP3    H238908   1.604   1.361   7.480
13011TIP3   OH238909   0.953   2.620   7.110
13011TIP3    H138910   0.935   2.690   7.049
13011TIP3    H238911   0.945   2.661   7.197
13012TIP3   OH238912   5.599   6.441   0.125
13012TIP3    H138913   5.549   6.492   0.188
13012TIP3    H238914   5.572   6.351   0.140
13013TIP3   OH238915   1.942   2.013   7.610
13013TIP3    H138916   1.865   1.957   7.615
13013TIP3    H238917   2.011   1.965   7.657
13014TIP3   OH238918   0.684   2.221   7.074
13014TIP3    H138919   0.755   2.284   7.086
13014TIP3    H238920   0.722   2.152   7.020
13015TIP3   OH238921   1.925   2.982   7.539
13015TIP3    H138922   1.878   3.035   7.475
13015TIP3    H238923   2.017   3.004   7.525
13016TIP3   OH238924   0.495   2.499   7.471
13016TIP3    H138925   0.448   2.540   7.543
13016TIP3    H238926   0.450   2.531   7.392
13017TIP3   OH238927   3.927   7.589   0.589
13017TIP3    H138928   4.011   7.617   0.625
13017TIP3    H238929   3.923   7.495   0.607
13018TIP3   OH238930   4.485   7.556   0.401
13018TIP3    H138931   4.533   7.589   0.476
13018TIP3    H238932   4.393   7.571   0.423
13019TIP3   OH238933   1.137   2.532   6.720
13019TIP3    H138934   1.094   2.460   6.765
13019TIP3    H238935   1.214   2.492   6.679
13020TIP3   OH238936   5.042   7.449   0.231
13020TIP3    H138937   5.036   7.413   0.319
13020TIP3    H238938   5.074   7.538   0.243
13021TIP3   OH238939   1.584   2.564   6.649
13021TIP3    H138940   1.620   2.504   6.714
13021TIP3    H238941   1.645   2.559   6.575
13022TIP3   OH238942   0.820   2.018   6.954
13022TIP3    H138943   0.878   2.001   7.028
13022TIP3    H238944   0.878   2.025   6.879
13023TIP3   OH238945   4.797   7.117   0.428
13023TIP3    H138946   4.723   7.130   0.369
13023TIP3    H238947   4.811   7.023   0.428
13024TIP3   OH238948   1.324   2.242   6.751
13024TIP3    H138949   1.335   2.257   6.845
13024TIP3    H238950   1.333   2.148   6.740
13025TIP3   OH238951   5.178   7.067   0.031
13025TIP3    H138952   5.227   7.145   0.005
13025TIP3    H238953   5.127   7.095   0.107
13026TIP3   OH238954   1.007   1.970   7.152
13026TIP3    H138955   0.986   1.954   7.244
13026TIP3    H238956   1.048   1.889   7.122
13027TIP3   OH238957   4.563   6.648   0.478
13027TIP3    H138958   4.480   6.679   0.441
13027TIP3    H238959   4.607   6.605   0.405
13028TIP3   OH238960   1.133   1.773   6.980
13028TIP3    H138961   1.106   1.782   6.888
13028TIP3    H238962   1.227   1.791   6.979
13029TIP3   OH238963   5.107   7.102   0.547
13029TIP3    H138964   5.123   7.058   0.464
13029TIP3    H238965   5.130   7.037   0.614
13030TIP3   OH238966   1.914   2.073   6.684
13030TIP3    H138967   1.905   2.035   6.597
13030TIP3    H238968   1.887   2.164   6.673
13031TIP3   OH238969   4.582   6.403   0.625
13031TIP3    H138970   4.563   6.350   0.548
13031TIP3    H238971   4.645   6.468   0.595
13032TIP3   OH238972   4.733   6.784   0.097
13032TIP3    H138973   4.788   6.742   0.031
13032TIP3    H238974   4.753   6.877   0.088
13033TIP3   OH238975   5.282   6.650   0.437
13033TIP3    H138976   5.205   6.600   0.465
13033TIP3    H238977   5.316   6.688   0.518
13034TIP3   OH238978   5.406   6.975   0.166
13034TIP3    H138979   5.343   7.027   0.116
13034TIP3    H238980   5.487   7.024   0.161
13035TIP3   OH238981   4.882   6.353   0.752
13035TIP3    H138982   4.884   6.390   0.840
13035TIP3    H238983   4.858   6.427   0.696
13036TIP3   OH238984   5.107   6.437   0.469
13036TIP3    H138985   5.090   6.415   0.560
13036TIP3    H238986   5.193   6.399   0.450
13037TIP3   OH238987   5.447   6.391   0.742
13037TIP3    H138988   5.474   6.302   0.763
13037TIP3    H238989   5.457   6.440   0.823
13038TIP3   OH238990   0.947   2.829   6.929
13038TIP3    H138991   1.037   2.811   6.903
13038TIP3    H238992   0.909   2.878   6.856
13039TIP3   OH238993   0.410   2.217   7.106
13039TIP3    H138994   0.503   2.239   7.110
13039TIP3    H238995   0.409   2.125   7.080
13040TIP3   OH238996   0.285   2.800   7.516
13040TIP3    H138997   0.192   2.778   7.515
13040TIP3    H238998   0.323   2.744   7.584
13041TIP3   OH238999   0.415   2.638   7.705
13041TIP3    H139000   0.414   2.572   7.774
13041TIP3    H239001   0.472   2.707   7.740
13042TIP3   OH239002   2.180   3.070   7.518
13042TIP3    H139003   2.205   3.078   7.610
13042TIP3    H239004   2.262   3.083   7.470
13043TIP3   OH239005   2.199   3.065   7.795
13043TIP3    H139006   2.151   2.983   7.805
13043TIP3    H239007   2.277   3.053   7.848
13044TIP3   OH239008   5.524   7.392   0.317
13044TIP3    H139009   5.536   7.395   0.412
13044TIP3    H239010   5.567   7.472   0.286
13045TIP3   OH239011   2.095   2.286   7.007
13045TIP3    H139012   2.153   2.356   6.975
13045TIP3    H239013   2.143   2.246   7.079
13046TIP3   OH239014   2.222   2.135   7.201
13046TIP3    H139015   2.156   2.100   7.260
13046TIP3    H239016   2.290   2.170   7.259
13047TIP3   OH239017   2.270   2.547   7.624
13047TIP3    H139018   2.325   2.476   7.590
13047TIP3    H239019   2.287   2.621   7.566
13048TIP3   OH239020   2.056   2.823   7.830
13048TIP3    H139021   1.981   2.823   7.890
13048TIP3    H239022   2.022   2.786   7.749
13049TIP3   OH239023   2.128   2.059   6.855
13049TIP3    H139024   2.055   2.059   6.794
13049TIP3    H239025   2.116   2.138   6.908
13050TIP3   OH239026   1.968   1.709   6.797
13050TIP3    H139027   1.927   1.744   6.719
13050TIP3    H239028   1.966   1.614   6.784
13051TIP3   OH239029   2.019   2.004   7.343
13051TIP3    H139030   2.030   1.909   7.333
13051TIP3    H239031   2.001   2.015   7.436
13052TIP3   OH239032   5.654   7.092   0.147
13052TIP3    H139033   5.710   7.018   0.168
13052TIP3    H239034   5.675   7.114   0.057
13053TIP3   OH239035   5.801   6.880   0.221
13053TIP3    H139036   5.731   6.820   0.248
13053TIP3    H239037   5.876   6.824   0.201
13054TIP3   OH239038   1.943   1.438   6.755
13054TIP3    H139039   2.010   1.410   6.817
13054TIP3    H239040   1.862   1.397   6.788
13055TIP3   OH239041   2.015   1.726   7.226
13055TIP3    H139042   2.061   1.643   7.238
13055TIP3    H239043   2.056   1.766   7.150
13056TIP3   OH239044   2.155   1.864   7.722
13056TIP3    H139045   2.234   1.885   7.672
13056TIP3    H239046   2.164   1.915   7.803
13057TIP3   OH239047   2.206   2.049   7.919
13057TIP3    H139048   2.119   2.083   7.941
13057TIP3    H239049   2.252   2.124   7.881
13058TIP3   OH239050   6.051   6.266   0.539
13058TIP3    H139051   6.135   6.220   0.528
13058TIP3    H239052   6.019   6.279   0.450
13059TIP3   OH239053   2.129   1.476   7.279
13059TIP3    H139054   2.176   1.463   7.361
13059TIP3    H239055   2.068   1.403   7.274
13060TIP3   OH239056   5.861   6.502   0.143
13060TIP3    H139057   5.769   6.475   0.144
13060TIP3    H239058   5.902   6.451   0.213
13061TIP3   OH239059   2.165   1.388   6.914
13061TIP3    H139060   2.214   1.329   6.856
13061TIP3    H239061   2.220   1.465   6.921
13062TIP3   OH239062   1.745   2.953   7.191
13062TIP3    H139063   1.804   2.944   7.117
13062TIP3    H239064   1.787   3.020   7.246
13063TIP3   OH239065   4.156   7.279   0.526
13063TIP3    H139066   4.069   7.298   0.562
13063TIP3    H239067   4.214   7.279   0.603
13064TIP3   OH239068   4.304   7.419   0.100
13064TIP3    H139069   4.267   7.492   0.051
13064TIP3    H239070   4.398   7.437   0.102
13065TIP3   OH239071   4.747   7.647   0.170
13065TIP3    H139072   4.779   7.624   0.257
13065TIP3    H239073   4.820   7.695   0.130
13066TIP3   OH239074   4.953   7.803   0.092
13066TIP3    H139075   5.017   7.747   0.047
13066TIP3    H239076   5.007   7.861   0.146
13067TIP3   OH239077   5.784   6.138   0.116
13067TIP3    H139078   5.694   6.159   0.140
13067TIP3    H239079   5.788   6.042   0.121
13068TIP3   OH239080   3.958   7.643   0.056
13068TIP3    H139081   3.872   7.665   0.020
13068TIP3    H239082   3.953   7.669   0.148
13069TIP3   OH239083   0.950   3.021   7.969
13069TIP3    H139084   0.862   3.024   8.004
13069TIP3    H239085   0.941   3.048   7.878
13070TIP3   OH239086   1.384   3.058   7.782
13070TIP3    H139087   1.307   3.070   7.725
13070TIP3    H239088   1.392   3.142   7.828
13071TIP3   OH239089   1.639   2.972   7.828
13071TIP3    H139090   1.549   3.000   7.808
13071TIP3    H239091   1.694   3.041   7.791
13072TIP3   OH239092   1.845   3.150   7.742
13072TIP3    H139093   1.844   3.237   7.702
13072TIP3    H239094   1.874   3.092   7.672
13073TIP3   OH239095   0.597   2.805   7.830
13073TIP3    H139096   0.600   2.775   7.921
13073TIP3    H239097   0.680   2.775   7.793
13074TIP3   OH239098   0.825   2.693   7.735
13074TIP3    H139099   0.843   2.613   7.784
13074TIP3    H239100   0.910   2.737   7.729
13075TIP3   OH239101   1.088   2.776   7.716
13075TIP3    H139102   1.111   2.685   7.693
13075TIP3    H239103   1.150   2.799   7.785
13076TIP3   OH239104   1.690   1.488   7.787
13076TIP3    H139105   1.661   1.450   7.870
13076TIP3    H239106   1.744   1.420   7.747
13077TIP3   OH239107   2.142   1.334   7.718
13077TIP3    H139108   2.187   1.394   7.658
13077TIP3    H239109   2.051   1.362   7.715
13078TIP3   OH239110   2.286   1.420   7.499
13078TIP3    H139111   2.355   1.358   7.474
13078TIP3    H239112   2.327   1.506   7.489
13079TIP3   OH239113   1.858   1.298   7.687
13079TIP3    H139114   1.858   1.278   7.593
13079TIP3    H239115   1.842   1.214   7.730
13080TIP3   OH239116   1.947   1.262   7.290
13080TIP3    H139117   1.867   1.310   7.311
13080TIP3    H239118   1.933   1.175   7.327
13081TIP3   OH239119   0.371   2.586   7.234
13081TIP3    H139120   0.288   2.555   7.198
13081TIP3    H239121   0.375   2.678   7.209
13082TIP3   OH239122   1.343   1.385   7.334
13082TIP3    H139123   1.395   1.338   7.399
13082TIP3    H239124   1.334   1.473   7.370
13083TIP3   OH239125   1.203   2.758   6.861
13083TIP3    H139126   1.287   2.784   6.823
13083TIP3    H239127   1.173   2.686   6.806
13084TIP3   OH239128   1.901   2.904   6.965
13084TIP3    H139129   1.894   2.809   6.956
13084TIP3    H239130   1.861   2.939   6.885
13085TIP3   OH239131   0.491   2.587   6.919
13085TIP3    H139132   0.484   2.588   7.014
13085TIP3    H239133   0.578   2.549   6.902
13086TIP3   OH239134   5.504   6.125   0.774
13086TIP3    H139135   5.577   6.104   0.832
13086TIP3    H239136   5.539   6.109   0.686
13087TIP3   OH239137   5.399   7.683   0.091
13087TIP3    H139138   5.317   7.654   0.052
13087TIP3    H239139   5.387   7.777   0.105
13088TIP3   OH239140   3.407   2.426   6.878
13088TIP3    H139141   3.375   2.513   6.854
13088TIP3    H239142   3.333   2.368   6.862
13089TIP3   OH239143   3.440   2.404   7.292
13089TIP3    H139144   3.476   2.391   7.379
13089TIP3    H239145   3.376   2.333   7.281
13090TIP3   OH239146   2.696   2.277   7.660
13090TIP3    H139147   2.736   2.220   7.725
13090TIP3    H239148   2.768   2.300   7.600
13091TIP3   OH239149   3.672   2.730   6.983
13091TIP3    H139150   3.663   2.662   7.050
13091TIP3    H239151   3.691   2.809   7.032
13092TIP3   OH239152   2.371   1.905   7.126
13092TIP3    H139153   2.338   1.991   7.151
13092TIP3    H239154   2.297   1.862   7.084
13093TIP3   OH239155   2.442   2.206   7.349
13093TIP3    H139156   2.488   2.129   7.382
13093TIP3    H239157   2.511   2.267   7.324
13094TIP3   OH239158   3.325   3.157   7.000
13094TIP3    H139159   3.354   3.092   6.936
13094TIP3    H239160   3.316   3.107   7.082
13095TIP3   OH239161   3.235   2.622   7.355
13095TIP3    H139162   3.260   2.572   7.277
13095TIP3    H239163   3.313   2.673   7.377
13096TIP3   OH239164   4.247   1.962   7.334
13096TIP3    H139165   4.262   2.046   7.378
13096TIP3    H239166   4.268   1.979   7.242
13097TIP3   OH239167   3.619   2.127   7.352
13097TIP3    H139168   3.647   2.040   7.379
13097TIP3    H239169   3.576   2.114   7.268
13098TIP3   OH239170   2.969   1.782   7.307
13098TIP3    H139171   2.948   1.856   7.250
13098TIP3    H239172   2.912   1.711   7.278
13099TIP3   OH239173   3.666   1.890   6.951
13099TIP3    H139174   3.729   1.882   7.022
13099TIP3    H239175   3.716   1.926   6.878
13100TIP3   OH239176   2.590   1.995   7.442
13100TIP3    H139177   2.677   1.990   7.480
13100TIP3    H239178   2.597   1.947   7.359
13101TIP3   OH239179   3.007   2.201   7.259
13101TIP3    H139180   3.102   2.188   7.263
13101TIP3    H239181   2.973   2.119   7.223
13102TIP3   OH239182   4.297   2.185   7.496
13102TIP3    H139183   4.207   2.217   7.493
13102TIP3    H239184   4.332   2.222   7.577
13103TIP3   OH239185   2.954   1.787   7.739
13103TIP3    H139186   2.904   1.829   7.669
13103TIP3    H239187   2.899   1.797   7.817
13104TIP3   OH239188   3.303   2.645   6.744
13104TIP3    H139189   3.260   2.613   6.664
13104TIP3    H239190   3.250   2.720   6.771
13105TIP3   OH239191   3.046   2.554   7.538
13105TIP3    H139192   2.989   2.629   7.560
13105TIP3    H239193   3.102   2.587   7.468
13106TIP3   OH239194   3.826   1.905   7.172
13106TIP3    H139195   3.778   1.885   7.253
13106TIP3    H239196   3.879   1.981   7.194
13107TIP3   OH239197   2.843   1.909   7.522
13107TIP3    H139198   2.898   1.983   7.546
13107TIP3    H239199   2.891   1.865   7.451
13108TIP3   OH239200   2.880   2.766   7.603
13108TIP3    H139201   2.847   2.767   7.513
13108TIP3    H239202   2.801   2.771   7.657
13109TIP3   OH239203   2.261   2.475   6.887
13109TIP3    H139204   2.232   2.499   6.799
13109TIP3    H239205   2.284   2.558   6.929
13110TIP3   OH239206   3.706   2.977   7.123
13110TIP3    H139207   3.621   2.968   7.166
13110TIP3    H239208   3.702   3.062   7.079
13111TIP3   OH239209   4.047   1.853   7.499
13111TIP3    H139210   3.962   1.878   7.462
13111TIP3    H239211   4.111   1.880   7.434
13112TIP3   OH239212   3.296   1.486   7.487
13112TIP3    H139213   3.288   1.393   7.509
13112TIP3    H239214   3.218   1.527   7.524
13113TIP3   OH239215   3.415   3.010   6.780
13113TIP3    H139216   3.467   2.931   6.770
13113TIP3    H239217   3.473   3.081   6.752
13114TIP3   OH239218   3.550   2.777   6.739
13114TIP3    H139219   3.476   2.717   6.739
13114TIP3    H239220   3.600   2.753   6.817
13115TIP3   OH239221   3.943   2.863   7.471
13115TIP3    H139222   3.921   2.789   7.415
13115TIP3    H239223   3.928   2.940   7.416
13116TIP3   OH239224   3.229   2.258   6.741
13116TIP3    H139225   3.145   2.299   6.723
13116TIP3    H239226   3.276   2.263   6.658
13117TIP3   OH239227   3.190   2.080   6.427
13117TIP3    H139228   3.255   2.127   6.480
13117TIP3    H239229   3.240   2.010   6.385
13118TIP3   OH239230   4.116   2.523   7.339
13118TIP3    H139231   4.032   2.568   7.338
13118TIP3    H239232   4.151   2.536   7.250
13119TIP3   OH239233   3.592   2.351   6.694
13119TIP3    H139234   3.537   2.381   6.766
13119TIP3    H239235   3.675   2.329   6.737
13120TIP3   OH239236   3.821   2.386   7.644
13120TIP3    H139237   3.816   2.469   7.692
13120TIP3    H239238   3.737   2.380   7.597
13121TIP3   OH239239   2.834   2.338   7.078
13121TIP3    H139240   2.793   2.268   7.028
13121TIP3    H239241   2.894   2.294   7.137
13122TIP3   OH239242   2.905   2.327   7.484
13122TIP3    H139243   2.939   2.294   7.400
13122TIP3    H239244   2.950   2.410   7.498
13123TIP3   OH239245   3.477   2.969   7.265
13123TIP3    H139246   3.457   3.046   7.318
13123TIP3    H239247   3.463   2.895   7.325
13124TIP3   OH239248   3.074   2.857   7.785
13124TIP3    H139249   3.014   2.913   7.835
13124TIP3    H239250   3.018   2.815   7.719
13125TIP3   OH239251   3.419   2.213   6.530
13125TIP3    H139252   3.479   2.271   6.577
13125TIP3    H239253   3.449   2.215   6.439
13126TIP3   OH239254   2.856   2.429   7.915
13126TIP3    H139255   2.859   2.525   7.918
13126TIP3    H239256   2.767   2.409   7.888
13127TIP3   OH239257   3.170   2.884   6.779
13127TIP3    H139258   3.249   2.938   6.789
13127TIP3    H239259   3.105   2.943   6.743
13128TIP3   OH239260   2.887   3.027   7.894
13128TIP3    H139261   2.859   3.046   7.804
13128TIP3    H239262   2.806   3.013   7.942
13129TIP3   OH239263   3.924   1.443   6.594
13129TIP3    H139264   3.849   1.464   6.649
13129TIP3    H239265   3.934   1.519   6.536
13130TIP3   OH239266   2.687   2.168   6.899
13130TIP3    H139267   2.611   2.221   6.877
13130TIP3    H239268   2.651   2.085   6.930
13131TIP3   OH239269   3.757   2.817   6.148
13131TIP3    H139270   3.746   2.910   6.128
13131TIP3    H239271   3.845   2.795   6.118
13132TIP3   OH239272   2.465   2.581   7.828
13132TIP3    H139273   2.402   2.565   7.758
13132TIP3    H239274   2.508   2.497   7.841
13133TIP3   OH239275   2.376   2.760   7.476
13133TIP3    H139276   2.461   2.741   7.434
13133TIP3    H239277   2.395   2.834   7.534
13134TIP3   OH239278   4.171   3.230   7.542
13134TIP3    H139279   4.177   3.135   7.554
13134TIP3    H239280   4.092   3.255   7.589
13135TIP3   OH239281   3.268   3.009   7.664
13135TIP3    H139282   3.255   3.100   7.693
13135TIP3    H239283   3.196   2.961   7.705
13136TIP3   OH239284   3.055   3.112   6.617
13136TIP3    H139285   3.005   3.089   6.538
13136TIP3    H239286   3.014   3.193   6.648
13137TIP3   OH239287   2.475   2.966   6.976
13137TIP3    H139288   2.521   2.974   7.059
13137TIP3    H239289   2.443   2.876   6.974
13138TIP3   OH239290   3.255   3.044   6.246
13138TIP3    H139291   3.305   2.969   6.213
13138TIP3    H239292   3.289   3.057   6.335
13139TIP3   OH239293   3.309   3.084   6.516
13139TIP3    H139294   3.221   3.089   6.555
13139TIP3    H239295   3.363   3.045   6.585
13140TIP3   OH239296   4.059   2.339   7.806
13140TIP3    H139297   3.977   2.346   7.757
13140TIP3    H239298   4.078   2.246   7.807
13141TIP3   OH239299   2.663   2.776   7.780
13141TIP3    H139300   2.722   2.768   7.855
13141TIP3    H239301   2.596   2.710   7.796
13142TIP3   OH239302   3.055   1.576   7.596
13142TIP3    H139303   2.971   1.547   7.560
13142TIP3    H239304   3.034   1.657   7.643
13143TIP3   OH239305   3.603   1.704   7.804
13143TIP3    H139306   3.672   1.680   7.866
13143TIP3    H239307   3.522   1.689   7.851
13144TIP3   OH239308   3.820   2.120   7.722
13144TIP3    H139309   3.778   2.114   7.808
13144TIP3    H239310   3.805   2.211   7.694
13145TIP3   OH239311   3.497   2.175   6.266
13145TIP3    H139312   3.449   2.186   6.183
13145TIP3    H239313   3.578   2.225   6.253
13146TIP3   OH239314   3.204   1.615   6.590
13146TIP3    H139315   3.167   1.623   6.678
13146TIP3    H239316   3.168   1.533   6.556
13147TIP3   OH239317   2.995   2.113   7.632
13147TIP3    H139318   2.948   2.118   7.715
13147TIP3    H239319   2.971   2.193   7.586
13148TIP3   OH239320   2.873   1.983   7.150
13148TIP3    H139321   2.783   1.963   7.176
13148TIP3    H239322   2.879   1.951   7.060
13149TIP3   OH239323   3.350   2.056   6.881
13149TIP3    H139324   3.303   2.129   6.841
13149TIP3    H239325   3.409   2.025   6.812
13150TIP3   OH239326   3.552   2.351   7.934
13150TIP3    H139327   3.518   2.281   7.990
13150TIP3    H239328   3.645   2.355   7.957
13151TIP3   OH239329   3.515   2.071   7.106
13151TIP3    H139330   3.446   2.092   7.042
13151TIP3    H239331   3.564   2.000   7.065
13152TIP3   OH239332   2.825   2.111   7.849
13152TIP3    H139333   2.809   2.160   7.929
13152TIP3    H239334   2.811   2.019   7.874
13153TIP3   OH239335   2.869   1.593   6.569
13153TIP3    H139336   2.862   1.599   6.664
13153TIP3    H239337   2.791   1.637   6.535
13154TIP3   OH239338   2.422   1.642   7.430
13154TIP3    H139339   2.490   1.684   7.482
13154TIP3    H239340   2.456   1.641   7.341
13155TIP3   OH239341   2.316   1.620   6.929
13155TIP3    H139342   2.362   1.656   6.853
13155TIP3    H239343   2.254   1.689   6.954
13156TIP3   OH239344   3.573   2.326   7.530
13156TIP3    H139345   3.596   2.259   7.466
13156TIP3    H239346   3.525   2.279   7.598
13157TIP3   OH239347   3.236   1.769   7.200
13157TIP3    H139348   3.157   1.771   7.255
13157TIP3    H239349   3.309   1.763   7.261
13158TIP3   OH239350   2.632   1.860   7.207
13158TIP3    H139351   2.544   1.863   7.169
13158TIP3    H239352   2.662   1.771   7.189
13159TIP3   OH239353   2.882   1.860   6.904
13159TIP3    H139354   2.976   1.873   6.895
13159TIP3    H239355   2.847   1.879   6.817
13160TIP3   OH239356   3.675   1.861   7.403
13160TIP3    H139357   3.658   1.881   7.495
13160TIP3    H239358   3.606   1.800   7.378
13161TIP3   OH239359   2.773   1.879   6.653
13161TIP3    H139360   2.710   1.832   6.599
13161TIP3    H239361   2.826   1.928   6.590
13162TIP3   OH239362   3.882   3.569   7.630
13162TIP3    H139363   3.881   3.582   7.536
13162TIP3    H239364   3.961   3.615   7.660
13163TIP3   OH239365   6.109   7.316  -0.002
13163TIP3    H139366   6.187   7.332   0.050
13163TIP3    H239367   6.036   7.327   0.059
13164TIP3   OH239368   3.284   2.149   7.300
13164TIP3    H139369   3.352   2.099   7.255
13164TIP3    H239370   3.281   2.111   7.388
13165TIP3   OH239371   2.771   1.613   7.188
13165TIP3    H139372   2.743   1.535   7.236
13165TIP3    H239373   2.794   1.579   7.101
13166TIP3   OH239374   3.257   2.057   7.564
13166TIP3    H139375   3.171   2.090   7.589
13166TIP3    H239376   3.319   2.106   7.618
13167TIP3   OH239377   2.992   2.385   6.678
13167TIP3    H139378   2.914   2.336   6.651
13167TIP3    H239379   2.961   2.438   6.752
13168TIP3   OH239380   3.883   2.663   7.293
13168TIP3    H139381   3.921   2.712   7.220
13168TIP3    H239382   3.807   2.619   7.255
13169TIP3   OH239383   3.456   1.721   6.593
13169TIP3    H139384   3.363   1.699   6.591
13169TIP3    H239385   3.458   1.815   6.608
13170TIP3   OH239386   3.406   2.755   7.702
13170TIP3    H139387   3.441   2.748   7.791
13170TIP3    H239388   3.353   2.834   7.703
13171TIP3   OH239389   3.514   1.984   6.664
13171TIP3    H139390   3.609   1.990   6.676
13171TIP3    H239391   3.491   2.063   6.614
13172TIP3   OH239392   2.664   2.358   7.315
13172TIP3    H139393   2.701   2.397   7.236
13172TIP3    H239394   2.729   2.376   7.383
13173TIP3   OH239395   3.141   2.559   6.529
13173TIP3    H139396   3.092   2.641   6.527
13173TIP3    H239397   3.086   2.499   6.581
13174TIP3   OH239398   2.580   2.355   7.945
13174TIP3    H139399   2.601   2.326   8.034
13174TIP3    H239400   2.509   2.296   7.917
13175TIP3   OH239401   3.312   2.491   7.972
13175TIP3    H139402   3.244   2.429   7.945
13175TIP3    H239403   3.393   2.453   7.939
13176TIP3   OH239404   3.542   3.038   7.594
13176TIP3    H139405   3.448   3.021   7.596
13176TIP3    H239406   3.562   3.072   7.681
13177TIP3   OH239407   3.925   2.068   6.475
13177TIP3    H139408   3.871   2.022   6.411
13177TIP3    H239409   3.930   2.158   6.442
13178TIP3   OH239410   4.187   2.954   7.560
13178TIP3    H139411   4.094   2.934   7.558
13178TIP3    H239412   4.221   2.921   7.476
13179TIP3   OH239413   3.674   2.889   6.418
13179TIP3    H139414   3.643   2.824   6.481
13179TIP3    H239415   3.691   2.839   6.338
13180TIP3   OH239416   3.670   2.522   7.178
13180TIP3    H139417   3.583   2.498   7.211
13180TIP3    H239418   3.704   2.442   7.139
13181TIP3   OH239419   2.785   2.754   6.988
13181TIP3    H139420   2.773   2.843   6.956
13181TIP3    H239421   2.779   2.761   7.083
13182TIP3   OH239422   2.366   2.046   6.716
13182TIP3    H139423   2.411   2.127   6.739
13182TIP3    H239424   2.286   2.047   6.768
13183TIP3   OH239425   2.870   2.524   6.875
13183TIP3    H139426   2.850   2.610   6.911
13183TIP3    H239427   2.862   2.464   6.949
13184TIP3   OH239428   3.086   3.087   7.449
13184TIP3    H139429   3.130   3.161   7.407
13184TIP3    H239430   3.152   3.049   7.507
13185TIP3   OH239431   2.714   2.996   6.843
13185TIP3    H139432   2.626   2.996   6.880
13185TIP3    H239433   2.746   3.085   6.857
13186TIP3   OH239434   3.472   2.743   7.436
13186TIP3    H139435   3.450   2.744   7.529
13186TIP3    H239436   3.554   2.696   7.431
13187TIP3   OH239437   3.440   2.621   6.294
13187TIP3    H139438   3.491   2.592   6.369
13187TIP3    H239439   3.355   2.577   6.303
13188TIP3   OH239440   3.702   3.235   7.473
13188TIP3    H139441   3.634   3.173   7.498
13188TIP3    H239442   3.661   3.289   7.404
13189TIP3   OH239443   3.743   3.090   6.101
13189TIP3    H139444   3.755   3.149   6.027
13189TIP3    H239445   3.674   3.131   6.153
13190TIP3   OH239446   2.790   1.845   7.949
13190TIP3    H139447   2.706   1.853   7.993
13190TIP3    H239448   2.843   1.790   8.007
13191TIP3   OH239449   3.618   2.528   6.480
13191TIP3    H139450   3.601   2.478   6.560
13191TIP3    H239451   3.713   2.539   6.479
13192TIP3   OH239452   2.515   2.973   7.625
13192TIP3    H139453   2.571   2.909   7.668
13192TIP3    H239454   2.551   3.058   7.651
13193TIP3   OH239455   2.785   2.589   6.331
13193TIP3    H139456   2.798   2.498   6.306
13193TIP3    H239457   2.777   2.587   6.427
13194TIP3   OH239458   2.728   2.606   6.609
13194TIP3    H139459   2.772   2.582   6.691
13194TIP3    H239460   2.728   2.701   6.608
13195TIP3   OH239461   2.459   2.295   6.800
13195TIP3    H139462   2.397   2.345   6.853
13195TIP3    H239463   2.481   2.354   6.727
13196TIP3   OH239464   3.624   1.934   7.660
13196TIP3    H139465   3.702   1.980   7.691
13196TIP3    H239466   3.618   1.857   7.716
13197TIP3   OH239467   3.518   1.671   6.862
13197TIP3    H139468   3.497   1.691   6.770
13197TIP3    H239469   3.561   1.750   6.894
13198TIP3   OH239470   2.996   2.787   6.517
13198TIP3    H139471   2.912   2.808   6.559
13198TIP3    H239472   3.019   2.865   6.468
13199TIP3   OH239473   3.161   1.868   6.951
13199TIP3    H139474   3.223   1.936   6.925
13199TIP3    H239475   3.184   1.846   7.041
13200TIP3   OH239476   3.463   2.161   7.719
13200TIP3    H139477   3.487   2.198   7.804
13200TIP3    H239478   3.512   2.078   7.715
13201TIP3   OH239479   3.330   1.564   7.034
13201TIP3    H139480   3.306   1.640   7.086
13201TIP3    H239481   3.400   1.595   6.977
13202TIP3   OH239482   2.748   2.881   6.598
13202TIP3    H139483   2.729   2.953   6.539
13202TIP3    H239484   2.738   2.917   6.686
13203TIP3   OH239485   2.840   1.587   6.849
13203TIP3    H139486   2.829   1.679   6.875
13203TIP3    H239487   2.935   1.572   6.855
13204TIP3   OH239488   4.081   2.058   7.708
13204TIP3    H139489   3.987   2.073   7.719
13204TIP3    H239490   4.087   1.996   7.635
13205TIP3   OH239491   3.751   2.259   7.096
13205TIP3    H139492   3.669   2.214   7.115
13205TIP3    H239493   3.815   2.220   7.155
13206TIP3   OH239494   2.485   2.472   6.582
13206TIP3    H139495   2.557   2.533   6.598
13206TIP3    H239496   2.518   2.411   6.516
13207TIP3   OH239497   2.389   1.767   6.710
13207TIP3    H139498   2.403   1.861   6.722
13207TIP3    H239499   2.339   1.760   6.628
13208TIP3   OH239500   3.725   3.246   7.044
13208TIP3    H139501   3.683   3.299   6.976
13208TIP3    H239502   3.819   3.257   7.029
13209TIP3   OH239503   2.793   1.501   7.553
13209TIP3    H139504   2.761   1.465   7.470
13209TIP3    H239505   2.784   1.428   7.615
13210TIP3   OH239506   2.298   2.737   6.976
13210TIP3    H139507   2.270   2.784   7.055
13210TIP3    H239508   2.259   2.787   6.904
13211TIP3   OH239509   5.780   7.899   0.017
13211TIP3    H139510   5.861   7.886   0.067
13211TIP3    H239511   5.746   7.810   0.005
13212TIP3   OH239512   6.263   7.809   0.083
13212TIP3    H139513   6.355   7.784   0.088
13212TIP3    H239514   6.228   7.755   0.012
13213TIP3   OH239515   2.932   2.789   6.204
13213TIP3    H139516   2.888   2.723   6.256
13213TIP3    H239517   3.008   2.745   6.166
13214TIP3   OH239518   3.602   3.133   7.844
13214TIP3    H139519   3.619   3.059   7.903
13214TIP3    H239520   3.677   3.191   7.856
13215TIP3   OH239521   3.381   2.832   6.129
13215TIP3    H139522   3.416   2.766   6.189
13215TIP3    H239523   3.438   2.828   6.052
13216TIP3   OH239524   5.892   7.314   0.169
13216TIP3    H139525   5.915   7.221   0.173
13216TIP3    H239526   5.805   7.316   0.130
13217TIP3   OH239527   2.604   2.283   6.423
13217TIP3    H139528   2.652   2.257   6.501
13217TIP3    H239529   2.672   2.298   6.357
13218TIP3   OH239530   3.239   2.763   7.986
13218TIP3    H139531   3.188   2.780   7.907
13218TIP3    H239532   3.272   2.674   7.974
13219TIP3   OH239533   3.188   2.500   6.267
13219TIP3    H139534   3.163   2.513   6.358
13219TIP3    H239535   3.162   2.410   6.247
13220TIP3   OH239536   3.717   2.815   7.626
13220TIP3    H139537   3.793   2.845   7.577
13220TIP3    H239538   3.650   2.881   7.610
13221TIP3   OH239539   6.017   7.072   0.171
13221TIP3    H139540   6.068   7.065   0.090
13221TIP3    H239541   6.055   7.005   0.229
13222TIP3   OH239542   2.771   2.219   6.634
13222TIP3    H139543   2.753   2.194   6.725
13222TIP3    H239544   2.822   2.146   6.599
13223TIP3   OH239545   3.102   2.304   7.900
13223TIP3    H139546   3.015   2.343   7.900
13223TIP3    H239547   3.139   2.326   7.815
13224TIP3   OH239548   2.921   2.038   6.484
13224TIP3    H139549   2.891   2.045   6.393
13224TIP3    H239550   3.015   2.051   6.480
13225TIP3   OH239551   3.600   2.677   7.975
13225TIP3    H139552   3.655   2.634   7.910
13225TIP3    H239553   3.594   2.614   8.047
13226TIP3   OH239554   3.709   2.325   6.165
13226TIP3    H139555   3.696   2.286   6.078
13226TIP3    H239556   3.688   2.417   6.154
13227TIP3   OH239557   3.222   2.053   7.959
13227TIP3    H139558   3.219   1.985   7.892
13227TIP3    H239559   3.172   2.126   7.922
13228TIP3   OH239560   3.217   1.858   7.760
13228TIP3    H139561   3.238   1.908   7.681
13228TIP3    H239562   3.123   1.839   7.751
13229TIP3   OH239563   3.222   2.397   7.675
13229TIP3    H139564   3.307   2.432   7.651
13229TIP3    H239565   3.159   2.452   7.627
13230TIP3   OH239566   7.084   6.982   0.038
13230TIP3    H139567   7.129   6.898   0.044
13230TIP3    H239568   7.153   7.047   0.027
13231TIP3   OH239569   3.835   2.628   7.783
13231TIP3    H139570   3.782   2.693   7.736
13231TIP3    H239571   3.924   2.642   7.750
13232TIP3   OH239572   6.392   6.866   0.176
13232TIP3    H139573   6.304   6.874   0.213
13232TIP3    H239574   6.381   6.884   0.083
13233TIP3   OH239575   3.333   1.626   7.851
13233TIP3    H139576   3.295   1.707   7.819
13233TIP3    H239577   3.262   1.562   7.845
13234TIP3   OH239578   6.723   6.759   0.068
13234TIP3    H139579   6.729   6.743   0.162
13234TIP3    H239580   6.638   6.721   0.043
13235TIP3   OH239581   3.698   2.073   7.954
13235TIP3    H139582   3.621   2.082   8.009
13235TIP3    H239583   3.768   2.046   8.014
13236TIP3   OH239584   7.213   6.652   0.081
13236TIP3    H139585   7.224   6.557   0.093
13236TIP3    H239586   7.200   6.685   0.170
13237TIP3   OH239587   6.238   6.590   0.178
13237TIP3    H139588   6.235   6.500   0.146
13237TIP3    H239589   6.331   6.609   0.189
13238TIP3   OH239590   6.710   6.273   0.092
13238TIP3    H139591   6.743   6.189   0.123
13238TIP3    H239592   6.673   6.254   0.005
13239TIP3   OH239593   6.731   6.479   0.263
13239TIP3    H139594   6.735   6.409   0.198
13239TIP3    H239595   6.647   6.522   0.248
13240TIP3   OH239596   2.748   3.096   6.419
13240TIP3    H139597   2.837   3.070   6.391
13240TIP3    H239598   2.711   3.139   6.342
13241TIP3   OH239599   2.210   2.474   6.584
13241TIP3    H139600   2.305   2.484   6.588
13241TIP3    H239601   2.196   2.387   6.548
13242TIP3   OH239602   2.109   3.053   7.066
13242TIP3    H139603   2.044   2.998   7.021
13242TIP3    H239604   2.155   2.993   7.124
13243TIP3   OH239605   2.259   2.884   7.227
13243TIP3    H139606   2.254   2.813   7.292
13243TIP3    H239607   2.308   2.953   7.272
13244TIP3   OH239608   3.997   3.289   7.036
13244TIP3    H139609   4.018   3.312   7.127
13244TIP3    H239610   4.054   3.345   6.984
13245TIP3   OH239611   4.022   3.315   7.316
13245TIP3    H139612   3.972   3.233   7.311
13245TIP3    H239613   4.090   3.298   7.382
13246TIP3   OH239614   4.071   3.025   7.878
13246TIP3    H139615   3.998   3.035   7.938
13246TIP3    H239616   4.120   3.108   7.884
13247TIP3   OH239617   3.898   2.536   6.492
13247TIP3    H139618   3.952   2.610   6.465
13247TIP3    H239619   3.943   2.499   6.568
13248TIP3   OH239620   4.027   2.395   6.695
13248TIP3    H139621   3.960   2.359   6.752
13248TIP3    H239622   4.091   2.433   6.755
13249TIP3   OH239623   4.067   2.800   7.133
13249TIP3    H139624   4.118   2.731   7.090
13249TIP3    H239625   4.068   2.873   7.072
13250TIP3   OH239626   3.873   3.081   7.319
13250TIP3    H139627   3.806   3.126   7.370
13250TIP3    H239628   3.826   3.041   7.246
13251TIP3   OH239629   3.920   2.308   6.341
13251TIP3    H139630   3.846   2.309   6.280
13251TIP3    H239631   3.909   2.387   6.394
13252TIP3   OH239632   3.782   1.952   6.272
13252TIP3    H139633   3.730   1.988   6.200
13252TIP3    H239634   3.774   1.857   6.261
13253TIP3   OH239635   3.821   2.257   6.828
13253TIP3    H139636   3.822   2.162   6.813
13253TIP3    H239637   3.800   2.266   6.921
13254TIP3   OH239638   2.439   2.333   7.594
13254TIP3    H139639   2.427   2.292   7.508
13254TIP3    H239640   2.532   2.321   7.614
13255TIP3   OH239641   4.090   2.670   7.684
13255TIP3    H139642   4.158   2.604   7.670
13255TIP3    H239643   4.095   2.727   7.607
13256TIP3   OH239644   4.271   2.461   7.681
13256TIP3    H139645   4.198   2.419   7.726
13256TIP3    H239646   4.347   2.408   7.705
13257TIP3   OH239647   3.742   1.678   6.245
13257TIP3    H139648   3.803   1.658   6.316
13257TIP3    H239649   3.657   1.648   6.277
13258TIP3   OH239650   3.805   1.980   6.718
13258TIP3    H139651   3.851   1.897   6.732
13258TIP3    H239652   3.846   2.017   6.640
13259TIP3   OH239653   3.961   2.138   7.245
13259TIP3    H139654   4.042   2.156   7.197
13259TIP3    H239655   3.974   2.181   7.330
13260TIP3   OH239656   4.034   2.293   7.469
13260TIP3    H139657   3.962   2.321   7.525
13260TIP3    H239658   4.065   2.374   7.427
13261TIP3   OH239659   6.006   6.731   0.121
13261TIP3    H139660   6.096   6.706   0.143
13261TIP3    H239661   5.956   6.651   0.131
13262TIP3   OH239662   4.492   1.903   7.993
13262TIP3    H139663   4.559   1.841   7.965
13262TIP3    H239664   4.463   1.946   7.913
13263TIP3   OH239665   3.923   1.731   6.769
13263TIP3    H139666   3.969   1.717   6.852
13263TIP3    H239667   3.860   1.659   6.764
13264TIP3   OH239668   2.634   1.722   7.590
13264TIP3    H139669   2.692   1.645   7.586
13264TIP3    H239670   2.692   1.796   7.571
13265TIP3   OH239671   2.393   1.970   7.635
13265TIP3    H139672   2.457   1.980   7.565
13265TIP3    H239673   2.441   1.988   7.715
13266TIP3   OH239674   4.350   2.016   7.792
13266TIP3    H139675   4.274   2.055   7.835
13266TIP3    H239676   4.314   1.945   7.739
13267TIP3   OH239677   3.964   1.640   6.406
13267TIP3    H139678   4.015   1.580   6.352
13267TIP3    H239679   4.019   1.719   6.412
13268TIP3   OH239680   2.393   1.478   7.150
13268TIP3    H139681   2.310   1.472   7.196
13268TIP3    H239682   2.375   1.537   7.076
13269TIP3   OH239683   3.560   3.212   6.677
13269TIP3    H139684   3.615   3.199   6.600
13269TIP3    H239685   3.602   3.282   6.726
13270TIP3   OH239686   2.657   1.529   7.886
13270TIP3    H139687   2.608   1.531   7.968
13270TIP3    H239688   2.609   1.590   7.829
13271TIP3   OH239689   5.926   7.621   0.035
13271TIP3    H139690   5.834   7.619   0.009
13271TIP3    H239691   5.924   7.614   0.131
13272TIP3   OH239692   2.820   3.063   7.634
13272TIP3    H139693   2.817   3.143   7.582
13272TIP3    H239694   2.859   2.997   7.576
13273TIP3   OH239695   3.254   3.275   7.744
13273TIP3    H139696   3.293   3.269   7.831
13273TIP3    H239697   3.315   3.330   7.695
13274TIP3   OH239698   3.445   3.432   7.619
13274TIP3    H139699   3.503   3.376   7.568
13274TIP3    H239700   3.504   3.487   7.671
13275TIP3   OH239701   4.258   1.764   7.691
13275TIP3    H139702   4.173   1.764   7.648
13275TIP3    H239703   4.287   1.673   7.688
13276TIP3   OH239704   2.533   3.298   7.639
13276TIP3    H139705   2.440   3.315   7.621
13276TIP3    H239706   2.556   3.359   7.709
13277TIP3   OH239707   2.767   3.297   7.497
13277TIP3    H139708   2.684   3.295   7.544
13277TIP3    H239709   2.742   3.310   7.405
13278TIP3   OH239710   3.174   3.302   7.293
13278TIP3    H139711   3.098   3.309   7.236
13278TIP3    H239712   3.181   3.387   7.335
13279TIP3   OH239713   3.436   3.237   7.348
13279TIP3    H139714   3.344   3.252   7.327
13279TIP3    H239715   3.484   3.301   7.296
13280TIP3   OH239716   3.642   3.409   7.250
13280TIP3    H139717   3.635   3.495   7.207
13280TIP3    H239718   3.669   3.350   7.181
13281TIP3   OH239719   2.424   3.067   7.379
13281TIP3    H139720   2.459   3.039   7.464
13281TIP3    H239721   2.495   3.050   7.317
13282TIP3   OH239722   2.621   3.019   7.200
13282TIP3    H139723   2.645   2.934   7.237
13282TIP3    H239724   2.703   3.068   7.200
13283TIP3   OH239725   2.898   3.054   7.253
13283TIP3    H139726   2.869   2.963   7.260
13283TIP3    H239727   2.962   3.064   7.323
13284TIP3   OH239728   3.462   1.680   7.341
13284TIP3    H139729   3.419   1.611   7.392
13284TIP3    H239730   3.531   1.635   7.292
13285TIP3   OH239731   3.965   1.602   7.226
13285TIP3    H139732   4.001   1.653   7.154
13285TIP3    H239733   3.873   1.628   7.232
13286TIP3   OH239734   4.082   1.679   6.990
13286TIP3    H139735   4.151   1.617   6.966
13286TIP3    H239736   4.122   1.765   6.977
13287TIP3   OH239737   2.699   1.381   7.323
13287TIP3    H139738   2.610   1.349   7.337
13287TIP3    H239739   2.753   1.302   7.318
13288TIP3   OH239740   2.504   1.283   6.979
13288TIP3    H139741   2.540   1.332   6.906
13288TIP3    H239742   2.474   1.349   7.041
13289TIP3   OH239743   3.187   1.423   7.232
13289TIP3    H139744   3.233   1.470   7.162
13289TIP3    H239745   3.228   1.455   7.313
13290TIP3   OH239746   3.675   1.554   7.218
13290TIP3    H139747   3.694   1.517   7.131
13290TIP3    H239748   3.687   1.480   7.278
13291TIP3   OH239749   3.738   1.520   6.780
13291TIP3    H139750   3.659   1.568   6.806
13291TIP3    H239751   3.727   1.433   6.818
13292TIP3   OH239752   2.191   2.865   6.755
13292TIP3    H139753   2.108   2.831   6.723
13292TIP3    H239754   2.196   2.954   6.722
13293TIP3   OH239755   2.631   1.419   6.757
13293TIP3    H139756   2.678   1.359   6.699
13293TIP3    H239757   2.699   1.476   6.793
13294TIP3   OH239758   3.116   1.617   6.852
13294TIP3    H139759   3.176   1.564   6.905
13294TIP3    H239760   3.129   1.707   6.882
13295TIP3   OH239761   3.000   3.013   6.347
13295TIP3    H139762   3.083   3.039   6.309
13295TIP3    H239763   2.969   2.942   6.291
13296TIP3   OH239764   3.709   3.158   6.448
13296TIP3    H139765   3.702   3.063   6.443
13296TIP3    H239766   3.663   3.190   6.371
13297TIP3   OH239767   6.206   6.320   0.126
13297TIP3    H139768   6.160   6.254   0.178
13297TIP3    H239769   6.298   6.297   0.135
13298TIP3   OH239770   6.459   6.271   0.217
13298TIP3    H139771   6.540   6.283   0.167
13298TIP3    H239772   6.487   6.227   0.297
13299TIP3   OH239773   2.317   2.860   6.413
13299TIP3    H139774   2.319   2.866   6.508
13299TIP3    H239775   2.397   2.811   6.390
13300TIP3   OH239776   7.274   6.383   0.102
13300TIP3    H139777   7.293   6.361   0.194
13300TIP3    H239778   7.359   6.381   0.059
13301TIP3   OH239779   3.920   3.296   7.636
13301TIP3    H139780   3.847   3.265   7.583
13301TIP3    H239781   3.906   3.391   7.643
13302TIP3   OH239782   5.200   2.686   6.368
13302TIP3    H139783   5.168   2.773   6.344
13302TIP3    H239784   5.128   2.627   6.349
13303TIP3   OH239785   5.184   2.676   6.798
13303TIP3    H139786   5.238   2.661   6.876
13303TIP3    H239787   5.142   2.591   6.782
13304TIP3   OH239788   4.492   2.532   7.144
13304TIP3    H139789   4.531   2.483   7.215
13304TIP3    H239790   4.565   2.559   7.089
13305TIP3   OH239791   5.460   2.989   6.475
13305TIP3    H139792   5.455   2.920   6.541
13305TIP3    H239793   5.485   3.067   6.525
13306TIP3   OH239794   4.490   2.957   6.815
13306TIP3    H139795   4.470   2.864   6.827
13306TIP3    H239796   4.585   2.961   6.814
13307TIP3   OH239797   4.167   2.166   6.609
13307TIP3    H139798   4.131   2.250   6.636
13307TIP3    H239799   4.093   2.119   6.572
13308TIP3   OH239800   4.253   2.484   6.838
13308TIP3    H139801   4.303   2.407   6.865
13308TIP3    H239802   4.320   2.550   6.817
13309TIP3   OH239803   5.131   3.408   6.493
13309TIP3    H139804   5.153   3.344   6.425
13309TIP3    H239805   5.142   3.360   6.575
13310TIP3   OH239806   5.007   2.899   6.804
13310TIP3    H139807   5.053   2.818   6.781
13310TIP3    H239808   5.076   2.957   6.836
13311TIP3   OH239809   5.401   2.396   6.833
13311TIP3    H139810   5.431   2.312   6.868
13311TIP3    H239811   5.356   2.373   6.752
13312TIP3   OH239812   4.762   2.041   6.797
13312TIP3    H139813   4.740   2.115   6.740
13312TIP3    H239814   4.705   1.970   6.768
13313TIP3   OH239815   5.469   2.150   6.450
13313TIP3    H139816   5.530   2.142   6.523
13313TIP3    H239817   5.522   2.183   6.377
13314TIP3   OH239818   4.388   2.260   6.930
13314TIP3    H139819   4.472   2.242   6.973
13314TIP3    H239820   4.391   2.208   6.850
13315TIP3   OH239821   4.804   2.458   6.744
13315TIP3    H139822   4.899   2.443   6.752
13315TIP3    H239823   4.769   2.376   6.712
13316TIP3   OH239824   4.745   2.049   7.250
13316TIP3    H139825   4.696   2.085   7.177
13316TIP3    H239826   4.690   2.065   7.327
13317TIP3   OH239827   5.092   2.904   6.234
13317TIP3    H139828   5.053   2.873   6.153
13317TIP3    H239829   5.039   2.980   6.260
13318TIP3   OH239830   4.836   2.824   7.010
13318TIP3    H139831   4.785   2.897   7.045
13318TIP3    H239832   4.888   2.863   6.940
13319TIP3   OH239833   5.623   2.154   6.675
13319TIP3    H139834   5.570   2.145   6.754
13319TIP3    H239835   5.681   2.228   6.693
13320TIP3   OH239836   4.637   2.156   7.019
13320TIP3    H139837   4.692   2.231   7.042
13320TIP3    H239838   4.685   2.113   6.947
13321TIP3   OH239839   4.684   3.029   7.118
13321TIP3    H139840   4.672   3.120   7.091
13321TIP3    H239841   4.606   3.010   7.170
13322TIP3   OH239842   4.062   2.735   6.376
13322TIP3    H139843   4.021   2.758   6.293
13322TIP3    H239844   4.086   2.818   6.416
13323TIP3   OH239845   5.497   3.237   6.618
13323TIP3    H139846   5.409   3.228   6.654
13323TIP3    H239847   5.497   3.322   6.574
13324TIP3   OH239848   5.837   2.092   7.053
13324TIP3    H139849   5.759   2.146   7.070
13324TIP3    H239850   5.904   2.155   7.027
13325TIP3   OH239851   5.086   1.738   6.985
13325TIP3    H139852   5.080   1.647   7.012
13325TIP3    H239853   5.009   1.780   7.024
13326TIP3   OH239854   5.207   3.262   6.267
13326TIP3    H139855   5.260   3.183   6.258
13326TIP3    H239856   5.265   3.333   6.240
13327TIP3   OH239857   5.344   3.030   6.228
13327TIP3    H139858   5.270   2.970   6.229
13327TIP3    H239859   5.394   3.009   6.307
13328TIP3   OH239860   5.745   3.104   6.962
13328TIP3    H139861   5.724   3.031   6.904
13328TIP3    H239862   5.733   3.182   6.908
13329TIP3   OH239863   5.024   2.520   6.228
13329TIP3    H139864   4.940   2.562   6.210
13329TIP3    H239865   5.071   2.523   6.145
13330TIP3   OH239866   4.982   2.346   5.915
13330TIP3    H139867   5.050   2.387   5.969
13330TIP3    H239868   5.028   2.275   5.870
13331TIP3   OH239869   5.941   2.802   6.816
13331TIP3    H139870   5.846   2.817   6.822
13331TIP3    H239871   5.959   2.805   6.722
13332TIP3   OH239872   5.387   2.604   6.186
13332TIP3    H139873   5.332   2.637   6.257
13332TIP3    H239874   5.470   2.582   6.229
13333TIP3   OH239875   5.586   2.631   7.170
13333TIP3    H139876   5.587   2.717   7.214
13333TIP3    H239877   5.512   2.636   7.110
13334TIP3   OH239878   4.613   2.592   6.587
13334TIP3    H139879   4.576   2.529   6.525
13334TIP3    H239880   4.684   2.545   6.629
13335TIP3   OH239881   4.756   3.013   6.732
13335TIP3    H139882   4.735   2.999   6.640
13335TIP3    H239883   4.843   2.975   6.743
13336TIP3   OH239884   4.703   2.588   6.967
13336TIP3    H139885   4.743   2.551   6.889
13336TIP3    H239886   4.752   2.669   6.983
13337TIP3   OH239887   5.253   3.231   6.741
13337TIP3    H139888   5.245   3.311   6.793
13337TIP3    H239889   5.240   3.160   6.804
13338TIP3   OH239890   4.884   3.122   7.289
13338TIP3    H139891   4.823   3.178   7.338
13338TIP3    H239892   4.829   3.072   7.229
13339TIP3   OH239893   5.219   2.458   6.023
13339TIP3    H139894   5.279   2.516   6.071
13339TIP3    H239895   5.249   2.462   5.932
13340TIP3   OH239896   4.634   2.666   7.440
13340TIP3    H139897   4.638   2.761   7.455
13340TIP3    H239898   4.540   2.648   7.431
13341TIP3   OH239899   4.958   3.145   6.269
13341TIP3    H139900   5.040   3.192   6.279
13341TIP3    H239901   4.899   3.206   6.225
13342TIP3   OH239902   4.674   3.277   7.378
13342TIP3    H139903   4.650   3.293   7.287
13342TIP3    H239904   4.590   3.266   7.423
13343TIP3   OH239905   5.718   1.702   6.078
13343TIP3    H139906   5.641   1.723   6.132
13343TIP3    H239907   5.727   1.778   6.020
13344TIP3   OH239908   4.481   2.431   6.392
13344TIP3    H139909   4.403   2.478   6.365
13344TIP3    H239910   4.450   2.343   6.414
13345TIP3   OH239911   5.550   3.072   5.638
13345TIP3    H139912   5.541   3.165   5.618
13345TIP3    H239913   5.639   3.050   5.609
13346TIP3   OH239914   4.269   2.840   7.326
13346TIP3    H139915   4.198   2.821   7.264
13346TIP3    H239916   4.302   2.753   7.351
13347TIP3   OH239917   4.110   3.036   6.983
13347TIP3    H139918   4.198   3.063   7.007
13347TIP3    H239919   4.054   3.110   7.008
13348TIP3   OH239920   5.972   3.500   7.026
13348TIP3    H139921   5.978   3.405   7.033
13348TIP3    H239922   5.892   3.523   7.075
13349TIP3   OH239923   5.069   3.278   7.158
13349TIP3    H139924   5.062   3.367   7.194
13349TIP3    H239925   5.004   3.227   7.206
13350TIP3   OH239926   4.850   3.364   6.105
13350TIP3    H139927   4.803   3.344   6.024
13350TIP3    H239928   4.812   3.446   6.136
13351TIP3   OH239929   4.285   3.222   6.485
13351TIP3    H139930   4.330   3.213   6.569
13351TIP3    H239931   4.236   3.141   6.475
13352TIP3   OH239932   5.053   3.299   5.732
13352TIP3    H139933   5.103   3.225   5.698
13352TIP3    H239934   5.087   3.313   5.820
13353TIP3   OH239935   5.104   3.341   6.002
13353TIP3    H139936   5.017   3.344   6.043
13353TIP3    H239937   5.161   3.304   6.070
13354TIP3   OH239938   5.862   2.568   7.224
13354TIP3    H139939   5.771   2.589   7.202
13354TIP3    H239940   5.878   2.485   7.181
13355TIP3   OH239941   4.465   3.029   7.288
13355TIP3    H139942   4.516   3.019   7.369
13355TIP3    H239943   4.394   2.966   7.297
13356TIP3   OH239944   4.849   1.830   7.110
13356TIP3    H139945   4.765   1.796   7.078
13356TIP3    H239946   4.827   1.911   7.155
13357TIP3   OH239947   5.390   1.957   7.310
13357TIP3    H139948   5.459   1.934   7.373
13357TIP3    H239949   5.308   1.942   7.358
13358TIP3   OH239950   5.611   2.356   7.211
13358TIP3    H139951   5.591   2.354   7.304
13358TIP3    H239952   5.606   2.448   7.187
13359TIP3   OH239953   5.291   2.431   5.756
13359TIP3    H139954   5.248   2.440   5.671
13359TIP3    H239955   5.373   2.480   5.746
13360TIP3   OH239956   5.021   1.864   6.088
13360TIP3    H139957   4.982   1.873   6.175
13360TIP3    H239958   4.981   1.784   6.052
13361TIP3   OH239959   4.787   2.367   7.116
13361TIP3    H139960   4.743   2.374   7.201
13361TIP3    H239961   4.767   2.450   7.072
13362TIP3   OH239962   4.665   2.242   6.638
13362TIP3    H139963   4.575   2.219   6.664
13362TIP3    H239964   4.673   2.209   6.549
13363TIP3   OH239965   5.144   2.313   6.363
13363TIP3    H139966   5.099   2.388   6.323
13363TIP3    H239967   5.204   2.282   6.296
13364TIP3   OH239968   5.326   2.581   7.432
13364TIP3    H139969   5.307   2.511   7.495
13364TIP3    H239970   5.418   2.603   7.448
13365TIP3   OH239971   5.296   2.320   6.595
13365TIP3    H139972   5.235   2.341   6.525
13365TIP3    H239973   5.355   2.255   6.557
13366TIP3   OH239974   4.627   2.382   7.339
13366TIP3    H139975   4.638   2.447   7.409
13366TIP3    H239976   4.609   2.300   7.385
13367TIP3   OH239977   4.677   1.857   6.048
13367TIP3    H139978   4.667   1.860   6.143
13367TIP3    H239979   4.598   1.899   6.015
13368TIP3   OH239980   4.219   1.899   6.917
13368TIP3    H139981   4.289   1.935   6.970
13368TIP3    H239982   4.260   1.884   6.831
13369TIP3   OH239983   4.116   1.873   6.418
13369TIP3    H139984   4.160   1.910   6.342
13369TIP3    H239985   4.053   1.941   6.444
13370TIP3   OH239986   5.345   2.592   7.014
13370TIP3    H139987   5.376   2.529   6.949
13370TIP3    H239988   5.306   2.539   7.083
13371TIP3   OH239989   5.027   2.029   6.686
13371TIP3    H139990   4.949   2.029   6.742
13371TIP3    H239991   5.100   2.019   6.747
13372TIP3   OH239992   4.425   2.119   6.697
13372TIP3    H139993   4.338   2.123   6.659
13372TIP3    H239994   4.454   2.029   6.683
13373TIP3   OH239995   4.677   2.118   6.393
13373TIP3    H139996   4.772   2.130   6.384
13373TIP3    H239997   4.642   2.136   6.306
13374TIP3   OH239998   5.445   2.128   6.889
13374TIP3    H139999   5.432   2.141   6.983
13374TIP3    H240000   5.378   2.064   6.865
13375TIP3   OH240001   4.568   2.141   6.143
13375TIP3    H140002   4.506   2.091   6.091
13375TIP3    H240003   4.621   2.189   6.079
13376TIP3   OH240004   5.682   3.829   7.116
13376TIP3    H140005   5.684   3.840   7.021
13376TIP3    H240006   5.761   3.874   7.147
13377TIP3   OH240007   4.618   2.936   7.525
13377TIP3    H140008   4.698   2.957   7.573
13377TIP3    H240009   4.548   2.947   7.590
13378TIP3   OH240010   5.076   2.404   6.792
13378TIP3    H140011   5.143   2.357   6.742
13378TIP3    H240012   5.076   2.363   6.878
13379TIP3   OH240013   4.566   1.870   6.685
13379TIP3    H140014   4.539   1.794   6.737
13379TIP3    H240015   4.587   1.832   6.599
13380TIP3   OH240016   5.052   2.307   7.056
13380TIP3    H140017   4.965   2.341   7.081
13380TIP3    H240018   5.113   2.358   7.109
13381TIP3   OH240019   4.785   2.651   6.171
13381TIP3    H140020   4.709   2.599   6.146
13381TIP3    H240021   4.757   2.697   6.250
13382TIP3   OH240022   5.681   2.909   6.780
13382TIP3    H140023   5.718   2.959   6.707
13382TIP3    H240024   5.603   2.868   6.744
13383TIP3   OH240025   5.218   2.021   5.983
13383TIP3    H140026   5.147   1.973   6.026
13383TIP3    H240027   5.248   2.083   6.050
13384TIP3   OH240028   5.198   3.007   7.195
13384TIP3    H140029   5.251   2.990   7.273
13384TIP3    H240030   5.159   3.093   7.211
13385TIP3   OH240031   5.313   2.222   6.155
13385TIP3    H140032   5.407   2.228   6.172
13385TIP3    H240033   5.293   2.302   6.106
13386TIP3   OH240034   4.474   2.666   6.816
13386TIP3    H140035   4.514   2.651   6.730
13386TIP3    H240036   4.542   2.639   6.879
13387TIP3   OH240037   4.937   2.815   6.015
13387TIP3    H140038   4.889   2.898   6.012
13387TIP3    H240039   4.882   2.757   6.069
13388TIP3   OH240040   4.358   2.604   7.455
13388TIP3    H140041   4.360   2.577   7.546
13388TIP3    H240042   4.284   2.558   7.417
13389TIP3   OH240043   5.100   2.737   7.476
13389TIP3    H140044   5.030   2.677   7.450
13389TIP3    H240045   5.181   2.694   7.447
13390TIP3   OH240046   5.340   3.295   7.079
13390TIP3    H140047   5.245   3.282   7.082
13390TIP3    H240048   5.363   3.326   7.167
13391TIP3   OH240049   5.721   2.325   5.966
13391TIP3    H140050   5.666   2.278   5.904
13391TIP3    H240051   5.726   2.414   5.932
13392TIP3   OH240052   5.987   3.225   7.039
13392TIP3    H140053   5.898   3.193   7.053
13392TIP3    H240054   6.016   3.181   6.959
13393TIP3   OH240055   5.468   3.147   5.905
13393TIP3    H140056   5.441   3.081   5.968
13393TIP3    H240057   5.487   3.098   5.825
13394TIP3   OH240058   5.452   2.781   6.670
13394TIP3    H140059   5.362   2.758   6.693
13394TIP3    H240060   5.490   2.698   6.639
13395TIP3   OH240061   4.605   3.018   6.492
13395TIP3    H140062   4.597   3.093   6.433
13395TIP3    H240063   4.523   3.017   6.541
13396TIP3   OH240064   4.158   2.301   6.203
13396TIP3    H140065   4.201   2.383   6.226
13396TIP3    H240066   4.077   2.301   6.254
13397TIP3   OH240067   4.675   2.775   6.384
13397TIP3    H140068   4.662   2.864   6.418
13397TIP3    H240069   4.655   2.718   6.458
13398TIP3   OH240070   4.890   3.341   6.947
13398TIP3    H140071   4.927   3.414   6.897
13398TIP3    H240072   4.963   3.312   7.003
13399TIP3   OH240073   4.520   3.239   6.340
13399TIP3    H140074   4.433   3.245   6.379
13399TIP3    H240075   4.556   3.327   6.347
13400TIP3   OH240076   5.236   3.011   6.921
13400TIP3    H140077   5.220   3.009   7.015
13400TIP3    H240078   5.317   2.962   6.908
13401TIP3   OH240079   5.232   2.880   5.788
13401TIP3    H140080   5.285   2.849   5.862
13401TIP3    H240081   5.148   2.836   5.799
13402TIP3   OH240082   5.502   3.487   6.957
13402TIP3    H140083   5.434   3.426   6.985
13402TIP3    H240084   5.460   3.543   6.891
13403TIP3   OH240085   5.537   3.344   5.592
13403TIP3    H140086   5.546   3.400   5.515
13403TIP3    H240087   5.470   3.386   5.645
13404TIP3   OH240088   4.573   2.127   7.455
13404TIP3    H140089   4.478   2.138   7.460
13404TIP3    H240090   4.595   2.079   7.535
13405TIP3   OH240091   5.412   2.781   5.971
13405TIP3    H140092   5.397   2.730   6.051
13405TIP3    H240093   5.507   2.794   5.968
13406TIP3   OH240094   4.318   3.230   7.108
13406TIP3    H140095   4.370   3.171   7.162
13406TIP3    H240096   4.332   3.317   7.147
13407TIP3   OH240097   4.585   2.844   5.810
13407TIP3    H140098   4.600   2.753   5.786
13407TIP3    H240099   4.573   2.843   5.905
13408TIP3   OH240100   4.525   2.861   6.083
13408TIP3    H140101   4.578   2.836   6.158
13408TIP3    H240102   4.523   2.957   6.085
13409TIP3   OH240103   4.253   2.551   6.286
13409TIP3    H140104   4.190   2.601   6.338
13409TIP3    H240105   4.274   2.609   6.212
13410TIP3   OH240106   5.407   2.184   7.155
13410TIP3    H140107   5.488   2.230   7.178
13410TIP3    H240108   5.406   2.108   7.213
13411TIP3   OH240109   5.313   1.946   6.353
13411TIP3    H140110   5.271   1.994   6.282
13411TIP3    H240111   5.365   2.011   6.399
13412TIP3   OH240112   4.792   3.043   6.005
13412TIP3    H140113   4.709   3.067   6.046
13412TIP3    H240114   4.817   3.120   5.955
13413TIP3   OH240115   4.956   2.127   6.437
13413TIP3    H140116   5.018   2.195   6.412
13413TIP3    H240117   4.979   2.105   6.527
13414TIP3   OH240118   5.255   2.420   7.208
13414TIP3    H140119   5.283   2.464   7.288
13414TIP3    H240120   5.307   2.340   7.206
13415TIP3   OH240121   5.128   1.821   6.525
13415TIP3    H140122   5.103   1.897   6.578
13415TIP3    H240123   5.201   1.852   6.471
13416TIP3   OH240124   4.545   3.134   6.088
13416TIP3    H140125   4.526   3.207   6.029
13416TIP3    H240126   4.534   3.172   6.176
13417TIP3   OH240127   4.640   1.845   6.327
13417TIP3    H140128   4.627   1.935   6.357
13417TIP3    H240129   4.734   1.830   6.337
13418TIP3   OH240130   5.556   2.519   6.601
13418TIP3    H140131   5.479   2.472   6.634
13418TIP3    H240132   5.629   2.486   6.653
13419TIP3   OH240133   4.283   2.725   6.068
13419TIP3    H140134   4.354   2.788   6.079
13419TIP3    H240135   4.315   2.663   6.002
13420TIP3   OH240136   4.180   2.022   6.197
13420TIP3    H140137   4.195   2.116   6.207
13420TIP3    H240138   4.111   2.017   6.130
13421TIP3   OH240139   5.520   3.503   6.533
13421TIP3    H140140   5.479   3.555   6.464
13421TIP3    H240141   5.614   3.513   6.517
13422TIP3   OH240142   4.588   1.743   7.067
13422TIP3    H140143   4.558   1.711   6.982
13422TIP3    H240144   4.579   1.668   7.126
13423TIP3   OH240145   4.107   3.003   6.459
13423TIP3    H140146   4.064   3.039   6.537
13423TIP3    H240147   4.062   3.045   6.385
13424TIP3   OH240148   4.314   3.539   7.530
13424TIP3    H140149   4.396   3.544   7.580
13424TIP3    H240150   4.301   3.445   7.516
13425TIP3   OH240151   4.774   3.438   7.579
13425TIP3    H140152   4.868   3.421   7.585
13425TIP3    H240153   4.745   3.386   7.504
13426TIP3   OH240154   4.734   3.046   5.690
13426TIP3    H140155   4.689   2.977   5.739
13426TIP3    H240156   4.809   3.002   5.650
13427TIP3   OH240157   5.399   3.379   7.332
13427TIP3    H140158   5.417   3.310   7.395
13427TIP3    H240159   5.471   3.442   7.344
13428TIP3   OH240160   5.179   3.086   5.615
13428TIP3    H140161   5.213   3.022   5.678
13428TIP3    H240162   5.238   3.079   5.540
13429TIP3   OH240163   4.415   2.941   7.717
13429TIP3    H140164   4.432   2.847   7.729
13429TIP3    H240165   4.328   2.944   7.677
13430TIP3   OH240166   4.405   2.538   5.910
13430TIP3    H140167   4.451   2.513   5.991
13430TIP3    H240168   4.474   2.551   5.846
13431TIP3   OH240169   5.032   3.010   7.495
13431TIP3    H140170   4.991   3.033   7.411
13431TIP3    H240171   5.068   2.922   7.479
13432TIP3   OH240172   4.975   2.761   5.750
13432TIP3    H140173   4.952   2.771   5.842
13432TIP3    H240174   4.952   2.670   5.730
13433TIP3   OH240175   5.509   3.067   7.109
13433TIP3    H140176   5.588   3.091   7.062
13433TIP3    H240177   5.448   3.139   7.092
13434TIP3   OH240178   4.528   2.684   7.726
13434TIP3    H140179   4.600   2.667   7.665
13434TIP3    H240180   4.570   2.704   7.809
13435TIP3   OH240181   4.570   2.481   6.127
13435TIP3    H140182   4.550   2.453   6.216
13435TIP3    H240183   4.619   2.407   6.089
13436TIP3   OH240184   4.894   2.564   7.385
13436TIP3    H140185   4.808   2.604   7.396
13436TIP3    H240186   4.923   2.591   7.297
13437TIP3   OH240187   4.714   2.299   5.972
13437TIP3    H140188   4.685   2.302   5.881
13437TIP3    H240189   4.808   2.314   5.968
13438TIP3   OH240190   5.388   2.938   7.457
13438TIP3    H140191   5.461   2.906   7.404
13438TIP3    H240192   5.388   2.881   7.534
13439TIP3   OH240193   5.504   2.579   5.657
13439TIP3    H140194   5.494   2.541   5.570
13439TIP3    H240195   5.482   2.672   5.645
13440TIP3   OH240196   5.001   2.332   7.490
13440TIP3    H140197   5.003   2.263   7.424
13440TIP3    H240198   4.967   2.408   7.443
13441TIP3   OH240199   5.005   2.135   7.285
13441TIP3    H140200   5.032   2.173   7.202
13441TIP3    H240201   4.914   2.108   7.271
13442TIP3   OH240202   5.000   2.653   7.151
13442TIP3    H140203   5.091   2.681   7.137
13442TIP3    H240204   4.948   2.718   7.103
13443TIP3   OH240205   5.592   2.623   7.527
13443TIP3    H140206   5.611   2.530   7.511
13443TIP3    H240207   5.676   2.667   7.512
13444TIP3   OH240208   5.616   2.891   7.287
13444TIP3    H140209   5.567   2.952   7.231
13444TIP3    H240210   5.706   2.896   7.254
13445TIP3   OH240211   4.884   2.411   7.732
13445TIP3    H140212   4.812   2.351   7.752
13445TIP3    H240213   4.912   2.386   7.644
13446TIP3   OH240214   5.125   1.906   7.392
13446TIP3    H140215   5.086   1.987   7.358
13446TIP3    H240216   5.059   1.839   7.378
13447TIP3   OH240217   5.260   2.366   7.590
13447TIP3    H140218   5.253   2.356   7.685
13447TIP3    H240219   5.173   2.346   7.557
13448TIP3   OH240220   5.520   2.345   7.469
13448TIP3    H140221   5.438   2.334   7.518
13448TIP3    H240222   5.588   2.311   7.526
13449TIP3   OH240223   5.743   2.287   7.619
13449TIP3    H140224   5.754   2.192   7.630
13449TIP3    H240225   5.735   2.320   7.708
13450TIP3   OH240226   4.714   2.192   7.793
13450TIP3    H140227   4.718   2.103   7.757
13450TIP3    H240228   4.755   2.185   7.879
13451TIP3   OH240229   5.192   1.872   7.656
13451TIP3    H140230   5.261   1.806   7.647
13451TIP3    H240231   5.162   1.888   7.566
13452TIP3   OH240232   5.289   2.091   7.793
13452TIP3    H140233   5.256   2.019   7.740
13452TIP3    H240234   5.216   2.153   7.797
13453TIP3   OH240235   4.545   3.345   5.907
13453TIP3    H140236   4.634   3.323   5.878
13453TIP3    H240237   4.506   3.390   5.833
13454TIP3   OH240238   4.009   2.733   6.066
13454TIP3    H140239   4.104   2.740   6.074
13454TIP3    H240240   3.994   2.644   6.033
13455TIP3   OH240241   3.911   3.311   6.550
13455TIP3    H140242   3.848   3.258   6.503
13455TIP3    H240243   3.956   3.250   6.609
13456TIP3   OH240244   4.057   3.141   6.713
13456TIP3    H140245   4.048   3.071   6.778
13456TIP3    H240246   4.111   3.207   6.757
13457TIP3   OH240247   5.793   3.546   6.522
13457TIP3    H140248   5.812   3.568   6.613
13457TIP3    H240249   5.855   3.599   6.471
13458TIP3   OH240250   5.818   3.568   6.800
13458TIP3    H140251   5.771   3.485   6.799
13458TIP3    H240252   5.884   3.557   6.868
13459TIP3   OH240253   5.870   3.279   7.372
13459TIP3    H140254   5.801   3.286   7.439
13459TIP3    H240255   5.914   3.363   7.375
13460TIP3   OH240256   5.692   2.792   5.979
13460TIP3    H140257   5.748   2.865   5.952
13460TIP3    H240258   5.736   2.755   6.055
13461TIP3   OH240259   5.819   2.652   6.183
13461TIP3    H140260   5.754   2.617   6.245
13461TIP3    H240261   5.888   2.689   6.239
13462TIP3   OH240262   5.851   3.061   6.619
13462TIP3    H140263   5.906   2.994   6.579
13462TIP3    H240264   5.853   3.134   6.556
13463TIP3   OH240265   5.676   3.329   6.812
13463TIP3    H140266   5.611   3.375   6.864
13463TIP3    H240267   5.626   3.289   6.740
13464TIP3   OH240268   5.718   2.564   5.829
13464TIP3    H140269   5.643   2.564   5.769
13464TIP3    H240270   5.707   2.643   5.882
13465TIP3   OH240271   5.577   2.203   5.768
13465TIP3    H140272   5.521   2.238   5.698
13465TIP3    H240273   5.575   2.108   5.754
13466TIP3   OH240274   5.613   2.516   6.327
13466TIP3    H140275   5.622   2.421   6.315
13466TIP3    H240276   5.597   2.527   6.421
13467TIP3   OH240277   4.228   2.575   7.095
13467TIP3    H140278   4.219   2.544   7.005
13467TIP3    H240279   4.322   2.569   7.113
13468TIP3   OH240280   5.870   2.922   7.180
13468TIP3    H140281   5.942   2.860   7.167
13468TIP3    H240282   5.857   2.961   7.093
13469TIP3   OH240283   6.075   2.734   7.187
13469TIP3    H140284   6.005   2.669   7.195
13469TIP3    H240285   6.153   2.689   7.219
13470TIP3   OH240286   5.535   1.928   5.716
13470TIP3    H140287   5.593   1.909   5.790
13470TIP3    H240288   5.450   1.895   5.743
13471TIP3   OH240289   5.600   2.231   6.207
13471TIP3    H140290   5.648   2.149   6.219
13471TIP3    H240291   5.641   2.272   6.132
13472TIP3   OH240292   5.773   2.386   6.734
13472TIP3    H140293   5.838   2.427   6.677
13472TIP3    H240294   5.817   2.376   6.818
13473TIP3   OH240295   4.454   2.262   7.729
13473TIP3    H140296   4.548   2.257   7.750
13473TIP3    H240297   4.418   2.179   7.763
13474TIP3   OH240298   6.283   2.157   7.479
13474TIP3    H140299   6.347   2.100   7.435
13474TIP3    H240300   6.250   2.215   7.410
13475TIP3   OH240301   5.721   1.984   6.254
13475TIP3    H140302   5.767   1.971   6.337
13475TIP3    H240303   5.656   1.913   6.252
13476TIP3   OH240304   4.429   1.971   7.083
13476TIP3    H140305   4.482   1.892   7.090
13476TIP3    H240306   4.492   2.041   7.065
13477TIP3   OH240307   4.205   2.228   7.145
13477TIP3    H140308   4.256   2.222   7.065
13477TIP3    H240309   4.230   2.311   7.185
13478TIP3   OH240310   6.155   2.329   7.304
13478TIP3    H140311   6.079   2.348   7.359
13478TIP3    H240312   6.118   2.318   7.216
13479TIP3   OH240313   5.752   1.899   5.887
13479TIP3    H140314   5.802   1.839   5.831
13479TIP3    H240315   5.808   1.976   5.895
13480TIP3   OH240316   4.191   1.740   6.644
13480TIP3    H140317   4.107   1.730   6.689
13480TIP3    H240318   4.172   1.795   6.569
13481TIP3   OH240319   5.349   3.466   6.165
13481TIP3    H140320   5.407   3.455   6.089
13481TIP3    H240321   5.391   3.533   6.218
13482TIP3   OH240322   4.422   1.787   7.461
13482TIP3    H140323   4.374   1.786   7.544
13482TIP3    H240324   4.369   1.842   7.403
13483TIP3   OH240325   4.446   3.258   7.539
13483TIP3    H140326   4.353   3.237   7.534
13483TIP3    H240327   4.467   3.253   7.632
13484TIP3   OH240328   4.661   3.306   7.095
13484TIP3    H140329   4.612   3.383   7.066
13484TIP3    H240330   4.746   3.315   7.053
13485TIP3   OH240331   5.056   3.540   7.252
13485TIP3    H140332   5.096   3.534   7.339
13485TIP3    H240333   5.115   3.596   7.202
13486TIP3   OH240334   5.238   3.689   7.108
13486TIP3    H140335   5.298   3.628   7.063
13486TIP3    H240336   5.296   3.745   7.160
13487TIP3   OH240337   6.048   1.991   7.213
13487TIP3    H140338   5.974   2.019   7.159
13487TIP3    H240339   6.065   1.901   7.185
13488TIP3   OH240340   4.319   3.541   7.141
13488TIP3    H140341   4.227   3.558   7.120
13488TIP3    H240342   4.341   3.607   7.207
13489TIP3   OH240343   4.552   3.539   6.995
13489TIP3    H140344   4.468   3.541   7.042
13489TIP3    H240345   4.529   3.560   6.904
13490TIP3   OH240346   4.965   3.553   6.785
13490TIP3    H140347   4.890   3.563   6.726
13490TIP3    H240348   4.972   3.637   6.829
13491TIP3   OH240349   5.230   3.493   6.831
13491TIP3    H140350   5.139   3.512   6.812
13491TIP3    H240351   5.279   3.563   6.787
13492TIP3   OH240352   5.437   3.666   6.739
13492TIP3    H140353   5.429   3.750   6.694
13492TIP3    H240354   5.465   3.605   6.671
13493TIP3   OH240355   4.234   3.317   6.857
13493TIP3    H140356   4.258   3.293   6.946
13493TIP3    H240357   4.305   3.284   6.802
13494TIP3   OH240358   4.437   3.204   6.715
13494TIP3    H140359   4.447   3.118   6.757
13494TIP3    H240360   4.523   3.245   6.723
13495TIP3   OH240361   4.704   3.289   6.745
13495TIP3    H140362   4.725   3.197   6.730
13495TIP3    H240363   4.759   3.313   6.820
13496TIP3   OH240364   5.247   1.932   6.827
13496TIP3    H140365   5.209   1.863   6.881
13496TIP3    H240366   5.314   1.888   6.775
13497TIP3   OH240367   5.761   1.857   6.702
13497TIP3    H140368   5.809   1.901   6.632
13497TIP3    H240369   5.693   1.919   6.728
13498TIP3   OH240370   5.884   1.938   6.474
13498TIP3    H140371   5.953   1.877   6.449
13498TIP3    H240372   5.921   2.024   6.456
13499TIP3   OH240373   4.498   1.641   6.827
13499TIP3    H140374   4.409   1.607   6.839
13499TIP3    H240375   4.553   1.563   6.818
13500TIP3   OH240376   4.319   1.549   6.478
13500TIP3    H140377   4.346   1.599   6.401
13500TIP3    H240378   4.282   1.614   6.537
13501TIP3   OH240379   4.984   1.680   6.725
13501TIP3    H140380   5.033   1.727   6.657
13501TIP3    H240381   5.023   1.708   6.807
13502TIP3   OH240382   5.448   1.803   6.692
13502TIP3    H140383   5.506   1.782   6.619
13502TIP3    H240384   5.464   1.734   6.757
13503TIP3   OH240385   5.525   1.784   6.260
13503TIP3    H140386   5.447   1.833   6.288
13503TIP3    H240387   5.513   1.698   6.300
13504TIP3   OH240388   3.988   3.119   6.238
13504TIP3    H140389   3.903   3.089   6.205
13504TIP3    H240390   3.994   3.210   6.208
13505TIP3   OH240391   4.428   1.679   6.241
13505TIP3    H140392   4.474   1.616   6.185
13505TIP3    H240393   4.498   1.735   6.275
13506TIP3   OH240394   4.915   1.873   6.344
13506TIP3    H140395   4.974   1.822   6.400
13506TIP3    H240396   4.926   1.963   6.372
13507TIP3   OH240397   4.799   3.268   5.835
13507TIP3    H140398   4.882   3.296   5.797
13507TIP3    H240399   4.768   3.198   5.778
13508TIP3   OH240400   5.502   3.416   5.938
13508TIP3    H140401   5.496   3.321   5.932
13508TIP3    H240402   5.458   3.449   5.859
13509TIP3   OH240403   4.729   1.921   7.707
13509TIP3    H140404   4.694   1.856   7.768
13509TIP3    H240405   4.822   1.930   7.732
13510TIP3   OH240406   4.978   1.927   7.829
13510TIP3    H140407   5.055   1.902   7.779
13510TIP3    H240408   4.968   1.857   7.894
13511TIP3   OH240409   4.101   3.103   5.889
13511TIP3    H140410   4.098   3.115   5.984
13511TIP3    H240411   4.185   3.059   5.874
13512TIP3   OH240412   5.798   2.016   7.622
13512TIP3    H140413   5.817   1.988   7.711
13512TIP3    H240414   5.883   2.015   7.578
13513TIP3   OH240415   5.720   3.554   7.122
13513TIP3    H140416   5.645   3.522   7.072
13513TIP3    H240417   5.701   3.648   7.135
13514TIP3   OH240418   6.994   2.937   5.853
13514TIP3    H140419   6.964   3.025   5.831
13514TIP3    H240420   6.920   2.879   5.833
13515TIP3   OH240421   6.993   2.932   6.288
13515TIP3    H140422   7.046   2.917   6.366
13515TIP3    H240423   6.946   2.849   6.274
13516TIP3   OH240424   6.277   2.804   6.635
13516TIP3    H140425   6.306   2.743   6.702
13516TIP3    H240426   6.358   2.842   6.600
13517TIP3   OH240427   7.257   3.241   5.964
13517TIP3    H140428   7.248   3.174   6.032
13517TIP3    H240429   7.279   3.321   6.011
13518TIP3   OH240430   6.286   3.213   6.305
13518TIP3    H140431   6.266   3.120   6.318
13518TIP3    H240432   6.382   3.217   6.303
13519TIP3   OH240433   5.965   2.426   6.094
13519TIP3    H140434   5.929   2.510   6.123
13519TIP3    H240435   5.890   2.377   6.061
13520TIP3   OH240436   6.053   2.740   6.312
13520TIP3    H140437   6.102   2.665   6.346
13520TIP3    H240438   6.120   2.807   6.297
13521TIP3   OH240439   6.927   3.666   5.980
13521TIP3    H140440   6.949   3.605   5.910
13521TIP3    H240441   6.938   3.615   6.061
13522TIP3   OH240442   6.804   3.155   6.289
13522TIP3    H140443   6.850   3.074   6.265
13522TIP3    H240444   6.873   3.212   6.321
13523TIP3   OH240445   7.841   2.471   6.309
13523TIP3    H140446   7.854   2.555   6.352
13523TIP3    H240447   7.872   2.485   6.220
13524TIP3   OH240448   7.205   2.641   6.327
13524TIP3    H140449   7.234   2.555   6.357
13524TIP3    H240450   7.168   2.626   6.241
13525TIP3   OH240451   6.565   2.300   6.283
13525TIP3    H140452   6.539   2.373   6.225
13525TIP3    H240453   6.505   2.229   6.259
13526TIP3   OH240454   7.269   2.408   5.934
13526TIP3    H140455   7.331   2.400   6.007
13526TIP3    H240456   7.322   2.439   5.861
13527TIP3   OH240457   6.191   2.525   6.418
13527TIP3    H140458   6.272   2.505   6.465
13527TIP3    H240459   6.192   2.468   6.341
13528TIP3   OH240460   6.607   2.716   6.224
13528TIP3    H140461   6.700   2.699   6.234
13528TIP3    H240462   6.571   2.633   6.192
13529TIP3   OH240463   7.887   2.691   6.475
13529TIP3    H140464   7.800   2.731   6.468
13529TIP3    H240465   7.926   2.729   6.553
13530TIP3   OH240466   6.533   2.306   6.743
13530TIP3    H140467   6.485   2.344   6.670
13530TIP3    H240468   6.475   2.319   6.819
13531TIP3   OH240469   6.887   3.158   5.725
13531TIP3    H140470   6.848   3.128   5.643
13531TIP3    H240471   6.835   3.235   5.750
13532TIP3   OH240472   6.634   3.082   6.496
13532TIP3    H140473   6.581   3.153   6.531
13532TIP3    H240474   6.684   3.122   6.425
13533TIP3   OH240475   7.425   2.419   6.157
13533TIP3    H140476   7.374   2.402   6.237
13533TIP3    H240477   7.476   2.497   6.177
13534TIP3   OH240478   6.442   2.417   6.505
13534TIP3    H140479   6.494   2.493   6.533
13534TIP3    H240480   6.492   2.377   6.435
13535TIP3   OH240481   6.478   3.283   6.606
13535TIP3    H140482   6.463   3.373   6.579
13535TIP3    H240483   6.400   3.260   6.657
13536TIP3   OH240484   5.858   2.990   5.863
13536TIP3    H140485   5.819   3.013   5.778
13536TIP3    H240486   5.881   3.074   5.902
13537TIP3   OH240487   7.290   3.488   6.102
13537TIP3    H140488   7.201   3.482   6.137
13537TIP3    H240489   7.291   3.571   6.053
13538TIP3   OH240490   7.645   2.353   6.476
13538TIP3    H140491   7.559   2.381   6.442
13538TIP3    H240492   7.707   2.383   6.410
13539TIP3   OH240493   6.882   1.998   6.474
13539TIP3    H140494   6.875   1.906   6.499
13539TIP3    H240495   6.806   2.040   6.514
13540TIP3   OH240496   7.004   3.519   5.758
13540TIP3    H140497   7.056   3.440   5.747
13540TIP3    H240498   7.061   3.590   5.727
13541TIP3   OH240499   7.138   3.285   5.719
13541TIP3    H140500   7.063   3.225   5.720
13541TIP3    H240501   7.188   3.263   5.797
13542TIP3   OH240502   7.525   3.379   6.443
13542TIP3    H140503   7.510   3.303   6.386
13542TIP3    H240504   7.512   3.454   6.386
13543TIP3   OH240505   6.819   2.770   5.709
13543TIP3    H140506   6.735   2.814   5.696
13543TIP3    H240507   6.863   2.777   5.624
13544TIP3   OH240508   6.803   2.548   5.391
13544TIP3    H140509   6.864   2.609   5.433
13544TIP3    H240510   6.828   2.462   5.424
13545TIP3   OH240511   7.708   3.033   6.314
13545TIP3    H140512   7.625   3.080   6.314
13545TIP3    H240513   7.745   3.048   6.227
13546TIP3   OH240514   7.177   2.851   5.670
13546TIP3    H140515   7.123   2.885   5.740
13546TIP3    H240516   7.262   2.835   5.711
13547TIP3   OH240517   7.409   2.894   6.627
13547TIP3    H140518   7.406   2.979   6.671
13547TIP3    H240519   7.328   2.891   6.576
13548TIP3   OH240520   6.409   2.849   6.076
13548TIP3    H140521   6.372   2.786   6.014
13548TIP3    H240522   6.482   2.802   6.117
13549TIP3   OH240523   6.552   3.271   6.218
13549TIP3    H140524   6.529   3.256   6.127
13549TIP3    H240525   6.640   3.233   6.227
13550TIP3   OH240526   6.507   2.843   6.452
13550TIP3    H140527   6.546   2.806   6.373
13550TIP3    H240528   6.555   2.925   6.466
13551TIP3   OH240529   7.047   3.484   6.226
13551TIP3    H140530   7.037   3.563   6.278
13551TIP3    H240531   7.035   3.412   6.289
13552TIP3   OH240532   6.678   3.377   6.777
13552TIP3    H140533   6.616   3.433   6.824
13552TIP3    H240534   6.622   3.325   6.719
13553TIP3   OH240535   7.017   2.703   5.500
13553TIP3    H140536   7.071   2.764   5.550
13553TIP3    H240537   7.050   2.709   5.411
13554TIP3   OH240538   6.434   2.932   6.909
13554TIP3    H140539   6.435   3.024   6.934
13554TIP3    H240540   6.343   2.906   6.915
13555TIP3   OH240541   6.756   3.400   5.758
13555TIP3    H140542   6.838   3.448   5.767
13555TIP3    H240543   6.698   3.461   5.712
13556TIP3   OH240544   6.470   3.536   6.863
13556TIP3    H140545   6.442   3.547   6.772
13556TIP3    H240546   6.388   3.520   6.911
13557TIP3   OH240547   7.515   1.969   5.557
13557TIP3    H140548   7.438   1.990   5.611
13557TIP3    H240549   7.527   2.046   5.502
13558TIP3   OH240550   6.277   2.688   5.880
13558TIP3    H140551   6.198   2.735   5.852
13558TIP3    H240552   6.245   2.603   5.910
13559TIP3   OH240553   7.346   3.335   5.124
13559TIP3    H140554   7.340   3.428   5.104
13559TIP3    H240555   7.436   3.312   5.101
13560TIP3   OH240556   6.058   3.087   6.813
13560TIP3    H140557   5.984   3.076   6.753
13560TIP3    H240558   6.085   2.997   6.833
13561TIP3   OH240559   5.901   3.292   6.464
13561TIP3    H140560   5.991   3.313   6.490
13561TIP3    H240561   5.850   3.368   6.493
13562TIP3   OH240562   7.757   3.729   6.516
13562TIP3    H140563   7.761   3.635   6.533
13562TIP3    H240564   7.678   3.758   6.562
13563TIP3   OH240565   6.865   3.526   6.642
13563TIP3    H140566   6.856   3.616   6.672
13563TIP3    H240567   6.798   3.478   6.690
13564TIP3   OH240568   6.647   3.617   5.594
13564TIP3    H140569   6.605   3.597   5.510
13564TIP3    H240570   6.609   3.701   5.620
13565TIP3   OH240571   6.082   3.478   5.972
13565TIP3    H140572   6.127   3.469   6.056
13565TIP3    H240573   6.032   3.397   5.962
13566TIP3   OH240574   6.847   3.556   5.218
13566TIP3    H140575   6.897   3.483   5.183
13566TIP3    H240576   6.884   3.571   5.305
13567TIP3   OH240577   6.902   3.599   5.487
13567TIP3    H140578   6.817   3.600   5.532
13567TIP3    H240579   6.963   3.566   5.553
13568TIP3   OH240580   7.651   2.853   6.788
13568TIP3    H140581   7.568   2.864   6.742
13568TIP3    H240582   7.670   2.760   6.781
13569TIP3   OH240583   6.256   3.276   6.774
13569TIP3    H140584   6.309   3.267   6.853
13569TIP3    H240585   6.187   3.210   6.783
13570TIP3   OH240586   6.649   2.094   6.601
13570TIP3    H140587   6.568   2.056   6.566
13570TIP3    H240588   6.621   2.173   6.647
13571TIP3   OH240589   7.184   2.213   6.799
13571TIP3    H140590   7.254   2.189   6.861
13571TIP3    H240591   7.103   2.199   6.848
13572TIP3   OH240592   7.407   2.626   6.712
13572TIP3    H140593   7.368   2.622   6.800
13572TIP3    H240594   7.394   2.717   6.685
13573TIP3   OH240595   7.098   2.676   5.236
13573TIP3    H140596   7.048   2.689   5.156
13573TIP3    H240597   7.176   2.731   5.226
13574TIP3   OH240598   6.821   2.120   5.571
13574TIP3    H140599   6.784   2.129   5.659
13574TIP3    H240600   6.778   2.042   5.535
13575TIP3   OH240601   6.580   2.630   6.614
13575TIP3    H140602   6.528   2.634   6.695
13575TIP3    H240603   6.555   2.709   6.566
13576TIP3   OH240604   6.465   2.499   6.121
13576TIP3    H140605   6.376   2.477   6.150
13576TIP3    H240606   6.471   2.463   6.033
13577TIP3   OH240607   6.945   2.571   5.852
13577TIP3    H140608   6.898   2.644   5.811
13577TIP3    H240609   7.005   2.540   5.784
13578TIP3   OH240610   7.127   2.838   6.924
13578TIP3    H140611   7.102   2.770   6.987
13578TIP3    H240612   7.220   2.855   6.943
13579TIP3   OH240613   7.112   2.589   6.077
13579TIP3    H140614   7.042   2.608   6.014
13579TIP3    H240615   7.162   2.518   6.037
13580TIP3   OH240616   6.398   2.629   6.824
13580TIP3    H140617   6.384   2.693   6.894
13580TIP3    H240618   6.378   2.545   6.864
13581TIP3   OH240619   6.470   2.110   5.542
13581TIP3    H140620   6.461   2.110   5.637
13581TIP3    H240621   6.389   2.151   5.510
13582TIP3   OH240622   6.011   2.153   6.373
13582TIP3    H140623   6.085   2.188   6.421
13582TIP3    H240624   6.048   2.121   6.291
13583TIP3   OH240625   5.909   2.129   5.904
13583TIP3    H140626   5.957   2.168   5.831
13583TIP3    H240627   5.848   2.198   5.932
13584TIP3   OH240628   7.160   2.844   6.501
13584TIP3    H140629   7.184   2.777   6.437
13584TIP3    H240630   7.114   2.797   6.570
13585TIP3   OH240631   6.828   2.287   6.175
13585TIP3    H140632   6.749   2.288   6.229
13585TIP3    H240633   6.900   2.278   6.238
13586TIP3   OH240634   6.225   2.382   6.184
13586TIP3    H140635   6.136   2.385   6.149
13586TIP3    H240636   6.250   2.290   6.179
13587TIP3   OH240637   6.477   2.372   5.877
13587TIP3    H140638   6.572   2.385   5.867
13587TIP3    H240639   6.441   2.392   5.791
13588TIP3   OH240640   7.264   2.376   6.381
13588TIP3    H140641   7.248   2.392   6.474
13588TIP3    H240642   7.196   2.314   6.355
13589TIP3   OH240643   6.370   2.400   5.626
13589TIP3    H140644   6.306   2.349   5.576
13589TIP3    H240645   6.421   2.446   5.560
13590TIP3   OH240646   7.473   4.081   6.603
13590TIP3    H140647   7.470   4.096   6.508
13590TIP3    H240648   7.553   4.125   6.631
13591TIP3   OH240649   6.417   3.198   7.006
13591TIP3    H140650   6.498   3.213   7.055
13591TIP3    H240651   6.347   3.205   7.071
13592TIP3   OH240652   6.877   2.663   6.285
13592TIP3    H140653   6.946   2.613   6.243
13592TIP3    H240654   6.870   2.627   6.373
13593TIP3   OH240655   6.364   2.129   6.175
13593TIP3    H140656   6.336   2.055   6.228
13593TIP3    H240657   6.382   2.092   6.089
13594TIP3   OH240658   6.844   2.573   6.549
13594TIP3    H140659   6.758   2.606   6.576
13594TIP3    H240660   6.907   2.623   6.602
13595TIP3   OH240661   6.581   2.904   5.662
13595TIP3    H140662   6.504   2.853   5.636
13595TIP3    H240663   6.554   2.951   5.740
13596TIP3   OH240664   7.475   3.173   6.266
13596TIP3    H140665   7.512   3.222   6.193
13596TIP3    H240666   7.396   3.133   6.230
13597TIP3   OH240667   6.985   2.305   5.459
13597TIP3    H140668   6.927   2.242   5.502
13597TIP3    H240669   7.030   2.349   5.530
13598TIP3   OH240670   6.992   3.257   6.681
13598TIP3    H140671   7.044   3.244   6.760
13598TIP3    H240672   6.952   3.343   6.692
13599TIP3   OH240673   7.112   2.476   5.640
13599TIP3    H140674   7.205   2.481   5.659
13599TIP3    H240675   7.092   2.556   5.592
13600TIP3   OH240676   6.275   2.923   6.307
13600TIP3    H140677   6.316   2.907   6.222
13600TIP3    H240678   6.338   2.891   6.371
13601TIP3   OH240679   6.732   3.069   5.505
13601TIP3    H140680   6.685   3.152   5.501
13601TIP3    H240681   6.676   3.013   5.559
13602TIP3   OH240682   6.177   2.836   6.948
13602TIP3    H140683   6.159   2.816   7.040
13602TIP3    H240684   6.100   2.806   6.901
13603TIP3   OH240685   6.898   2.998   6.966
13603TIP3    H140686   6.826   2.940   6.940
13603TIP3    H240687   6.977   2.953   6.936
13604TIP3   OH240688   7.136   3.548   6.567
13604TIP3    H140689   7.041   3.534   6.570
13604TIP3    H240690   7.158   3.582   6.654
13605TIP3   OH240691   7.520   2.591   5.457
13605TIP3    H140692   7.473   2.546   5.387
13605TIP3    H240693   7.526   2.682   5.428
13606TIP3   OH240694   7.770   3.446   6.541
13606TIP3    H140695   7.676   3.435   6.527
13606TIP3    H240696   7.809   3.425   6.456
13607TIP3   OH240697   7.256   3.404   5.386
13607TIP3    H140698   7.233   3.333   5.445
13607TIP3    H240699   7.280   3.360   5.304
13608TIP3   OH240700   7.245   3.038   6.163
13608TIP3    H140701   7.156   3.016   6.190
13608TIP3    H240702   7.279   2.957   6.126
13609TIP3   OH240703   6.402   3.275   5.979
13609TIP3    H140704   6.394   3.350   5.920
13609TIP3    H240705   6.317   3.271   6.024
13610TIP3   OH240706   5.955   2.557   5.688
13610TIP3    H140707   5.998   2.639   5.712
13610TIP3    H240708   5.875   2.556   5.740
13611TIP3   OH240709   6.475   3.031   5.875
13611TIP3    H140710   6.461   3.120   5.907
13611TIP3    H240711   6.453   2.975   5.949
13612TIP3   OH240712   6.683   3.596   6.434
13612TIP3    H140713   6.720   3.669   6.384
13612TIP3    H240714   6.757   3.563   6.485
13613TIP3   OH240715   6.316   3.496   5.827
13613TIP3    H140716   6.229   3.502   5.866
13613TIP3    H240717   6.351   3.585   5.833
13614TIP3   OH240718   7.033   3.265   6.407
13614TIP3    H140719   7.017   3.261   6.501
13614TIP3    H240720   7.116   3.219   6.394
13615TIP3   OH240721   7.029   3.137   5.275
13615TIP3    H140722   7.080   3.105   5.349
13615TIP3    H240723   6.944   3.093   5.282
13616TIP3   OH240724   7.288   3.753   6.446
13616TIP3    H140725   7.220   3.690   6.468
13616TIP3    H240726   7.251   3.804   6.374
13617TIP3   OH240727   7.343   3.607   5.085
13617TIP3    H140728   7.380   3.674   5.027
13617TIP3    H240729   7.268   3.650   5.126
13618TIP3   OH240730   6.350   2.378   6.946
13618TIP3    H140731   6.255   2.369   6.950
13618TIP3    H240732   6.381   2.342   7.030
13619TIP3   OH240733   7.205   3.033   5.458
13619TIP3    H140734   7.190   2.981   5.537
13619TIP3    H240735   7.299   3.049   5.457
13620TIP3   OH240736   6.113   3.471   6.598
13620TIP3    H140737   6.162   3.406   6.647
13620TIP3    H240738   6.123   3.552   6.648
13621TIP3   OH240739   6.379   3.102   5.293
13621TIP3    H140740   6.390   3.010   5.266
13621TIP3    H240741   6.367   3.098   5.388
13622TIP3   OH240742   6.320   3.119   5.566
13622TIP3    H140743   6.375   3.095   5.640
13622TIP3    H240744   6.318   3.214   5.567
13623TIP3   OH240745   6.050   2.808   5.772
13623TIP3    H140746   5.986   2.857   5.825
13623TIP3    H240747   6.070   2.866   5.699
13624TIP3   OH240748   7.216   2.437   6.643
13624TIP3    H140749   7.293   2.485   6.676
13624TIP3    H240750   7.207   2.363   6.703
13625TIP3   OH240751   7.108   2.205   5.844
13625TIP3    H140752   7.061   2.256   5.778
13625TIP3    H240753   7.164   2.268   5.889
13626TIP3   OH240754   6.588   3.298   5.494
13626TIP3    H140755   6.505   3.324   5.533
13626TIP3    H240756   6.615   3.374   5.442
13627TIP3   OH240757   6.758   2.382   5.923
13627TIP3    H140758   6.819   2.452   5.901
13627TIP3    H240759   6.778   2.361   6.015
13628TIP3   OH240760   7.057   2.679   6.696
13628TIP3    H140761   7.079   2.723   6.779
13628TIP3    H240762   7.105   2.597   6.699
13629TIP3   OH240763   6.924   2.079   6.015
13629TIP3    H140764   6.898   2.155   6.067
13629TIP3    H240765   6.996   2.111   5.960
13630TIP3   OH240766   6.341   3.392   5.574
13630TIP3    H140767   6.322   3.464   5.514
13630TIP3    H240768   6.331   3.430   5.661
13631TIP3   OH240769   6.437   2.099   5.819
13631TIP3    H140770   6.424   2.189   5.849
13631TIP3    H240771   6.531   2.083   5.828
13632TIP3   OH240772   7.674   2.585   6.695
13632TIP3    H140773   7.579   2.585   6.704
13632TIP3    H240774   7.690   2.541   6.612
13633TIP3   OH240775   7.338   2.780   6.076
13633TIP3    H140776   7.260   2.726   6.090
13633TIP3    H240777   7.405   2.742   6.133
13634TIP3   OH240778   6.077   2.983   5.555
13634TIP3    H140779   6.148   3.046   5.565
13634TIP3    H240780   6.109   2.921   5.490
13635TIP3   OH240781   5.987   2.279   5.688
13635TIP3    H140782   5.997   2.374   5.697
13635TIP3    H240783   5.928   2.269   5.613
13636TIP3   OH240784   7.317   3.750   6.010
13636TIP3    H140785   7.279   3.804   5.941
13636TIP3    H240786   7.412   3.762   6.000
13637TIP3   OH240787   6.400   1.994   6.544
13637TIP3    H140788   6.365   1.962   6.460
13637TIP3    H240789   6.385   1.921   6.605
13638TIP3   OH240790   5.903   3.260   5.945
13638TIP3    H140791   5.860   3.296   6.023
13638TIP3    H240792   5.858   3.302   5.872
13639TIP3   OH240793   6.107   3.787   7.018
13639TIP3    H140794   6.190   3.786   7.065
13639TIP3    H240795   6.080   3.695   7.014
13640TIP3   OH240796   6.576   3.699   7.057
13640TIP3    H140797   6.666   3.669   7.068
13640TIP3    H240798   6.541   3.645   6.986
13641TIP3   OH240799   6.530   3.305   5.178
13641TIP3    H140800   6.484   3.235   5.225
13641TIP3    H240801   6.605   3.261   5.138
13642TIP3   OH240802   7.192   3.641   6.819
13642TIP3    H140803   7.208   3.571   6.882
13642TIP3    H240804   7.265   3.701   6.830
13643TIP3   OH240805   6.972   3.343   5.101
13643TIP3    H140806   7.009   3.281   5.163
13643TIP3    H240807   7.031   3.339   5.025
13644TIP3   OH240808   6.213   3.207   7.198
13644TIP3    H140809   6.235   3.115   7.210
13644TIP3    H240810   6.128   3.206   7.156
13645TIP3   OH240811   6.198   2.795   5.398
13645TIP3    H140812   6.248   2.770   5.476
13645TIP3    H240813   6.265   2.810   5.331
13646TIP3   OH240814   6.834   3.275   6.981
13646TIP3    H140815   6.788   3.295   6.899
13646TIP3    H240816   6.868   3.186   6.968
13647TIP3   OH240817   6.777   3.012   5.241
13647TIP3    H140818   6.751   3.025   5.333
13647TIP3    H240819   6.759   2.920   5.224
13648TIP3   OH240820   7.303   3.322   6.596
13648TIP3    H140821   7.381   3.349   6.548
13648TIP3    H240822   7.240   3.392   6.583
13649TIP3   OH240823   6.332   2.960   7.215
13649TIP3    H140824   6.399   2.908   7.171
13649TIP3    H240825   6.363   2.967   7.306
13650TIP3   OH240826   6.367   2.734   5.613
13650TIP3    H140827   6.345   2.707   5.702
13650TIP3    H240828   6.416   2.660   5.577
13651TIP3   OH240829   6.692   2.826   6.871
13651TIP3    H140830   6.603   2.861   6.880
13651TIP3    H240831   6.720   2.853   6.783
13652TIP3   OH240832   6.517   2.555   5.452
13652TIP3    H140833   6.482   2.562   5.364
13652TIP3    H240834   6.612   2.564   5.441
13653TIP3   OH240835   7.185   3.195   6.942
13653TIP3    H140836   7.255   3.157   6.889
13653TIP3    H240837   7.182   3.139   7.020
13654TIP3   OH240838   7.300   2.840   5.144
13654TIP3    H140839   7.286   2.803   5.057
13654TIP3    H240840   7.279   2.933   5.135
13655TIP3   OH240841   6.797   2.594   6.973
13655TIP3    H140842   6.794   2.523   6.909
13655TIP3    H240843   6.759   2.669   6.928
13656TIP3   OH240844   6.794   2.391   6.773
13656TIP3    H140845   6.818   2.431   6.689
13656TIP3    H240846   6.703   2.366   6.763
13657TIP3   OH240847   6.803   2.919   6.639
13657TIP3    H140848   6.889   2.961   6.634
13657TIP3    H240849   6.746   2.978   6.590
13658TIP3   OH240850   7.396   2.879   7.019
13658TIP3    H140851   7.444   2.796   7.024
13658TIP3    H240852   7.465   2.946   7.012
13659TIP3   OH240853   7.428   3.143   6.759
13659TIP3    H140854   7.375   3.205   6.709
13659TIP3    H240855   7.518   3.159   6.728
13660TIP3   OH240856   6.685   2.671   7.220
13660TIP3    H140857   6.617   2.606   7.240
13660TIP3    H240858   6.710   2.652   7.130
13661TIP3   OH240859   6.919   2.164   6.880
13661TIP3    H140860   6.878   2.243   6.846
13661TIP3    H240861   6.852   2.096   6.867
13662TIP3   OH240862   7.049   2.626   7.082
13662TIP3    H140863   7.036   2.613   7.175
13662TIP3    H240864   6.964   2.608   7.043
13663TIP3   OH240865   7.296   2.584   6.954
13663TIP3    H140866   7.216   2.584   7.007
13663TIP3    H240867   7.366   2.562   7.015
13664TIP3   OH240868   7.531   2.552   7.104
13664TIP3    H140869   7.544   2.457   7.110
13664TIP3    H240870   7.526   2.581   7.195
13665TIP3   OH240871   6.527   2.446   7.281
13665TIP3    H140872   6.524   2.358   7.243
13665TIP3    H240873   6.564   2.433   7.368
13666TIP3   OH240874   6.987   2.131   7.144
13666TIP3    H140875   7.056   2.066   7.133
13666TIP3    H240876   6.956   2.147   7.055
13667TIP3   OH240877   7.084   2.345   7.289
13667TIP3    H140878   7.052   2.274   7.234
13667TIP3    H240879   7.013   2.409   7.291
13668TIP3   OH240880   6.340   3.605   5.395
13668TIP3    H140881   6.429   3.582   5.367
13668TIP3    H240882   6.302   3.649   5.319
13669TIP3   OH240883   5.803   2.990   5.557
13669TIP3    H140884   5.898   2.998   5.562
13669TIP3    H240885   5.787   2.902   5.523
13670TIP3   OH240886   5.705   3.570   6.037
13670TIP3    H140887   5.641   3.516   5.991
13670TIP3    H240888   5.751   3.509   6.096
13671TIP3   OH240889   5.853   3.400   6.199
13671TIP3    H140890   5.844   3.330   6.263
13671TIP3    H240891   5.907   3.466   6.244
13672TIP3   OH240892   7.589   3.798   6.008
13672TIP3    H140893   7.610   3.829   6.096
13672TIP3    H240894   7.641   3.853   5.950
13673TIP3   OH240895   7.604   3.835   6.290
13673TIP3    H140896   7.558   3.751   6.284
13673TIP3    H240897   7.675   3.818   6.353
13674TIP3   OH240898   7.666   3.534   6.865
13674TIP3    H140899   7.593   3.545   6.926
13674TIP3    H240900   7.713   3.617   6.868
13675TIP3   OH240901   7.485   3.051   5.470
13675TIP3    H140902   7.540   3.124   5.439
13675TIP3    H240903   7.533   3.015   5.545
13676TIP3   OH240904   7.620   2.910   5.671
13676TIP3    H140905   7.552   2.877   5.730
13676TIP3    H240906   7.685   2.949   5.728
13677TIP3   OH240907   7.657   3.311   6.107
13677TIP3    H140908   7.711   3.243   6.066
13677TIP3    H240909   7.662   3.385   6.046
13678TIP3   OH240910   7.461   3.598   6.292
13678TIP3    H140911   7.395   3.643   6.344
13678TIP3    H240912   7.412   3.557   6.221
13679TIP3   OH240913   7.514   2.827   5.316
13679TIP3    H140914   7.439   2.827   5.257
13679TIP3    H240915   7.504   2.906   5.368
13680TIP3   OH240916   7.398   2.486   5.237
13680TIP3    H140917   7.402   2.518   5.147
13680TIP3    H240918   7.332   2.417   5.235
13681TIP3   OH240919   7.410   2.776   5.808
13681TIP3    H140920   7.419   2.681   5.798
13681TIP3    H240921   7.390   2.789   5.900
13682TIP3   OH240922   6.021   2.857   6.558
13682TIP3    H140923   6.012   2.814   6.473
13682TIP3    H240924   6.112   2.845   6.582
13683TIP3   OH240925   7.689   3.188   6.669
13683TIP3    H140926   7.753   3.119   6.651
13683TIP3    H240927   7.714   3.260   6.612
13684TIP3   OH240928   7.861   2.972   6.658
13684TIP3    H140929   7.789   2.932   6.706
13684TIP3    H240930   7.937   2.917   6.679
13685TIP3   OH240931   7.326   2.193   5.222
13685TIP3    H140932   7.415   2.212   5.252
13685TIP3    H240933   7.295   2.124   5.281
13686TIP3   OH240934   7.396   2.489   5.693
13686TIP3    H140935   7.445   2.408   5.704
13686TIP3    H240936   7.438   2.532   5.618
13687TIP3   OH240937   7.552   2.659   6.219
13687TIP3    H140938   7.632   2.677   6.170
13687TIP3    H240939   7.567   2.700   6.304
13688TIP3   OH240940   7.627   2.805   6.448
13688TIP3    H140941   7.556   2.834   6.505
13688TIP3    H240942   7.657   2.886   6.406
13689TIP3   OH240943   6.284   2.575   7.280
13689TIP3    H140944   6.374   2.542   7.273
13689TIP3    H240945   6.230   2.496   7.290
13690TIP3   OH240946   8.092   2.400   6.985
13690TIP3    H140947   8.158   2.347   6.940
13690TIP3    H240948   8.052   2.453   6.915
13691TIP3   OH240949   7.516   2.244   5.742
13691TIP3    H140950   7.564   2.229   5.824
13691TIP3    H240951   7.452   2.173   5.739
13692TIP3   OH240952   6.243   2.218   6.500
13692TIP3    H140953   6.293   2.143   6.531
13692TIP3    H240954   6.302   2.293   6.512
13693TIP3   OH240955   5.981   2.518   6.611
13693TIP3    H140956   6.045   2.514   6.540
13693TIP3    H240957   6.031   2.546   6.687
13694TIP3   OH240958   7.939   2.523   6.796
13694TIP3    H140959   7.862   2.565   6.835
13694TIP3    H240960   7.903   2.455   6.739
13695TIP3   OH240961   7.560   2.169   5.365
13695TIP3    H140962   7.609   2.103   5.316
13695TIP3    H240963   7.620   2.242   5.375
13696TIP3   OH240964   5.984   1.985   6.124
13696TIP3    H140965   5.900   1.979   6.171
13696TIP3    H240966   5.966   2.044   6.050
13697TIP3   OH240967   7.142   3.722   5.649
13697TIP3    H140968   7.199   3.712   5.573
13697TIP3    H240969   7.184   3.789   5.702
13698TIP3   OH240970   6.209   2.044   6.982
13698TIP3    H140971   6.175   2.033   7.070
13698TIP3    H240972   6.170   2.126   6.950
13699TIP3   OH240973   6.250   3.506   7.029
13699TIP3    H140974   6.155   3.494   7.021
13699TIP3    H240975   6.268   3.488   7.121
13700TIP3   OH240976   6.453   3.559   6.581
13700TIP3    H140977   6.403   3.635   6.550
13700TIP3    H240978   6.539   3.568   6.538
13701TIP3   OH240979   6.852   3.793   6.719
13701TIP3    H140980   6.889   3.784   6.807
13701TIP3    H240981   6.916   3.845   6.671
13702TIP3   OH240982   7.046   3.945   6.593
13702TIP3    H140983   7.108   3.891   6.546
13702TIP3    H240984   7.100   4.003   6.647
13703TIP3   OH240985   7.846   2.282   6.677
13703TIP3    H140986   7.765   2.286   6.626
13703TIP3    H240987   7.874   2.191   6.671
13704TIP3   OH240988   6.115   3.819   6.621
13704TIP3    H140989   6.021   3.832   6.606
13704TIP3    H240990   6.136   3.878   6.693
13705TIP3   OH240991   6.347   3.793   6.479
13705TIP3    H140992   6.264   3.800   6.527
13705TIP3    H240993   6.324   3.814   6.388
13706TIP3   OH240994   6.757   3.809   6.272
13706TIP3    H140995   6.684   3.820   6.211
13706TIP3    H240996   6.766   3.895   6.313
13707TIP3   OH240997   7.018   3.740   6.321
13707TIP3    H140998   6.927   3.763   6.300
13707TIP3    H240999   7.071   3.805   6.274
13708TIP3   OH241000   7.217   3.902   6.216
13708TIP3    H141001   7.227   3.991   6.181
13708TIP3    H241002   7.250   3.845   6.147
13709TIP3   OH241003   6.032   3.573   6.349
13709TIP3    H141004   6.056   3.545   6.437
13709TIP3    H241005   6.102   3.540   6.293
13710TIP3   OH241006   6.232   3.459   6.203
13710TIP3    H141007   6.242   3.373   6.245
13710TIP3    H241008   6.318   3.500   6.210
13711TIP3   OH241009   6.499   3.546   6.231
13711TIP3    H141010   6.519   3.454   6.214
13711TIP3    H241011   6.553   3.570   6.306
13712TIP3   OH241012   7.056   2.191   6.313
13712TIP3    H141013   7.017   2.122   6.366
13712TIP3    H241014   7.123   2.147   6.261
13713TIP3   OH241015   7.562   2.115   6.199
13713TIP3    H141016   7.601   2.166   6.127
13713TIP3    H241017   7.472   2.147   6.205
13714TIP3   OH241018   7.677   2.194   5.961
13714TIP3    H141019   7.744   2.131   5.936
13714TIP3    H241020   7.718   2.279   5.949
13715TIP3   OH241021   6.294   1.895   6.308
13715TIP3    H141022   6.206   1.861   6.322
13715TIP3    H241023   6.350   1.817   6.301
13716TIP3   OH241024   6.085   1.789   5.949
13716TIP3    H141025   6.125   1.839   5.878
13716TIP3    H241026   6.058   1.855   6.013
13717TIP3   OH241027   6.780   1.938   6.214
13717TIP3    H141028   6.830   1.985   6.147
13717TIP3    H241029   6.818   1.967   6.297
13718TIP3   OH241030   7.267   2.068   6.181
13718TIP3    H141031   7.299   2.030   6.099
13718TIP3    H241032   7.276   1.997   6.245
13719TIP3   OH241033   7.319   2.045   5.742
13719TIP3    H141034   7.242   2.093   5.773
13719TIP3    H241035   7.310   1.958   5.781
13720TIP3   OH241036   5.783   3.378   5.726
13720TIP3    H141037   5.699   3.346   5.692
13720TIP3    H241038   5.789   3.468   5.695
13721TIP3   OH241039   6.222   1.931   5.733
13721TIP3    H141040   6.268   1.871   5.675
13721TIP3    H241041   6.291   1.987   5.769
13722TIP3   OH241042   6.715   2.129   5.827
13722TIP3    H141043   6.769   2.077   5.886
13722TIP3    H241044   6.725   2.219   5.858
13723TIP3   OH241045   6.594   3.526   5.325
13723TIP3    H141046   6.678   3.553   5.286
13723TIP3    H241047   6.563   3.456   5.267
13724TIP3   OH241048   7.292   3.672   5.422
13724TIP3    H141049   7.285   3.577   5.414
13724TIP3    H241050   7.252   3.707   5.342
13725TIP3   OH241051   6.533   2.173   7.195
13725TIP3    H141052   6.494   2.109   7.254
13725TIP3    H241053   6.624   2.181   7.224
13726TIP3   OH241054   6.777   2.179   7.326
13726TIP3    H141055   6.853   2.158   7.272
13726TIP3    H241056   6.770   2.106   7.388
13727TIP3   OH241057   5.906   3.368   5.383
13727TIP3    H141058   5.906   3.374   5.479
13727TIP3    H241059   5.986   3.321   5.363
13728TIP3   OH241060   7.594   2.280   7.105
13728TIP3    H141061   7.612   2.252   7.194
13728TIP3    H241062   7.679   2.275   7.061
13729TIP3   OH241063   7.509   3.807   6.611
13729TIP3    H141064   7.435   3.778   6.557
13729TIP3    H241065   7.498   3.902   6.617
13730TIP3   OH241066   8.769   3.202   5.360
13730TIP3    H141067   8.744   3.289   5.330
13730TIP3    H241068   8.695   3.146   5.334
13731TIP3   OH241069   8.760   3.188   5.755
13731TIP3    H141070   8.799   3.178   5.842
13731TIP3    H241071   8.722   3.102   5.737
13732TIP3   OH241072   8.083   3.044   6.118
13732TIP3    H141073   8.122   2.991   6.188
13732TIP3    H241074   8.158   3.072   6.066
13733TIP3   OH241075   9.059   3.490   5.425
13733TIP3    H141076   9.041   3.424   5.492
13733TIP3    H241077   9.072   3.571   5.474
13734TIP3   OH241078   8.078   3.469   5.793
13734TIP3    H141079   8.060   3.376   5.803
13734TIP3    H241080   8.173   3.475   5.789
13735TIP3   OH241081   7.761   2.679   5.590
13735TIP3    H141082   7.727   2.765   5.616
13735TIP3    H241083   7.685   2.634   5.551
13736TIP3   OH241084   7.845   2.998   5.813
13736TIP3    H141085   7.895   2.921   5.840
13736TIP3    H241086   7.911   3.064   5.793
13737TIP3   OH241087   8.717   3.929   5.460
13737TIP3    H141088   8.744   3.862   5.398
13737TIP3    H241089   8.717   3.886   5.545
13738TIP3   OH241090   8.592   3.410   5.779
13738TIP3    H141091   8.635   3.330   5.749
13738TIP3    H241092   8.663   3.465   5.812
13739TIP3   OH241093   9.483   2.681   5.783
13739TIP3    H141094   9.530   2.736   5.846
13739TIP3    H241095   9.425   2.742   5.737
13740TIP3   OH241096   8.980   2.912   5.822
13740TIP3    H141097   9.024   2.834   5.855
13740TIP3    H241098   8.948   2.887   5.735
13741TIP3   OH241099   8.353   2.553   5.773
13741TIP3    H141100   8.334   2.627   5.715
13741TIP3    H241101   8.297   2.483   5.741
13742TIP3   OH241102   9.028   2.651   5.419
13742TIP3    H141103   9.092   2.632   5.488
13742TIP3    H241104   9.079   2.687   5.347
13743TIP3   OH241105   7.979   2.772   5.904
13743TIP3    H141106   8.062   2.757   5.947
13743TIP3    H241107   7.984   2.721   5.823
13744TIP3   OH241108   8.395   2.971   5.718
13744TIP3    H141109   8.489   2.955   5.726
13744TIP3    H241110   8.359   2.889   5.685
13745TIP3   OH241111   9.592   2.855   5.960
13745TIP3    H141112   9.568   2.947   5.975
13745TIP3    H241113   9.686   2.851   5.978
13746TIP3   OH241114   8.336   2.562   6.224
13746TIP3    H141115   8.287   2.600   6.151
13746TIP3    H241116   8.282   2.577   6.301
13747TIP3   OH241117   8.685   3.418   5.205
13747TIP3    H141118   8.646   3.386   5.124
13747TIP3    H241119   8.631   3.492   5.231
13748TIP3   OH241120   8.438   3.332   5.997
13748TIP3    H141121   8.384   3.404   6.029
13748TIP3    H241122   8.487   3.368   5.924
13749TIP3   OH241123   9.197   2.641   5.630
13749TIP3    H141124   9.146   2.627   5.710
13749TIP3    H241125   9.238   2.726   5.643
13750TIP3   OH241126   8.226   2.668   5.993
13750TIP3    H141127   8.280   2.743   6.015
13750TIP3    H241128   8.273   2.624   5.922
13751TIP3   OH241129   8.279   3.540   6.092
13751TIP3    H141130   8.266   3.630   6.061
13751TIP3    H241131   8.201   3.522   6.146
13752TIP3   OH241132   7.653   3.242   5.351
13752TIP3    H141133   7.621   3.265   5.264
13752TIP3    H241134   7.677   3.326   5.390
13753TIP3   OH241135   9.078   3.741   5.561
13753TIP3    H141136   8.997   3.722   5.609
13753TIP3    H241137   9.062   3.825   5.519
13754TIP3   OH241138   9.301   2.516   5.909
13754TIP3    H141139   9.216   2.560   5.906
13754TIP3    H241140   9.363   2.581   5.877
13755TIP3   OH241141   8.675   2.254   5.958
13755TIP3    H141142   8.672   2.162   5.985
13755TIP3    H241143   8.597   2.294   5.997
13756TIP3   OH241144   8.801   3.771   5.247
13756TIP3    H141145   8.852   3.692   5.231
13756TIP3    H241146   8.859   3.843   5.221
13757TIP3   OH241147   8.936   3.543   5.181
13757TIP3    H141148   8.861   3.485   5.183
13757TIP3    H241149   8.989   3.517   5.257
13758TIP3   OH241150   9.301   3.628   5.919
13758TIP3    H141151   9.287   3.552   5.863
13758TIP3    H241152   9.282   3.703   5.864
13759TIP3   OH241153   8.603   3.034   5.206
13759TIP3    H141154   8.521   3.079   5.186
13759TIP3    H241155   8.648   3.029   5.122
13760TIP3   OH241156   8.561   2.840   4.886
13760TIP3    H141157   8.625   2.887   4.939
13760TIP3    H241158   8.611   2.769   4.846
13761TIP3   OH241159   9.439   3.221   5.719
13761TIP3    H141160   9.369   3.279   5.749
13761TIP3    H241161   9.520   3.273   5.731
13762TIP3   OH241162   8.935   3.100   5.172
13762TIP3    H141163   8.887   3.137   5.246
13762TIP3    H241164   9.020   3.075   5.208
13763TIP3   OH241165   9.188   3.150   6.135
13763TIP3    H141166   9.222   3.166   6.223
13763TIP3    H241167   9.128   3.223   6.118
13764TIP3   OH241168   8.202   3.104   5.562
13764TIP3    H141169   8.167   3.042   5.498
13764TIP3    H241170   8.275   3.058   5.603
13765TIP3   OH241171   8.343   3.523   5.710
13765TIP3    H141172   8.325   3.511   5.616
13765TIP3    H241173   8.430   3.486   5.723
13766TIP3   OH241174   8.296   3.103   5.941
13766TIP3    H141175   8.336   3.068   5.861
13766TIP3    H241176   8.347   3.182   5.961
13767TIP3   OH241177   8.859   3.719   5.718
13767TIP3    H141178   8.834   3.801   5.760
13767TIP3    H241179   8.836   3.651   5.782
13768TIP3   OH241180   8.474   3.641   6.264
13768TIP3    H141181   8.411   3.697   6.310
13768TIP3    H241182   8.420   3.588   6.205
13769TIP3   OH241183   8.782   2.970   4.991
13769TIP3    H141184   8.839   3.026   5.043
13769TIP3    H241185   8.816   2.976   4.902
13770TIP3   OH241186   8.225   3.192   6.418
13770TIP3    H141187   8.224   3.286   6.432
13770TIP3    H241188   8.133   3.168   6.406
13771TIP3   OH241189   8.549   3.656   5.246
13771TIP3    H141190   8.630   3.705   5.258
13771TIP3    H241191   8.490   3.717   5.203
13772TIP3   OH241192   8.260   3.795   6.348
13772TIP3    H141193   8.239   3.808   6.256
13772TIP3    H241194   8.175   3.783   6.391
13773TIP3   OH241195   9.321   2.202   5.088
13773TIP3    H141196   9.236   2.217   5.129
13773TIP3    H241197   9.315   2.246   5.003
13774TIP3   OH241198   8.074   2.943   5.363
13774TIP3    H141199   7.995   2.989   5.335
13774TIP3    H241200   8.043   2.855   5.385
13775TIP3   OH241201   9.036   3.608   4.623
13775TIP3    H141202   9.053   3.697   4.593
13775TIP3    H241203   9.122   3.572   4.642
13776TIP3   OH241204   7.860   3.357   6.300
13776TIP3    H141205   7.790   3.337   6.237
13776TIP3    H241206   7.894   3.271   6.326
13777TIP3   OH241207   7.706   3.545   5.956
13777TIP3    H141208   7.797   3.570   5.971
13777TIP3    H241209   7.656   3.622   5.983
13778TIP3   OH241210   9.443   3.969   6.015
13778TIP3    H141211   9.460   3.876   6.028
13778TIP3    H241212   9.372   3.990   6.076
13779TIP3   OH241213   8.662   3.786   6.125
13779TIP3    H141214   8.652   3.876   6.155
13779TIP3    H241215   8.595   3.737   6.174
13780TIP3   OH241216   8.438   3.875   5.084
13780TIP3    H141217   8.392   3.855   5.002
13780TIP3    H241218   8.399   3.957   5.114
13781TIP3   OH241219   7.876   3.732   5.457
13781TIP3    H141220   7.921   3.726   5.541
13781TIP3    H241221   7.829   3.649   5.449
13782TIP3   OH241222   8.634   3.834   4.716
13782TIP3    H141223   8.675   3.756   4.679
13782TIP3    H241224   8.671   3.841   4.804
13783TIP3   OH241225   8.693   3.851   4.987
13783TIP3    H141226   8.605   3.852   5.025
13783TIP3    H241227   8.748   3.813   5.056
13784TIP3   OH241228   8.063   3.541   6.264
13784TIP3    H141229   8.112   3.529   6.346
13784TIP3    H241230   7.989   3.481   6.272
13785TIP3   OH241231   8.438   2.343   6.082
13785TIP3    H141232   8.353   2.312   6.050
13785TIP3    H241233   8.417   2.425   6.127
13786TIP3   OH241234   8.978   2.475   6.281
13786TIP3    H141235   9.048   2.449   6.341
13786TIP3    H241236   8.897   2.461   6.330
13787TIP3   OH241237   9.213   2.879   6.203
13787TIP3    H141238   9.177   2.877   6.291
13787TIP3    H241239   9.211   2.971   6.177
13788TIP3   OH241240   8.868   2.939   4.729
13788TIP3    H141241   8.820   2.947   4.646
13788TIP3    H241242   8.942   2.998   4.720
13789TIP3   OH241243   8.589   2.384   5.052
13789TIP3    H141244   8.553   2.391   5.140
13789TIP3    H241245   8.553   2.301   5.018
13790TIP3   OH241246   8.380   2.878   6.081
13790TIP3    H141247   8.343   2.887   6.168
13790TIP3    H241248   8.358   2.960   6.036
13791TIP3   OH241249   8.258   2.754   5.612
13791TIP3    H141250   8.169   2.731   5.638
13791TIP3    H241251   8.266   2.722   5.522
13792TIP3   OH241252   8.726   2.833   5.346
13792TIP3    H141253   8.681   2.907   5.306
13792TIP3    H241254   8.783   2.798   5.277
13793TIP3   OH241255   8.945   3.099   6.403
13793TIP3    H141256   8.923   3.036   6.472
13793TIP3    H241257   9.040   3.102   6.403
13794TIP3   OH241258   8.889   2.842   5.571
13794TIP3    H141259   8.822   2.863   5.506
13794TIP3    H241260   8.935   2.767   5.534
13795TIP3   OH241261   8.213   2.882   6.305
13795TIP3    H141262   8.270   2.936   6.360
13795TIP3    H241263   8.197   2.803   6.357
13796TIP3   OH241264   8.255   2.362   5.029
13796TIP3    H141265   8.249   2.368   5.124
13796TIP3    H241266   8.178   2.408   4.996
13797TIP3   OH241267   7.817   2.413   5.893
13797TIP3    H141268   7.880   2.451   5.954
13797TIP3    H241269   7.862   2.416   5.808
13798TIP3   OH241270   7.712   2.398   5.393
13798TIP3    H141271   7.756   2.436   5.317
13798TIP3    H241272   7.649   2.465   5.420
13799TIP3   OH241273   8.867   3.099   5.993
13799TIP3    H141274   8.920   3.047   5.933
13799TIP3    H241275   8.862   3.046   6.073
13800TIP3   OH241276   8.620   2.540   5.662
13800TIP3    H141277   8.543   2.542   5.719
13800TIP3    H241278   8.694   2.531   5.721
13801TIP3   OH241279   8.019   2.630   5.673
13801TIP3    H141280   7.932   2.634   5.633
13801TIP3    H241281   8.050   2.541   5.654
13802TIP3   OH241282   8.266   2.631   5.365
13802TIP3    H141283   8.361   2.641   5.358
13802TIP3    H241284   8.233   2.649   5.277
13803TIP3   OH241285   9.046   2.635   5.868
13803TIP3    H141286   9.030   2.659   5.959
13803TIP3    H241287   8.973   2.577   5.845
13804TIP3   OH241288   8.158   2.651   5.113
13804TIP3    H141289   8.094   2.602   5.062
13804TIP3    H241290   8.208   2.701   5.048
13805TIP3   OH241291   9.260   4.350   6.088
13805TIP3    H141292   9.254   4.362   5.994
13805TIP3    H241293   9.338   4.399   6.114
13806TIP3   OH241294   8.205   3.458   6.501
13806TIP3    H141295   8.287   3.475   6.547
13806TIP3    H241296   8.137   3.468   6.569
13807TIP3   OH241297   8.663   2.911   5.764
13807TIP3    H141298   8.736   2.871   5.717
13807TIP3    H241299   8.668   2.875   5.852
13808TIP3   OH241300   8.157   2.383   5.654
13808TIP3    H141301   8.131   2.307   5.706
13808TIP3    H241302   8.182   2.346   5.569
13809TIP3   OH241303   8.647   2.815   6.032
13809TIP3    H141304   8.560   2.849   6.054
13809TIP3    H241305   8.707   2.863   6.090
13810TIP3   OH241306   8.371   3.170   5.144
13810TIP3    H141307   8.295   3.117   5.118
13810TIP3    H241308   8.343   3.213   5.224
13811TIP3   OH241309   9.253   3.428   5.738
13811TIP3    H141310   9.297   3.460   5.659
13811TIP3    H241311   9.171   3.391   5.705
13812TIP3   OH241312   8.840   2.488   5.047
13812TIP3    H141313   8.747   2.464   5.046
13812TIP3    H241314   8.840   2.583   5.064
13813TIP3   OH241315   8.765   3.508   6.176
13813TIP3    H141316   8.845   3.492   6.226
13813TIP3    H241317   8.748   3.601   6.187
13814TIP3   OH241318   8.885   2.748   5.131
13814TIP3    H141319   8.979   2.756   5.146
13814TIP3    H241320   8.863   2.825   5.078
13815TIP3   OH241321   8.065   3.177   5.791
13815TIP3    H141322   8.104   3.163   5.705
13815TIP3    H241323   8.133   3.153   5.854
13816TIP3   OH241324   8.526   3.330   4.988
13816TIP3    H141325   8.480   3.414   4.986
13816TIP3    H241326   8.471   3.273   5.042
13817TIP3   OH241327   7.948   3.126   6.432
13817TIP3    H141328   7.957   3.098   6.524
13817TIP3    H241329   7.874   3.074   6.399
13818TIP3   OH241330   8.721   3.264   6.427
13818TIP3    H141331   8.673   3.248   6.345
13818TIP3    H241332   8.803   3.217   6.416
13819TIP3   OH241333   8.930   3.798   6.049
13819TIP3    H141334   8.835   3.787   6.054
13819TIP3    H241335   8.954   3.834   6.134
13820TIP3   OH241336   9.269   2.817   4.946
13820TIP3    H141337   9.207   2.771   4.890
13820TIP3    H241338   9.271   2.906   4.912
13821TIP3   OH241339   9.544   3.714   6.006
13821TIP3    H141340   9.459   3.671   5.997
13821TIP3    H241341   9.585   3.703   5.920
13822TIP3   OH241342   9.055   3.659   4.920
13822TIP3    H141343   9.018   3.607   4.991
13822TIP3    H241344   9.028   3.614   4.840
13823TIP3   OH241345   9.025   3.300   5.631
13823TIP3    H141346   8.937   3.285   5.666
13823TIP3    H241347   9.053   3.213   5.601
13824TIP3   OH241348   8.198   3.533   5.467
13824TIP3    H141349   8.192   3.607   5.407
13824TIP3    H241350   8.116   3.535   5.516
13825TIP3   OH241351   7.738   2.815   5.155
13825TIP3    H141352   7.787   2.894   5.179
13825TIP3    H241353   7.662   2.815   5.213
13826TIP3   OH241354   8.268   3.289   5.362
13826TIP3    H141355   8.255   3.378   5.395
13826TIP3    H241356   8.247   3.233   5.437
13827TIP3   OH241357   8.478   3.852   5.918
13827TIP3    H141358   8.510   3.929   5.871
13827TIP3    H241359   8.554   3.822   5.969
13828TIP3   OH241360   8.111   3.751   5.314
13828TIP3    H141361   8.024   3.758   5.353
13828TIP3    H241362   8.148   3.839   5.320
13829TIP3   OH241363   8.816   3.514   5.906
13829TIP3    H141364   8.779   3.504   5.994
13829TIP3    H241365   8.910   3.502   5.917
13830TIP3   OH241366   8.781   3.405   4.776
13830TIP3    H141367   8.827   3.370   4.852
13830TIP3    H241368   8.695   3.364   4.779
13831TIP3   OH241369   9.052   4.027   5.941
13831TIP3    H141370   8.988   3.955   5.951
13831TIP3    H241371   9.027   4.069   5.859
13832TIP3   OH241372   9.097   3.867   4.563
13832TIP3    H141373   9.152   3.938   4.531
13832TIP3    H241374   9.019   3.911   4.598
13833TIP3   OH241375   8.166   2.632   6.433
13833TIP3    H141376   8.071   2.643   6.440
13833TIP3    H241377   8.191   2.585   6.512
13834TIP3   OH241378   8.926   3.290   4.974
13834TIP3    H141379   8.915   3.226   5.044
13834TIP3    H241380   9.009   3.333   4.993
13835TIP3   OH241381   7.907   3.757   6.077
13835TIP3    H141382   7.962   3.703   6.133
13835TIP3    H241383   7.919   3.846   6.109
13836TIP3   OH241384   8.174   3.360   4.781
13836TIP3    H141385   8.186   3.269   4.754
13836TIP3    H241386   8.162   3.356   4.875
13837TIP3   OH241387   8.117   3.373   5.054
13837TIP3    H141388   8.176   3.350   5.125
13837TIP3    H241389   8.113   3.469   5.056
13838TIP3   OH241390   7.843   3.059   5.254
13838TIP3    H141391   7.781   3.107   5.308
13838TIP3    H241392   7.866   3.119   5.183
13839TIP3   OH241393   9.013   2.704   6.129
13839TIP3    H141394   9.088   2.753   6.161
13839TIP3    H241395   9.005   2.630   6.190
13840TIP3   OH241396   8.887   2.436   5.318
13840TIP3    H141397   8.870   2.460   5.226
13840TIP3    H241398   8.928   2.514   5.355
13841TIP3   OH241399   8.382   3.558   4.983
13841TIP3    H141400   8.298   3.582   5.022
13841TIP3    H241401   8.405   3.634   4.929
13842TIP3   OH241402   8.544   2.638   5.413
13842TIP3    H141403   8.604   2.708   5.389
13842TIP3    H241404   8.569   2.615   5.503
13843TIP3   OH241405   8.842   2.922   6.201
13843TIP3    H141406   8.878   2.973   6.275
13843TIP3    H241407   8.901   2.848   6.192
13844TIP3   OH241408   8.710   2.329   5.499
13844TIP3    H141409   8.689   2.406   5.551
13844TIP3    H241410   8.779   2.359   5.440
13845TIP3   OH241411   8.133   3.646   5.063
13845TIP3    H141412   8.112   3.717   5.002
13845TIP3    H241413   8.124   3.685   5.150
13846TIP3   OH241414   8.226   2.357   5.308
13846TIP3    H141415   8.214   2.448   5.336
13846TIP3    H241416   8.320   2.342   5.315
13847TIP3   OH241417   9.437   2.735   6.147
13847TIP3    H141418   9.356   2.781   6.171
13847TIP3    H241419   9.469   2.781   6.070
13848TIP3   OH241420   9.103   3.037   5.555
13848TIP3    H141421   9.024   2.985   5.571
13848TIP3    H241422   9.170   2.997   5.611
13849TIP3   OH241423   7.873   3.240   5.043
13849TIP3    H141424   7.944   3.304   5.054
13849TIP3    H241425   7.905   3.180   4.976
13850TIP3   OH241426   7.791   2.541   5.174
13850TIP3    H141427   7.784   2.636   5.176
13850TIP3    H241428   7.800   2.520   5.081
13851TIP3   OH241429   9.075   4.004   5.481
13851TIP3    H141430   9.027   4.058   5.418
13851TIP3    H241431   9.164   4.038   5.478
13852TIP3   OH241432   8.175   2.260   6.040
13852TIP3    H141433   8.146   2.228   5.954
13852TIP3    H241434   8.169   2.184   6.098
13853TIP3   OH241435   7.701   3.506   5.441
13853TIP3    H141436   7.665   3.545   5.521
13853TIP3    H241437   7.657   3.552   5.370
13854TIP3   OH241438   7.909   4.054   6.499
13854TIP3    H141439   7.990   4.065   6.550
13854TIP3    H241440   7.907   3.961   6.478
13855TIP3   OH241441   8.367   3.950   6.550
13855TIP3    H141442   8.459   3.926   6.556
13855TIP3    H241443   8.334   3.900   6.475
13856TIP3   OH241444   8.325   3.562   4.666
13856TIP3    H141445   8.279   3.493   4.714
13856TIP3    H241446   8.397   3.517   4.623
13857TIP3   OH241447   8.979   3.897   6.299
13857TIP3    H141448   8.989   3.828   6.364
13857TIP3    H241449   9.045   3.962   6.322
13858TIP3   OH241450   8.737   3.613   4.600
13858TIP3    H141451   8.776   3.553   4.665
13858TIP3    H241452   8.801   3.614   4.529
13859TIP3   OH241453   8.002   3.452   6.694
13859TIP3    H141454   8.023   3.359   6.705
13859TIP3    H241455   7.915   3.452   6.655
13860TIP3   OH241456   7.993   3.053   4.884
13860TIP3    H141457   8.043   3.029   4.962
13860TIP3    H241458   8.059   3.068   4.817
13861TIP3   OH241459   8.628   3.534   6.468
13861TIP3    H141460   8.587   3.556   6.384
13861TIP3    H241461   8.675   3.452   6.450
13862TIP3   OH241462   8.539   3.271   4.721
13862TIP3    H141463   8.520   3.280   4.814
13862TIP3    H241464   8.526   3.178   4.702
13863TIP3   OH241465   9.060   3.549   6.038
13863TIP3    H141466   9.153   3.563   6.023
13863TIP3    H241467   9.023   3.637   6.044
13864TIP3   OH241468   8.117   3.196   6.698
13864TIP3    H141469   8.189   3.185   6.636
13864TIP3    H241470   8.159   3.215   6.782
13865TIP3   OH241471   8.162   2.994   5.097
13865TIP3    H141472   8.144   2.964   5.186
13865TIP3    H241473   8.207   2.920   5.056
13866TIP3   OH241474   8.447   3.046   6.336
13866TIP3    H141475   8.382   3.110   6.365
13866TIP3    H241476   8.506   3.095   6.279
13867TIP3   OH241477   8.291   2.808   4.934
13867TIP3    H141478   8.264   2.814   4.842
13867TIP3    H241479   8.387   2.818   4.930
13868TIP3   OH241480   8.995   3.454   6.472
13868TIP3    H141481   9.091   3.452   6.469
13868TIP3    H241482   8.971   3.377   6.523
13869TIP3   OH241483   9.058   3.118   4.632
13869TIP3    H141484   9.044   3.075   4.548
13869TIP3    H241485   9.019   3.205   4.622
13870TIP3   OH241486   8.584   2.846   6.465
13870TIP3    H141487   8.595   2.774   6.403
13870TIP3    H241488   8.544   2.915   6.413
13871TIP3   OH241489   8.596   2.646   6.262
13871TIP3    H141490   8.625   2.684   6.179
13871TIP3    H241491   8.505   2.621   6.246
13872TIP3   OH241492   8.613   3.195   6.170
13872TIP3    H141493   8.694   3.186   6.120
13872TIP3    H241494   8.557   3.249   6.115
13873TIP3   OH241495   8.473   2.923   6.710
13873TIP3    H141496   8.403   2.860   6.727
13873TIP3    H241497   8.502   2.903   6.621
13874TIP3   OH241498   8.716   2.420   6.367
13874TIP3    H141499   8.677   2.500   6.333
13874TIP3    H241500   8.650   2.353   6.352
13875TIP3   OH241501   8.839   2.898   6.569
13875TIP3    H141502   8.828   2.882   6.663
13875TIP3    H241503   8.753   2.881   6.531
13876TIP3   OH241504   9.068   2.826   6.428
13876TIP3    H141505   8.992   2.838   6.485
13876TIP3    H241506   9.141   2.809   6.487
13877TIP3   OH241507   9.280   2.765   6.591
13877TIP3    H141508   9.300   2.673   6.607
13877TIP3    H241509   9.289   2.806   6.677
13878TIP3   OH241510   8.301   2.707   6.772
13878TIP3    H141511   8.309   2.619   6.735
13878TIP3    H241512   8.341   2.700   6.859
13879TIP3   OH241513   8.778   2.389   6.631
13879TIP3    H141514   8.845   2.321   6.625
13879TIP3    H241515   8.751   2.406   6.541
13880TIP3   OH241516   8.876   2.601   6.779
13880TIP3    H141517   8.845   2.531   6.721
13880TIP3    H241518   8.806   2.666   6.778
13881TIP3   OH241519   8.126   3.852   4.879
13881TIP3    H141520   8.217   3.834   4.855
13881TIP3    H241521   8.090   3.900   4.805
13882TIP3   OH241522   7.600   3.247   5.058
13882TIP3    H141523   7.695   3.257   5.055
13882TIP3    H241524   7.584   3.161   5.020
13883TIP3   OH241525   7.502   3.818   5.523
13883TIP3    H141526   7.438   3.765   5.475
13883TIP3    H241527   7.547   3.755   5.580
13884TIP3   OH241528   7.649   3.646   5.687
13884TIP3    H141529   7.643   3.580   5.756
13884TIP3    H241530   7.701   3.717   5.725
13885TIP3   OH241531   9.323   4.114   5.502
13885TIP3    H141532   9.346   4.110   5.595
13885TIP3    H241533   9.356   4.199   5.473
13886TIP3   OH241534   9.349   4.099   5.783
13886TIP3    H141535   9.304   4.017   5.764
13886TIP3    H241536   9.401   4.081   5.861
13887TIP3   OH241537   9.408   3.827   6.320
13887TIP3    H141538   9.344   3.820   6.391
13887TIP3    H241539   9.444   3.916   6.329
13888TIP3   OH241540   9.174   3.363   5.053
13888TIP3    H141541   9.238   3.340   4.987
13888TIP3    H241542   9.217   3.343   5.136
13889TIP3   OH241543   9.358   3.183   5.201
13889TIP3    H141544   9.276   3.137   5.220
13889TIP3    H241545   9.398   3.195   5.287
13890TIP3   OH241546   9.430   3.533   5.550
13890TIP3    H141547   9.473   3.487   5.478
13890TIP3    H241548   9.407   3.618   5.515
13891TIP3   OH241549   9.219   3.853   5.771
13891TIP3    H141550   9.158   3.889   5.836
13891TIP3    H241551   9.163   3.810   5.707
13892TIP3   OH241552   9.244   3.054   4.821
13892TIP3    H141553   9.169   3.078   4.767
13892TIP3    H241554   9.281   3.137   4.849
13893TIP3   OH241555   9.111   2.700   4.757
13893TIP3    H141556   9.051   2.725   4.687
13893TIP3    H241557   9.128   2.607   4.743
13894TIP3   OH241558   9.165   3.008   5.286
13894TIP3    H141559   9.178   2.913   5.280
13894TIP3    H241560   9.159   3.026   5.379
13895TIP3   OH241561   7.820   3.087   6.071
13895TIP3    H141562   7.812   3.058   5.981
13895TIP3    H241563   7.914   3.082   6.089
13896TIP3   OH241564   9.444   3.423   6.195
13896TIP3    H141565   9.476   3.340   6.231
13896TIP3    H241566   9.484   3.428   6.108
13897TIP3   OH241567   9.576   3.207   6.305
13897TIP3    H141568   9.501   3.174   6.355
13897TIP3    H241569   9.643   3.140   6.317
13898TIP3   OH241570   9.137   2.430   4.713
13898TIP3    H141571   9.193   2.389   4.779
13898TIP3    H241572   9.048   2.401   4.735
13899TIP3   OH241573   9.167   2.735   5.191
13899TIP3    H141574   9.206   2.648   5.203
13899TIP3    H241575   9.204   2.767   5.109
13900TIP3   OH241576   9.312   2.883   5.686
13900TIP3    H141577   9.393   2.921   5.652
13900TIP3    H241578   9.296   2.930   5.768
13901TIP3   OH241579   9.299   3.025   5.913
13901TIP3    H141580   9.241   3.061   5.980
13901TIP3    H241581   9.381   3.072   5.924
13902TIP3   OH241582   8.039   2.764   6.704
13902TIP3    H141583   8.132   2.762   6.724
13902TIP3    H241584   8.004   2.685   6.746
13903TIP3   OH241585   9.269   2.482   5.230
13903TIP3    H141586   9.316   2.455   5.309
13903TIP3    H241587   9.204   2.412   5.217
13904TIP3   OH241588   8.017   2.487   6.071
13904TIP3    H141589   8.071   2.408   6.071
13904TIP3    H241590   8.078   2.557   6.050
13905TIP3   OH241591   7.793   2.750   6.116
13905TIP3    H141592   7.847   2.742   6.037
13905TIP3    H241593   7.821   2.832   6.156
13906TIP3   OH241594   9.676   2.812   6.271
13906TIP3    H141595   9.628   2.835   6.351
13906TIP3    H241596   9.609   2.777   6.212
13907TIP3   OH241597   9.384   2.365   4.864
13907TIP3    H141598   9.462   2.338   4.913
13907TIP3    H241599   9.396   2.459   4.849
13908TIP3   OH241600   7.777   2.236   5.603
13908TIP3    H141601   7.696   2.236   5.654
13908TIP3    H241602   7.764   2.303   5.536
13909TIP3   OH241603   8.947   3.972   5.148
13909TIP3    H141604   8.993   3.970   5.064
13909TIP3    H241605   8.974   4.054   5.188
13910TIP3   OH241606   8.011   2.298   6.443
13910TIP3    H141607   7.965   2.302   6.527
13910TIP3    H241608   7.959   2.353   6.384
13911TIP3   OH241609   8.028   3.779   6.507
13911TIP3    H141610   7.937   3.751   6.506
13911TIP3    H241611   8.054   3.774   6.599
13912TIP3   OH241612   8.250   3.818   6.066
13912TIP3    H141613   8.199   3.893   6.034
13912TIP3    H241614   8.335   3.827   6.023
13913TIP3   OH241615   8.643   4.051   6.204
13913TIP3    H141616   8.677   4.046   6.293
13913TIP3    H241617   8.709   4.103   6.156
13914TIP3   OH241618   8.843   4.198   6.081
13914TIP3    H141619   8.912   4.147   6.038
13914TIP3    H241620   8.891   4.260   6.136
13915TIP3   OH241621   9.558   2.501   6.211
13915TIP3    H141622   9.512   2.580   6.180
13915TIP3    H241623   9.514   2.429   6.166
13916TIP3   OH241624   7.912   4.042   6.119
13916TIP3    H141625   7.821   4.059   6.093
13916TIP3    H241626   7.933   4.113   6.178
13917TIP3   OH241627   8.138   4.047   5.960
13917TIP3    H141628   8.056   4.051   6.009
13917TIP3    H241629   8.114   4.074   5.871
13918TIP3   OH241630   8.545   4.069   5.760
13918TIP3    H141631   8.471   4.082   5.700
13918TIP3    H241632   8.559   4.155   5.801
13919TIP3   OH241633   8.800   3.977   5.792
13919TIP3    H141634   8.710   4.007   5.781
13919TIP3    H241635   8.854   4.047   5.755
13920TIP3   OH241636   8.995   4.152   5.702
13920TIP3    H141637   8.999   4.244   5.675
13920TIP3    H241638   9.020   4.103   5.624
13921TIP3   OH241639   7.819   3.830   5.823
13921TIP3    H141640   7.845   3.811   5.913
13921TIP3    H241641   7.892   3.800   5.770
13922TIP3   OH241642   8.026   3.715   5.687
13922TIP3    H141643   8.037   3.631   5.731
13922TIP3    H241644   8.111   3.757   5.695
13923TIP3   OH241645   8.292   3.800   5.717
13923TIP3    H141646   8.313   3.708   5.704
13923TIP3    H241647   8.346   3.827   5.790
13924TIP3   OH241648   8.843   2.446   5.803
13924TIP3    H141649   8.801   2.378   5.855
13924TIP3    H241650   8.912   2.401   5.755
13925TIP3   OH241651   9.409   2.357   5.702
13925TIP3    H141652   9.405   2.404   5.618
13925TIP3    H241653   9.352   2.408   5.760
13926TIP3   OH241654   9.439   2.430   5.439
13926TIP3    H141655   9.526   2.395   5.417
13926TIP3    H241656   9.451   2.525   5.435
13927TIP3   OH241657   8.088   2.155   5.799
13927TIP3    H141658   8.000   2.120   5.810
13927TIP3    H241659   8.144   2.078   5.792
13928TIP3   OH241660   7.887   2.044   5.433
13928TIP3    H141661   7.926   2.096   5.362
13928TIP3    H241662   7.857   2.110   5.495
13929TIP3   OH241663   8.569   2.194   5.701
13929TIP3    H141664   8.618   2.239   5.631
13929TIP3    H241665   8.611   2.223   5.782
13930TIP3   OH241666   9.051   2.311   5.685
13930TIP3    H141667   9.108   2.293   5.611
13930TIP3    H241668   9.066   2.238   5.746
13931TIP3   OH241669   9.093   2.273   5.228
13931TIP3    H141670   9.015   2.321   5.257
13931TIP3    H241671   9.086   2.188   5.274
13932TIP3   OH241672   7.581   3.633   5.231
13932TIP3    H141673   7.497   3.600   5.198
13932TIP3    H241674   7.590   3.720   5.191
13933TIP3   OH241675   8.017   2.188   5.216
13933TIP3    H141676   8.064   2.129   5.157
13933TIP3    H241677   8.085   2.244   5.253
13934TIP3   OH241678   8.501   2.386   5.315
13934TIP3    H141679   8.560   2.333   5.368
13934TIP3    H241680   8.516   2.476   5.344
13935TIP3   OH241681   8.384   3.784   4.814
13935TIP3    H141682   8.464   3.818   4.776
13935TIP3    H241683   8.356   3.714   4.755
13936TIP3   OH241684   9.072   3.935   4.903
13936TIP3    H141685   9.071   3.839   4.903
13936TIP3    H241686   9.024   3.960   4.824
13937TIP3   OH241687   8.318   2.438   6.678
13937TIP3    H141688   8.285   2.371   6.738
13937TIP3    H241689   8.411   2.447   6.702
13938TIP3   OH241690   8.564   2.444   6.804
13938TIP3    H141691   8.641   2.423   6.751
13938TIP3    H241692   8.559   2.374   6.868
13939TIP3   OH241693   7.696   3.628   4.863
13939TIP3    H141694   7.700   3.650   4.956
13939TIP3    H241695   7.778   3.580   4.847
13940TIP3   OH241696   9.374   2.501   6.610
13940TIP3    H141697   9.397   2.475   6.699
13940TIP3    H241698   9.458   2.512   6.566
13941TIP3   OH241699   9.231   4.081   6.142
13941TIP3    H141700   9.166   4.057   6.075
13941TIP3    H241701   9.244   4.175   6.128
13942TIP3   OH241702   9.449   2.919   5.148
13942TIP3    H141703   9.411   3.006   5.159
13942TIP3    H241704   9.392   2.875   5.085
13943TIP3   OH241705   9.667   3.184   5.317
13943TIP3    H141706   9.652   3.094   5.347
13943TIP3    H241707   9.642   3.183   5.224
13944TIP3   OH241708   9.539   3.525   4.850
13944TIP3    H141709   9.477   3.505   4.920
13944TIP3    H241710   9.613   3.566   4.895
13945TIP3   OH241711   9.611   3.622   5.742
13945TIP3    H141712   9.541   3.589   5.686
13945TIP3    H241713   9.672   3.549   5.750
13946TIP3   OH241714   9.385   3.799   5.473
13946TIP3    H141715   9.438   3.857   5.527
13946TIP3    H241716   9.298   3.800   5.514
13947TIP3   OH241717   9.655   3.986   4.995
13947TIP3    H141718   9.736   3.949   5.030
13947TIP3    H241719   9.598   3.911   4.979
13948TIP3   OH241720   9.503   2.690   5.384
13948TIP3    H141721   9.543   2.777   5.394
13948TIP3    H241722   9.495   2.678   5.290
13949TIP3   OH241723  -0.006   3.226   6.041
13949TIP3    H141724   0.080   3.268   6.032
13949TIP3    H241725  -0.069   3.297   6.031
13950TIP3   OH241726   9.518   3.190   4.665
13950TIP3    H141727   9.563   3.125   4.719
13950TIP3    H241728   9.459   3.139   4.609
13951TIP3   OH241729   9.570   3.960   5.598
13951TIP3    H141730   9.647   3.904   5.610
13951TIP3    H241731   9.589   4.039   5.648
13952TIP3   OH241732   9.440   3.813   4.975
13952TIP3    H141733   9.389   3.866   5.036
13952TIP3    H241734   9.399   3.827   4.890
13953TIP3   OH241735   9.687   4.348   5.980
13953TIP3    H141736   9.749   4.355   6.053
13953TIP3    H241737   9.668   4.255   5.974
13954TIP3   OH241738   0.023   3.604   5.992
13954TIP3    H141739   0.082   3.538   6.029
13954TIP3    H241740  -0.002   3.658   6.067
13955TIP3   OH241741   9.272   3.478   4.653
13955TIP3    H141742   9.346   3.535   4.633
13955TIP3    H241743   9.268   3.416   4.581
13956TIP3   OH241744   9.269   4.089   5.009
13956TIP3    H141745   9.207   4.038   4.957
13956TIP3    H241746   9.287   4.035   5.086
13957TIP3   OH241747   9.355   3.932   5.213
13957TIP3    H141748   9.320   3.881   5.285
13957TIP3    H241749   9.421   3.988   5.253
13958TIP3   OH241750   9.718   3.401   5.481
13958TIP3    H141751   9.688   3.335   5.419
13958TIP3    H241752   9.806   3.425   5.449
13959TIP3   OH241753   9.812   3.048   6.256
13959TIP3    H141754   9.811   3.099   6.175
13959TIP3    H241755   9.771   2.965   6.233
13960TIP3   OH241756   9.571   2.966   5.638
13960TIP3    H141757   9.646   2.914   5.666
13960TIP3    H241758   9.575   3.046   5.690
13961TIP3   OH241759   9.498   2.591   5.125
13961TIP3    H141760   9.416   2.545   5.145
13961TIP3    H241761   9.566   2.524   5.132
13962TIP3   OH241762   0.079   4.088   6.123
13962TIP3    H141763   0.156   4.101   6.068
13962TIP3    H241764   0.096   4.006   6.169
13963TIP3   OH241765   9.672   4.353   5.499
13963TIP3    H141766   9.579   4.376   5.492
13963TIP3    H241767   9.676   4.296   5.577
13964TIP3   OH241768   0.110   4.254   5.404
13964TIP3    H141769   0.022   4.279   5.433
13964TIP3    H241770   0.131   4.317   5.335
13965TIP3   OH241771   9.569   4.061   5.337
13965TIP3    H141772   9.537   4.048   5.426
13965TIP3    H241773   9.657   4.022   5.336
13966TIP3   OH241774   0.030   3.839   5.151
13966TIP3    H141775  -0.035   3.809   5.215
13966TIP3    H241776   0.080   3.906   5.198
13967TIP3   OH241777   9.327   3.853   4.728
13967TIP3    H141778   9.244   3.863   4.682
13967TIP3    H241779   9.377   3.932   4.705
13968TIP3   OH241780   9.472   3.914   4.423
13968TIP3    H141781   9.489   4.001   4.459
13968TIP3    H241782   9.548   3.862   4.447
13969TIP3   OH241783   1.251   3.986   7.033
13969TIP3    H141784   1.207   4.070   7.021
13969TIP3    H241785   1.184   3.921   7.008
13970TIP3   OH241786   1.249   3.974   7.461
13970TIP3    H141787   1.304   3.960   7.538
13970TIP3    H241788   1.206   3.890   7.446
13971TIP3   OH241789   0.592   3.868   7.832
13971TIP3    H141790   0.615   3.792   7.887
13971TIP3    H241791   0.633   3.942   7.876
13972TIP3   OH241792   1.514   4.284   7.127
13972TIP3    H141793   1.499   4.217   7.194
13972TIP3    H241794   1.532   4.363   7.176
13973TIP3   OH241795   0.566   4.249   7.422
13973TIP3    H141796   0.548   4.233   7.514
13973TIP3    H241797   0.662   4.249   7.416
13974TIP3   OH241798   0.050   3.507   7.264
13974TIP3    H141799   0.056   3.581   7.325
13974TIP3    H241800   0.021   3.434   7.318
13975TIP3   OH241801   0.369   3.816   7.528
13975TIP3    H141802   0.400   3.732   7.563
13975TIP3    H241803   0.359   3.799   7.434
13976TIP3   OH241804   1.165   4.735   7.134
13976TIP3    H141805   1.182   4.645   7.108
13976TIP3    H241806   1.144   4.730   7.227
13977TIP3   OH241807   1.070   4.191   7.467
13977TIP3    H141808   1.117   4.110   7.445
13977TIP3    H241809   1.135   4.247   7.507
13978TIP3   OH241810   2.083   3.522   7.481
13978TIP3    H141811   2.099   3.607   7.523
13978TIP3    H241812   2.109   3.536   7.390
13979TIP3   OH241813   1.463   3.689   7.503
13979TIP3    H141814   1.491   3.602   7.531
13979TIP3    H241815   1.420   3.675   7.419
13980TIP3   OH241816   0.829   3.353   7.457
13980TIP3    H141817   0.767   3.408   7.409
13980TIP3    H241818   0.799   3.264   7.441
13981TIP3   OH241819   1.509   3.443   7.098
13981TIP3    H141820   1.572   3.438   7.169
13981TIP3    H241821   1.559   3.479   7.024
13982TIP3   OH241822   0.436   3.564   7.633
13982TIP3    H141823   0.525   3.531   7.644
13982TIP3    H241824   0.402   3.517   7.557
13983TIP3   OH241825   2.138   3.746   7.641
13983TIP3    H141826   2.047   3.775   7.642
13983TIP3    H241827   2.175   3.781   7.722
13984TIP3   OH241828   0.810   3.345   7.895
13984TIP3    H141829   0.756   3.386   7.828
13984TIP3    H241830   0.761   3.357   7.976
13985TIP3   OH241831   1.082   4.182   6.940
13985TIP3    H141832   1.063   4.164   6.848
13985TIP3    H241833   1.051   4.272   6.954
13986TIP3   OH241834   0.891   4.105   7.665
13986TIP3    H141835   0.838   4.176   7.701
13986TIP3    H241836   0.939   4.145   7.592
13987TIP3   OH241837   1.666   3.466   7.320
13987TIP3    H141838   1.619   3.448   7.401
13987TIP3    H241839   1.720   3.543   7.341
13988TIP3   OH241840   0.694   3.464   7.677
13988TIP3    H141841   0.742   3.544   7.696
13988TIP3    H241842   0.743   3.423   7.607
13989TIP3   OH241843   0.747   4.314   7.776
13989TIP3    H141844   0.733   4.406   7.751
13989TIP3    H241845   0.666   4.288   7.818
13990TIP3   OH241846   0.152   3.961   7.020
13990TIP3    H141847   0.070   3.959   6.970
13990TIP3    H241848   0.173   4.054   7.028
13991TIP3   OH241849   1.547   4.530   7.272
13991TIP3    H141850   1.462   4.517   7.314
13991TIP3    H241851   1.539   4.614   7.228
13992TIP3   OH241852   1.883   3.414   7.646
13992TIP3    H141853   1.800   3.439   7.605
13992TIP3    H241854   1.949   3.441   7.582
13993TIP3   OH241855   1.140   3.045   7.623
13993TIP3    H141856   1.130   2.953   7.645
13993TIP3    H241857   1.062   3.087   7.660
13994TIP3   OH241858   1.244   4.544   6.916
13994TIP3    H141859   1.301   4.468   6.905
13994TIP3    H241860   1.302   4.619   6.900
13995TIP3   OH241861   1.415   4.336   6.873
13995TIP3    H141862   1.421   4.256   6.821
13995TIP3    H241863   1.451   4.312   6.958
13996TIP3   OH241864   1.785   4.420   7.614
13996TIP3    H141865   1.765   4.346   7.558
13996TIP3    H241866   1.769   4.497   7.559
13997TIP3   OH241867   1.082   3.815   6.893
13997TIP3    H141868   1.001   3.866   6.885
13997TIP3    H241869   1.122   3.820   6.807
13998TIP3   OH241870   1.042   3.632   6.570
13998TIP3    H141871   1.105   3.680   6.623
13998TIP3    H241872   1.093   3.564   6.527
13999TIP3   OH241873   1.957   4.083   7.487
13999TIP3    H141874   1.872   4.126   7.486
13999TIP3    H241875   1.991   4.095   7.399
14000TIP3   OH241876   1.434   3.909   6.847
14000TIP3    H141877   1.379   3.939   6.919
14000TIP3    H241878   1.516   3.883   6.888
14001TIP3   OH241879   1.655   3.946   7.795
14001TIP3    H141880   1.653   4.028   7.843
14001TIP3    H241881   1.572   3.943   7.748
14002TIP3   OH241882   0.838   4.309   7.364
14002TIP3    H141883   0.841   4.301   7.269
14002TIP3    H241884   0.921   4.273   7.394
14003TIP3   OH241885   1.318   4.508   7.416
14003TIP3    H141886   1.308   4.592   7.461
14003TIP3    H241887   1.298   4.443   7.483
14004TIP3   OH241888   0.940   4.424   7.943
14004TIP3    H141889   0.877   4.481   7.986
14004TIP3    H241890   0.887   4.369   7.885
14005TIP3   OH241891   1.263   3.770   6.680
14005TIP3    H141892   1.323   3.827   6.728
14005TIP3    H241893   1.294   3.772   6.590
14006TIP3   OH241894   3.961   8.641   0.044
14006TIP3    H141895   3.975   8.724   0.088
14006TIP3    H241896   3.873   8.614   0.070
14007TIP3   OH241897   0.993   4.444   6.955
14007TIP3    H141898   1.080   4.481   6.950
14007TIP3    H241899   0.940   4.497   6.895
14008TIP3   OH241900   4.006   9.211   0.025
14008TIP3    H141901   3.979   9.220  -0.066
14008TIP3    H241902   3.925   9.207   0.075
14009TIP3   OH241903   1.765   2.998   6.741
14009TIP3    H141904   1.690   3.020   6.796
14009TIP3    H241905   1.775   3.074   6.683
14010TIP3   OH241906   0.531   3.777   7.089
14010TIP3    H141907   0.494   3.817   7.010
14010TIP3    H241908   0.468   3.711   7.114
14011TIP3   OH241909   1.597   4.373   6.297
14011TIP3    H141910   1.589   4.466   6.276
14011TIP3    H241911   1.687   4.351   6.273
14012TIP3   OH241912   3.584   8.790   0.064
14012TIP3    H141913   3.520   8.781  -0.006
14012TIP3    H241914   3.614   8.701   0.081
14013TIP3   OH241915   2.017   4.787   7.688
14013TIP3    H141916   2.022   4.692   7.701
14013TIP3    H241917   1.939   4.814   7.736
14014TIP3   OH241918   1.128   4.579   7.819
14014TIP3    H141919   1.115   4.666   7.856
14014TIP3    H241920   1.063   4.524   7.862
14015TIP3   OH241921   0.884   4.647   6.778
14015TIP3    H141922   0.807   4.657   6.722
14015TIP3    H241923   0.863   4.698   6.856
14016TIP3   OH241924   0.388   4.409   7.146
14016TIP3    H141925   0.410   4.464   7.222
14016TIP3    H241926   0.382   4.471   7.073
14017TIP3   OH241927   1.114   4.602   6.393
14017TIP3    H141928   1.165   4.526   6.365
14017TIP3    H241929   1.136   4.612   6.486
14018TIP3   OH241930   1.135   4.640   6.668
14018TIP3    H141931   1.045   4.645   6.701
14018TIP3    H241932   1.184   4.600   6.740
14019TIP3   OH241933   1.901   3.910   7.956
14019TIP3    H141934   1.814   3.899   7.917
14019TIP3    H241935   1.921   3.824   7.993
14020TIP3   OH241936   0.525   4.301   7.948
14020TIP3    H141937   0.592   4.302   8.016
14020TIP3    H241938   0.449   4.262   7.990
14021TIP3   OH241939   0.903   3.142   7.729
14021TIP3    H141940   0.816   3.108   7.707
14021TIP3    H241941   0.886   3.221   7.781
14022TIP3   OH241942   1.459   3.268   7.953
14022TIP3    H141943   1.534   3.243   8.006
14022TIP3    H241944   1.383   3.242   8.005
14023TIP3   OH241945   1.662   3.685   7.881
14023TIP3    H141946   1.614   3.679   7.964
14023TIP3    H241947   1.647   3.775   7.851
14024TIP3   OH241948   1.342   3.744   6.419
14024TIP3    H141949   1.292   3.751   6.338
14024TIP3    H241950   1.424   3.789   6.400
14025TIP3   OH241951   1.042   3.176   6.746
14025TIP3    H141952   1.006   3.182   6.834
14025TIP3    H241953   1.004   3.095   6.710
14026TIP3   OH241954   0.830   3.691   7.765
14026TIP3    H141955   0.793   3.687   7.853
14026TIP3    H241956   0.802   3.776   7.731
14027TIP3   OH241957   0.715   3.635   7.259
14027TIP3    H141958   0.663   3.588   7.324
14027TIP3    H241959   0.739   3.568   7.195
14028TIP3   OH241960   1.203   3.614   7.028
14028TIP3    H141961   1.157   3.687   6.987
14028TIP3    H241962   1.261   3.582   6.959
14029TIP3   OH241963   4.655   8.527   0.058
14029TIP3    H141964   4.623   8.474   0.131
14029TIP3    H241965   4.745   8.548   0.080
14030TIP3   OH241966   1.364   3.629   7.254
14030TIP3    H141967   1.296   3.650   7.190
14030TIP3    H241968   1.412   3.555   7.215
14031TIP3   OH241969   3.954   8.294   0.000
14031TIP3    H141970   3.974   8.339   0.083
14031TIP3    H241971   3.938   8.204   0.026
14032TIP3   OH241972   0.707   3.170   6.711
14032TIP3    H141973   0.693   3.176   6.805
14032TIP3    H241974   0.636   3.221   6.673
14033TIP3   OH241975   0.257   3.233   7.545
14033TIP3    H141976   0.318   3.248   7.618
14033TIP3    H241977   0.301   3.167   7.491
14034TIP3   OH241978   0.298   3.347   7.131
14034TIP3    H141979   0.366   3.326   7.068
14034TIP3    H241980   0.218   3.356   7.079
14035TIP3   OH241981   1.405   3.888   7.679
14035TIP3    H141982   1.433   3.821   7.616
14035TIP3    H241983   1.357   3.839   7.746
14036TIP3   OH241984   1.089   3.332   7.345
14036TIP3    H141985   1.011   3.345   7.400
14036TIP3    H241986   1.161   3.322   7.407
14037TIP3   OH241987   0.572   3.428   7.373
14037TIP3    H141988   0.478   3.445   7.371
14037TIP3    H241989   0.580   3.334   7.355
14038TIP3   OH241990   0.745   3.435   7.075
14038TIP3    H141991   0.840   3.433   7.063
14038TIP3    H241992   0.710   3.453   6.987
14039TIP3   OH241993   1.518   3.420   7.549
14039TIP3    H141994   1.503   3.440   7.642
14039TIP3    H241995   1.448   3.358   7.526
14040TIP3   OH241996   0.617   3.474   6.839
14040TIP3    H141997   0.537   3.424   6.826
14040TIP3    H241998   0.651   3.488   6.750
14041TIP3   OH241999   1.727   5.134   7.783
14041TIP3    H142000   1.726   5.148   7.688
14041TIP3    H242001   1.807   5.177   7.813
14042TIP3   OH242002   3.950   8.893   0.178
14042TIP3    H142003   4.023   8.893   0.240
14042TIP3    H242004   3.883   8.946   0.220
14043TIP3   OH242005   1.147   3.715   7.456
14043TIP3    H142006   1.200   3.652   7.407
14043TIP3    H242007   1.128   3.671   7.539
14044TIP3   OH242008   0.663   3.157   7.346
14044TIP3    H142009   0.620   3.085   7.394
14044TIP3    H242010   0.712   3.113   7.277
14045TIP3   OH242011   1.094   3.613   7.714
14045TIP3    H142012   1.010   3.656   7.730
14045TIP3    H242013   1.157   3.665   7.763
14046TIP3   OH242014   0.847   3.950   6.883
14046TIP3    H142015   0.775   3.895   6.853
14046TIP3    H242016   0.805   4.024   6.927
14047TIP3   OH242017   1.721   4.218   7.439
14047TIP3    H142018   1.757   4.267   7.365
14047TIP3    H242019   1.643   4.176   7.404
14048TIP3   OH242020   1.296   3.276   6.745
14048TIP3    H142021   1.202   3.257   6.743
14048TIP3    H242022   1.300   3.371   6.758
14049TIP3   OH242023   1.250   4.298   7.874
14049TIP3    H142024   1.305   4.275   7.949
14049TIP3    H242025   1.218   4.386   7.894
14050TIP3   OH242026   1.360   3.539   6.810
14050TIP3    H142027   1.455   3.544   6.822
14050TIP3    H242028   1.338   3.617   6.759
14051TIP3   OH242029   0.979   4.118   6.680
14051TIP3    H142030   0.951   4.208   6.667
14051TIP3    H242031   0.906   4.077   6.726
14052TIP3   OH242032   3.700   8.543   0.100
14052TIP3    H142033   3.738   8.490   0.171
14052TIP3    H242034   3.654   8.479   0.045
14053TIP3   OH242035   4.419   8.672   0.110
14053TIP3    H142036   4.353   8.613   0.075
14053TIP3    H242037   4.502   8.638   0.076
14054TIP3   OH242038   1.395   4.589   7.741
14054TIP3    H142039   1.301   4.575   7.746
14054TIP3    H242040   1.418   4.631   7.824
14055TIP3   OH242041   1.767   3.630   6.626
14055TIP3    H142042   1.710   3.585   6.564
14055TIP3    H242043   1.773   3.720   6.593
14056TIP3   OH242044   2.028   4.509   7.708
14056TIP3    H142045   1.934   4.491   7.705
14056TIP3    H242046   2.061   4.477   7.624
14057TIP3   OH242047   1.519   4.451   6.562
14057TIP3    H142048   1.486   4.386   6.624
14057TIP3    H242049   1.536   4.402   6.481
14058TIP3   OH242050   1.497   4.082   7.331
14058TIP3    H142051   1.409   4.062   7.361
14058TIP3    H242052   1.530   3.999   7.295
14059TIP3   OH242053   0.649   4.264   7.123
14059TIP3    H142054   0.667   4.344   7.073
14059TIP3    H242055   0.566   4.281   7.168
14060TIP3   OH242056   0.244   3.594   6.822
14060TIP3    H142057   0.293   3.676   6.818
14060TIP3    H242058   0.154   3.621   6.838
14061TIP3   OH242059   0.727   4.000   7.169
14061TIP3    H142060   0.807   4.045   7.197
14061TIP3    H242061   0.669   4.071   7.140
14062TIP3   OH242062   0.952   4.640   7.605
14062TIP3    H142063   0.965   4.735   7.603
14062TIP3    H242064   1.028   4.606   7.653
14063TIP3   OH242065   0.639   4.515   7.004
14063TIP3    H142066   0.557   4.549   6.970
14063TIP3    H242067   0.699   4.589   7.003
14064TIP3   OH242068   1.288   4.301   7.602
14064TIP3    H142069   1.268   4.298   7.696
14064TIP3    H242070   1.379   4.270   7.597
14065TIP3   OH242071   1.288   4.180   6.460
14065TIP3    H142072   1.329   4.164   6.545
14065TIP3    H242073   1.203   4.136   6.465
14066TIP3   OH242074   1.545   4.810   7.634
14066TIP3    H142075   1.474   4.746   7.639
14066TIP3    H242076   1.522   4.866   7.561
14067TIP3   OH242077   1.584   4.645   6.250
14067TIP3    H142078   1.587   4.701   6.172
14067TIP3    H242079   1.518   4.685   6.306
14068TIP3   OH242080   3.921   8.043   0.107
14068TIP3    H142081   3.826   8.036   0.107
14068TIP3    H242082   3.945   8.053   0.199
14069TIP3   OH242083   1.456   4.127   6.679
14069TIP3    H142084   1.440   4.051   6.736
14069TIP3    H242085   1.550   4.124   6.660
14070TIP3   OH242086   0.409   4.530   7.825
14070TIP3    H142087   0.466   4.467   7.869
14070TIP3    H242088   0.322   4.491   7.828
14071TIP3   OH242089   0.661   4.134   6.443
14071TIP3    H142090   0.664   4.042   6.416
14071TIP3    H242091   0.675   4.132   6.538
14072TIP3   OH242092   0.683   4.137   6.714
14072TIP3    H142093   0.600   4.101   6.745
14072TIP3    H242094   0.674   4.232   6.727
14073TIP3   OH242095   0.356   3.836   6.889
14073TIP3    H142096   0.281   3.875   6.934
14073TIP3    H242097   0.392   3.906   6.835
14074TIP3   OH242098   1.472   3.497   7.806
14074TIP3    H142099   1.547   3.546   7.839
14074TIP3    H242100   1.466   3.421   7.863
14075TIP3   OH242101   1.360   3.225   7.011
14075TIP3    H142102   1.340   3.245   6.920
14075TIP3    H242103   1.404   3.304   7.044
14076TIP3   OH242104   0.890   4.373   6.652
14076TIP3    H142105   0.805   4.383   6.695
14076TIP3    H242106   0.906   4.458   6.611
14077TIP3   OH242107   1.019   3.425   7.096
14077TIP3    H142108   1.082   3.492   7.070
14077TIP3    H242109   1.044   3.403   7.186
14078TIP3   OH242110   1.298   3.717   7.871
14078TIP3    H142111   1.334   3.768   7.943
14078TIP3    H242112   1.354   3.639   7.867
14079TIP3   OH242113   1.172   3.119   7.182
14079TIP3    H142114   1.153   3.195   7.236
14079TIP3    H242115   1.244   3.148   7.125
14080TIP3   OH242116   0.633   4.403   6.749
14080TIP3    H142117   0.615   4.485   6.703
14080TIP3    H242118   0.623   4.425   6.841
14081TIP3   OH242119   0.681   3.161   6.989
14081TIP3    H142120   0.666   3.244   7.033
14081TIP3    H242121   0.776   3.147   6.995
14082TIP3   OH242122   1.921   3.603   7.858
14082TIP3    H142123   1.831   3.629   7.877
14082TIP3    H242124   1.914   3.543   7.783
14083TIP3   OH242125   1.586   3.821   7.247
14083TIP3    H142126   1.509   3.766   7.262
14083TIP3    H242127   1.653   3.784   7.305
14084TIP3   OH242128   0.432   4.086   6.795
14084TIP3    H142129   0.394   4.170   6.821
14084TIP3    H242130   0.373   4.055   6.725
14085TIP3   OH242131   0.378   3.325   6.861
14085TIP3    H142132   0.300   3.380   6.861
14085TIP3    H242133   0.354   3.248   6.810
14086TIP3   OH242134   1.564   4.799   7.194
14086TIP3    H142135   1.522   4.850   7.125
14086TIP3    H242136   1.658   4.811   7.179
14087TIP3   OH242137   0.643   3.052   7.711
14087TIP3    H142138   0.620   3.019   7.624
14087TIP3    H242139   0.624   2.978   7.770
14088TIP3   OH242140   0.209   4.224   7.062
14088TIP3    H142141   0.151   4.225   7.139
14088TIP3    H242142   0.284   4.278   7.088
14089TIP3   OH242143   7.381   0.134   0.224
14089TIP3    H142144   7.471   0.103   0.234
14089TIP3    H242145   7.345   0.081   0.154
14090TIP3   OH242146   0.799   4.344   6.337
14090TIP3    H142147   0.751   4.274   6.382
14090TIP3    H242148   0.878   4.301   6.304
14091TIP3   OH242149   7.977   0.086  -0.018
14091TIP3    H142150   7.988   0.013   0.043
14091TIP3    H242151   8.052   0.142  -0.002
14092TIP3   OH242152   1.239   4.384   6.282
14092TIP3    H142153   1.272   4.321   6.345
14092TIP3    H242154   1.299   4.377   6.207
14093TIP3   OH242155   3.682   8.909   0.298
14093TIP3    H142156   3.721   8.827   0.328
14093TIP3    H242157   3.637   8.885   0.217
14094TIP3   OH242158   0.507   3.844   6.607
14094TIP3    H142159   0.557   3.824   6.686
14094TIP3    H242160   0.573   3.852   6.538
14095TIP3   OH242161   4.338   8.934   0.155
14095TIP3    H142162   4.299   8.961   0.071
14095TIP3    H242163   4.377   8.849   0.137
14096TIP3   OH242164   1.038   4.056   6.419
14096TIP3    H142165   1.007   4.068   6.508
14096TIP3    H242166   1.010   3.967   6.396
14097TIP3   OH242167   1.553   4.359   7.752
14097TIP3    H142168   1.633   4.390   7.709
14097TIP3    H242169   1.494   4.434   7.747
14098TIP3   OH242170   3.863   8.408   0.283
14098TIP3    H142171   3.953   8.421   0.254
14098TIP3    H242172   3.869   8.401   0.378
14099TIP3   OH242173   0.666   3.755   6.816
14099TIP3    H142174   0.621   3.687   6.866
14099TIP3    H242175   0.716   3.707   6.750
14100TIP3   OH242176   0.952   3.890   8.004
14100TIP3    H142177   0.871   3.941   7.998
14100TIP3    H242178   0.994   3.903   7.919
14101TIP3   OH242179   0.772   3.589   6.626
14101TIP3    H142180   0.741   3.589   6.536
14101TIP3    H242181   0.867   3.598   6.619
14102TIP3   OH242182   4.692   8.863   0.089
14102TIP3    H142183   4.767   8.828   0.041
14102TIP3    H242184   4.692   8.814   0.172
14103TIP3   OH242185   1.556   3.882   6.308
14103TIP3    H142186   1.543   3.842   6.221
14103TIP3    H242187   1.533   3.974   6.296
14104TIP3   OH242188   4.348   8.248   0.103
14104TIP3    H142189   4.364   8.166   0.055
14104TIP3    H242190   4.341   8.315   0.035
14105TIP3   OH242191   1.073   3.419   7.914
14105TIP3    H142192   1.091   3.470   7.835
14105TIP3    H242193   0.980   3.398   7.909
14106TIP3   OH242194   1.082   3.947   7.776
14106TIP3    H142195   1.165   3.991   7.759
14106TIP3    H242196   1.017   3.999   7.730
14107TIP3   OH242197   4.901   8.580   0.169
14107TIP3    H142198   4.932   8.503   0.217
14107TIP3    H242199   4.975   8.641   0.172
14108TIP3   OH242200   1.674   4.194   7.930
14108TIP3    H142201   1.623   4.252   7.873
14108TIP3    H242202   1.764   4.203   7.900
14109TIP3   OH242203   4.127   8.382   0.222
14109TIP3    H142204   4.161   8.294   0.211
14109TIP3    H242205   4.173   8.434   0.155
14110TIP3   OH242206   1.182   3.179   7.990
14110TIP3    H142207   1.149   3.264   7.962
14110TIP3    H242208   1.106   3.121   7.983
14111TIP3   OH242209   4.547   8.375   0.254
14111TIP3    H142210   4.608   8.312   0.293
14111TIP3    H242211   4.481   8.321   0.211
14112TIP3   OH242212   4.785   8.234   0.097
14112TIP3    H142213   4.722   8.177   0.141
14112TIP3    H242214   4.869   8.212   0.137
14113TIP3   OH242215   5.050   8.202   0.182
14113TIP3    H142216   5.061   8.113   0.217
14113TIP3    H242217   5.031   8.255   0.260
14114TIP3   OH242218   4.012   8.158   0.372
14114TIP3    H142219   4.019   8.067   0.401
14114TIP3    H242220   3.985   8.205   0.451
14115TIP3   OH242221   4.530   7.810   0.243
14115TIP3    H142222   4.606   7.752   0.246
14115TIP3    H242223   4.497   7.801   0.153
14116TIP3   OH242224   4.604   8.077   0.231
14116TIP3    H142225   4.604   7.982   0.239
14116TIP3    H242226   4.535   8.106   0.290
14117TIP3   OH242227   0.648   4.652   6.625
14117TIP3    H142228   0.709   4.640   6.552
14117TIP3    H242229   0.567   4.683   6.584
14118TIP3   OH242230   9.751   4.009   6.823
14118TIP3    H142231   9.797   4.089   6.798
14118TIP3    H242232   9.660   4.025   6.796
14119TIP3   OH242233   1.835   4.850   7.188
14119TIP3    H142234   1.854   4.871   7.280
14119TIP3    H242235   1.885   4.915   7.139
14120TIP3   OH242236   1.860   4.874   7.467
14120TIP3    H142237   1.809   4.793   7.464
14120TIP3    H242238   1.928   4.858   7.532
14121TIP3   OH242239   5.170   9.204   0.014
14121TIP3    H142240   5.092   9.214   0.069
14121TIP3    H242241   5.220   9.285   0.029
14122TIP3   OH242242   1.732   4.098   6.646
14122TIP3    H142243   1.790   4.168   6.617
14122TIP3    H242244   1.778   4.058   6.719
14123TIP3   OH242245   1.864   3.955   6.845
14123TIP3    H142246   1.798   3.917   6.903
14123TIP3    H242247   1.930   3.991   6.904
14124TIP3   OH242248   1.905   4.360   7.283
14124TIP3    H142249   1.958   4.291   7.241
14124TIP3    H242250   1.908   4.433   7.221
14125TIP3   OH242251   1.709   4.642   7.469
14125TIP3    H142252   1.641   4.682   7.523
14125TIP3    H242253   1.661   4.601   7.397
14126TIP3   OH242254   1.763   3.871   6.491
14126TIP3    H142255   1.692   3.869   6.427
14126TIP3    H242256   1.747   3.949   6.543
14127TIP3   OH242257   1.613   3.519   6.428
14127TIP3    H142258   1.566   3.552   6.352
14127TIP3    H242259   1.609   3.424   6.420
14128TIP3   OH242260   1.660   3.814   6.980
14128TIP3    H142261   1.665   3.719   6.967
14128TIP3    H242262   1.640   3.824   7.073
14129TIP3   OH242263   0.319   3.842   7.822
14129TIP3    H142264   0.295   3.860   7.731
14129TIP3    H242265   0.414   3.854   7.824
14130TIP3   OH242266   1.933   4.230   7.836
14130TIP3    H142267   1.999   4.162   7.823
14130TIP3    H242268   1.946   4.291   7.763
14131TIP3   OH242269   2.113   4.021   7.828
14131TIP3    H142270   2.038   3.980   7.871
14131TIP3    H242271   2.188   3.967   7.853
14132TIP3   OH242272   1.579   3.248   6.399
14132TIP3    H142273   1.646   3.221   6.462
14132TIP3    H242274   1.498   3.209   6.432
14133TIP3   OH242275   1.647   3.536   6.866
14133TIP3    H142276   1.693   3.453   6.880
14133TIP3    H242277   1.689   3.575   6.789
14134TIP3   OH242278   1.800   3.701   7.392
14134TIP3    H142279   1.881   3.719   7.344
14134TIP3    H242280   1.813   3.742   7.477
14135TIP3   OH242281   1.874   3.852   7.618
14135TIP3    H142282   1.804   3.880   7.678
14135TIP3    H242283   1.905   3.933   7.578
14136TIP3   OH242284   3.718   8.191   0.416
14136TIP3    H142285   3.775   8.226   0.348
14136TIP3    H242286   3.777   8.162   0.485
14137TIP3   OH242287   5.624   8.101   0.120
14137TIP3    H142288   5.681   8.031   0.088
14137TIP3    H242289   5.582   8.135   0.041
14138TIP3   OH242290   1.764   3.288   6.919
14138TIP3    H142291   1.810   3.276   7.002
14138TIP3    H242292   1.702   3.215   6.914
14139TIP3   OH242293   0.467   3.264   7.727
14139TIP3    H142294   0.528   3.190   7.729
14139TIP3    H242295   0.523   3.341   7.734
14140TIP3   OH242296   0.215   3.586   7.808
14140TIP3    H142297   0.290   3.554   7.756
14140TIP3    H242298   0.239   3.675   7.832
14141TIP3   OH242299   2.187   3.569   7.928
14141TIP3    H142300   2.101   3.608   7.942
14141TIP3    H242301   2.169   3.489   7.878
14142TIP3   OH242302   1.804   3.198   6.555
14142TIP3    H142303   1.854   3.137   6.501
14142TIP3    H242304   1.859   3.276   6.562
14143TIP3   OH242305   0.321   3.026   7.365
14143TIP3    H142306   0.285   2.953   7.415
14143TIP3    H242307   0.249   3.054   7.308
14144TIP3   OH242308   1.394   4.754   6.833
14144TIP3    H142309   1.452   4.748   6.757
14144TIP3    H242310   1.434   4.823   6.887
14145TIP3   OH242311   3.704   7.751   0.114
14145TIP3    H142312   3.715   7.795   0.198
14145TIP3    H242313   3.677   7.820   0.054
14146TIP3   OH242314   3.785   9.220   0.187
14146TIP3    H142315   3.689   9.221   0.179
14146TIP3    H242316   3.805   9.292   0.245
14147TIP3   OH242317   0.721   4.587   7.746
14147TIP3    H142318   0.657   4.646   7.706
14147TIP3    H242319   0.802   4.603   7.698
14148TIP3   OH242320   1.096   4.855   7.893
14148TIP3    H142321   1.126   4.842   7.982
14148TIP3    H242322   1.169   4.898   7.848
14149TIP3   OH242323   1.318   4.976   7.776
14149TIP3    H142324   1.386   4.915   7.747
14149TIP3    H242325   1.365   5.040   7.830
14150TIP3   OH242326   2.099   3.318   7.842
14150TIP3    H142327   2.011   3.321   7.805
14150TIP3    H242328   2.127   3.227   7.831
14151TIP3   OH242329   0.562   4.774   7.624
14151TIP3    H142330   0.469   4.761   7.644
14151TIP3    H242331   0.561   4.822   7.541
14152TIP3   OH242332   1.071   4.859   7.390
14152TIP3    H142333   0.985   4.853   7.347
14152TIP3    H242334   1.070   4.944   7.434
14153TIP3   OH242335   1.304   4.775   7.491
14153TIP3    H142336   1.214   4.793   7.463
14153TIP3    H242337   1.356   4.844   7.451
14154TIP3   OH242338   1.496   4.964   7.403
14154TIP3    H142339   1.481   5.049   7.362
14154TIP3    H242340   1.519   4.906   7.331
14155TIP3   OH242341   0.335   4.560   7.556
14155TIP3    H142342   0.371   4.533   7.641
14155TIP3    H242343   0.409   4.552   7.496
14156TIP3   OH242344   0.529   4.512   7.374
14156TIP3    H142345   0.547   4.418   7.383
14156TIP3    H242346   0.615   4.554   7.380
14157TIP3   OH242347   0.791   4.585   7.391
14157TIP3    H142348   0.813   4.494   7.374
14157TIP3    H242349   0.849   4.610   7.463
14158TIP3   OH242350   1.308   3.237   7.488
14158TIP3    H142351   1.262   3.167   7.535
14158TIP3    H242352   1.375   3.191   7.438
14159TIP3   OH242353   1.801   3.160   7.374
14159TIP3    H142354   1.841   3.210   7.303
14159TIP3    H242355   1.711   3.195   7.379
14160TIP3   OH242356   1.920   3.241   7.141
14160TIP3    H142357   1.988   3.177   7.120
14160TIP3    H242358   1.962   3.326   7.128
14161TIP3   OH242359   0.570   2.934   7.477
14161TIP3    H142360   0.476   2.919   7.463
14161TIP3    H242361   0.608   2.846   7.475
14162TIP3   OH242362   0.366   2.848   7.143
14162TIP3    H142363   0.406   2.883   7.063
14162TIP3    H242364   0.381   2.916   7.209
14163TIP3   OH242365   1.012   2.993   7.374
14163TIP3    H142366   1.065   3.031   7.305
14163TIP3    H242367   1.057   3.017   7.455
14164TIP3   OH242368   1.512   3.106   7.359
14164TIP3    H142369   1.548   3.072   7.277
14164TIP3    H242370   1.521   3.034   7.421
14165TIP3   OH242371   1.580   3.076   6.928
14165TIP3    H142372   1.501   3.124   6.955
14165TIP3    H242373   1.570   2.989   6.968
14166TIP3   OH242374   0.491   2.966   6.919
14166TIP3    H142375   0.538   2.907   6.860
14166TIP3    H242376   0.558   3.028   6.947
14167TIP3   OH242377   0.955   3.175   7.009
14167TIP3    H142378   1.016   3.121   7.059
14167TIP3    H242379   0.976   3.265   7.034
14168TIP3   OH242380   0.847   4.584   6.457
14168TIP3    H142381   0.936   4.605   6.427
14168TIP3    H242382   0.826   4.503   6.411
14169TIP3   OH242383   1.550   4.719   6.603
14169TIP3    H142384   1.543   4.624   6.595
14169TIP3    H242385   1.504   4.752   6.526
14170TIP3   OH242386   4.027   7.892   0.404
14170TIP3    H142387   3.973   7.822   0.367
14170TIP3    H242388   4.116   7.874   0.373
14171TIP3   OH242389   4.286   7.823   0.365
14171TIP3    H142390   4.369   7.820   0.317
14171TIP3    H242391   4.306   7.871   0.445
14172TIP3   OH242392   0.242   4.506   6.610
14172TIP3    H142393   0.278   4.526   6.696
14172TIP3    H242394   0.300   4.438   6.574
14173TIP3   OH242395   5.131   7.938   0.247
14173TIP3    H142396   5.126   7.967   0.338
14173TIP3    H242397   5.222   7.950   0.222
14174TIP3   OH242398   1.771   4.862   7.783
14174TIP3    H142399   1.695   4.830   7.735
14174TIP3    H242400   1.756   4.956   7.792
14175TIP3   OH242401   3.042   4.247   6.522
14175TIP3    H142402   3.010   4.333   6.493
14175TIP3    H242403   2.972   4.186   6.497
14176TIP3   OH242404   3.039   4.235   6.952
14176TIP3    H142405   3.094   4.215   7.028
14176TIP3    H242406   2.993   4.153   6.934
14177TIP3   OH242407   2.330   4.087   7.294
14177TIP3    H142408   2.370   4.038   7.366
14177TIP3    H242409   2.404   4.113   7.240
14178TIP3   OH242410   3.313   4.544   6.617
14178TIP3    H142411   3.295   4.475   6.681
14178TIP3    H242412   3.322   4.623   6.670
14179TIP3   OH242413   2.332   4.514   6.962
14179TIP3    H142414   2.310   4.422   6.975
14179TIP3    H242415   2.427   4.517   6.963
14180TIP3   OH242416   2.009   3.726   6.760
14180TIP3    H142417   1.972   3.810   6.786
14180TIP3    H242418   1.935   3.678   6.723
14181TIP3   OH242419   2.092   4.041   6.987
14181TIP3    H142420   2.142   3.964   7.014
14181TIP3    H242421   2.159   4.106   6.966
14182TIP3   OH242422   2.970   4.965   6.633
14182TIP3    H142423   3.000   4.900   6.569
14182TIP3    H242424   2.965   4.916   6.716
14183TIP3   OH242425   2.848   4.455   6.953
14183TIP3    H142426   2.893   4.374   6.929
14183TIP3    H242427   2.916   4.512   6.987
14184TIP3   OH242428   3.880   3.773   6.972
14184TIP3    H142429   3.896   3.858   7.014
14184TIP3    H242430   3.903   3.788   6.880
14185TIP3   OH242431   3.249   3.942   6.987
14185TIP3    H142432   3.279   3.856   7.017
14185TIP3    H242433   3.212   3.926   6.901
14186TIP3   OH242434   2.607   3.601   6.947
14186TIP3    H142435   2.582   3.673   6.889
14186TIP3    H242436   2.551   3.528   6.920
14187TIP3   OH242437   3.304   3.702   6.586
14187TIP3    H142438   3.366   3.697   6.658
14187TIP3    H242439   3.355   3.735   6.512
14188TIP3   OH242440   2.230   3.818   7.078
14188TIP3    H142441   2.312   3.798   7.122
14188TIP3    H242442   2.232   3.766   6.998
14189TIP3   OH242443   2.646   4.018   6.894
14189TIP3    H142444   2.740   4.002   6.901
14189TIP3    H242445   2.610   3.935   6.863
14190TIP3   OH242446   3.934   3.998   7.132
14190TIP3    H142447   3.844   4.028   7.132
14190TIP3    H242448   3.970   4.029   7.215
14191TIP3   OH242449   2.587   3.604   7.397
14191TIP3    H142450   2.535   3.639   7.326
14191TIP3    H242451   2.533   3.617   7.475
14192TIP3   OH242452   2.943   4.465   6.380
14192TIP3    H142453   2.902   4.435   6.299
14192TIP3    H242454   2.891   4.540   6.408
14193TIP3   OH242455   2.676   4.381   7.159
14193TIP3    H142456   2.624   4.453   7.194
14193TIP3    H242457   2.726   4.420   7.088
14194TIP3   OH242458   3.457   3.729   6.810
14194TIP3    H142459   3.414   3.705   6.892
14194TIP3    H242460   3.512   3.804   6.833
14195TIP3   OH242461   2.477   3.713   7.168
14195TIP3    H142462   2.532   3.787   7.192
14195TIP3    H242463   2.525   3.670   7.097
14196TIP3   OH242464   2.524   4.585   7.268
14196TIP3    H142465   2.510   4.676   7.241
14196TIP3    H242466   2.447   4.565   7.321
14197TIP3   OH242467   1.901   4.290   6.527
14197TIP3    H142468   1.864   4.311   6.442
14197TIP3    H242469   1.923   4.375   6.565
14198TIP3   OH242470   3.335   4.791   6.759
14198TIP3    H142471   3.250   4.781   6.802
14198TIP3    H242472   3.330   4.875   6.715
14199TIP3   OH242473   3.674   3.671   7.138
14199TIP3    H142474   3.590   3.688   7.095
14199TIP3    H242475   3.740   3.696   7.074
14200TIP3   OH242476   2.932   3.304   7.133
14200TIP3    H142477   2.927   3.212   7.161
14200TIP3    H242478   2.853   3.344   7.169
14201TIP3   OH242479   3.063   4.821   6.413
14201TIP3    H142480   3.112   4.740   6.400
14201TIP3    H242481   3.126   4.890   6.390
14202TIP3   OH242482   3.204   4.591   6.364
14202TIP3    H142483   3.134   4.526   6.359
14202TIP3    H242484   3.252   4.568   6.443
14203TIP3   OH242485   3.582   4.668   7.108
14203TIP3    H142486   3.558   4.594   7.053
14203TIP3    H242487   3.564   4.745   7.054
14204TIP3   OH242488   2.871   4.082   6.374
14204TIP3    H142489   2.788   4.125   6.352
14204TIP3    H242490   2.917   4.075   6.290
14205TIP3   OH242491   2.836   3.900   6.050
14205TIP3    H142492   2.903   3.946   6.100
14205TIP3    H242493   2.884   3.831   6.003
14206TIP3   OH242494   3.754   4.341   6.982
14206TIP3    H142495   3.667   4.381   6.975
14206TIP3    H242496   3.790   4.346   6.893
14207TIP3   OH242497   3.226   4.166   6.336
14207TIP3    H142498   3.172   4.196   6.410
14207TIP3    H242499   3.308   4.139   6.376
14208TIP3   OH242500   3.455   4.197   7.287
14208TIP3    H142501   3.449   4.279   7.336
14208TIP3    H242502   3.373   4.192   7.237
14209TIP3   OH242503   2.455   4.151   6.733
14209TIP3    H142504   2.420   4.088   6.670
14209TIP3    H242505   2.526   4.103   6.777
14210TIP3   OH242506   2.599   4.572   6.879
14210TIP3    H142507   2.576   4.555   6.787
14210TIP3    H242508   2.685   4.532   6.890
14211TIP3   OH242509   2.543   4.144   7.118
14211TIP3    H142510   2.583   4.107   7.040
14211TIP3    H242511   2.591   4.225   7.134
14212TIP3   OH242512   3.103   4.781   6.898
14212TIP3    H142513   3.086   4.862   6.946
14212TIP3    H242514   3.086   4.711   6.961
14213TIP3   OH242515   2.722   4.679   7.439
14213TIP3    H142516   2.661   4.734   7.488
14213TIP3    H242517   2.667   4.628   7.381
14214TIP3   OH242518   3.057   4.034   6.162
14214TIP3    H142519   3.117   4.088   6.214
14214TIP3    H242520   3.086   4.046   6.072
14215TIP3   OH242521   2.474   4.226   7.585
14215TIP3    H142522   2.478   4.320   7.605
14215TIP3    H242523   2.381   4.207   7.578
14216TIP3   OH242524   2.809   4.705   6.417
14216TIP3    H142525   2.890   4.755   6.425
14216TIP3    H242526   2.748   4.765   6.373
14217TIP3   OH242527   2.513   4.834   7.530
14217TIP3    H142528   2.484   4.847   7.439
14217TIP3    H242529   2.432   4.821   7.579
14218TIP3   OH242530   3.564   3.254   6.232
14218TIP3    H142531   3.488   3.274   6.286
14218TIP3    H242532   3.573   3.329   6.174
14219TIP3   OH242533   2.331   3.993   6.530
14219TIP3    H142534   2.248   4.036   6.508
14219TIP3    H242535   2.307   3.902   6.547
14220TIP3   OH242536   2.110   4.398   7.474
14220TIP3    H142537   2.039   4.379   7.413
14220TIP3    H242538   2.143   4.312   7.500
14221TIP3   OH242539   1.949   4.598   7.135
14221TIP3    H142540   2.036   4.626   7.163
14221TIP3    H242541   1.892   4.672   7.158
14222TIP3   OH242542   3.808   5.046   7.164
14222TIP3    H142543   3.814   4.952   7.182
14222TIP3    H242544   3.730   5.074   7.213
14223TIP3   OH242545   2.910   4.828   7.304
14223TIP3    H142546   2.900   4.918   7.335
14223TIP3    H242547   2.843   4.779   7.352
14224TIP3   OH242548   2.687   4.920   6.252
14224TIP3    H142549   2.637   4.900   6.173
14224TIP3    H242550   2.651   5.003   6.283
14225TIP3   OH242551   2.129   4.776   6.631
14225TIP3    H142552   2.172   4.769   6.716
14225TIP3    H242553   2.077   4.696   6.623
14226TIP3   OH242554   2.898   4.859   5.901
14226TIP3    H142555   2.952   4.788   5.866
14226TIP3    H242556   2.933   4.875   5.989
14227TIP3   OH242557   2.949   4.914   6.169
14227TIP3    H142558   2.859   4.911   6.201
14227TIP3    H242559   3.000   4.873   6.239
14228TIP3   OH242560   3.699   4.149   7.443
14228TIP3    H142561   3.615   4.156   7.397
14228TIP3    H242562   3.716   4.055   7.447
14229TIP3   OH242563   2.307   4.587   7.440
14229TIP3    H142564   2.358   4.575   7.520
14229TIP3    H242565   2.236   4.524   7.447
14230TIP3   OH242566   2.688   3.389   7.248
14230TIP3    H142567   2.604   3.352   7.221
14230TIP3    H242568   2.665   3.467   7.298
14231TIP3   OH242569   3.233   3.519   7.458
14231TIP3    H142570   3.300   3.491   7.520
14231TIP3    H242571   3.150   3.504   7.504
14232TIP3   OH242572   3.455   3.933   7.381
14232TIP3    H142573   3.415   3.928   7.468
14232TIP3    H242574   3.438   4.022   7.351
14233TIP3   OH242575   3.141   4.053   5.902
14233TIP3    H142576   3.108   4.029   5.815
14233TIP3    H242577   3.220   4.103   5.885
14234TIP3   OH242578   2.841   3.430   6.227
14234TIP3    H142579   2.804   3.438   6.315
14234TIP3    H242580   2.805   3.348   6.193
14235TIP3   OH242581   2.627   3.924   7.268
14235TIP3    H142582   2.582   3.928   7.352
14235TIP3    H242583   2.604   4.006   7.224
14236TIP3   OH242584   2.505   3.802   6.788
14236TIP3    H142585   2.417   3.777   6.815
14236TIP3    H242586   2.515   3.768   6.699
14237TIP3   OH242587   2.986   3.875   6.515
14237TIP3    H142588   2.940   3.948   6.474
14237TIP3    H242589   3.044   3.841   6.446
14238TIP3   OH242590   3.171   4.142   7.586
14238TIP3    H142591   3.144   4.073   7.647
14238TIP3    H242592   3.263   4.157   7.607
14239TIP3   OH242593   3.158   3.890   6.734
14239TIP3    H142594   3.088   3.907   6.672
14239TIP3    H242595   3.205   3.816   6.697
14240TIP3   OH242596   2.467   3.936   7.490
14240TIP3    H142597   2.475   3.999   7.562
14240TIP3    H242598   2.449   3.852   7.534
14241TIP3   OH242599   2.508   3.410   6.205
14241TIP3    H142600   2.499   3.413   6.300
14241TIP3    H242601   2.429   3.453   6.172
14242TIP3   OH242602   2.060   3.457   7.064
14242TIP3    H142603   2.129   3.493   7.119
14242TIP3    H242604   2.104   3.435   6.982
14243TIP3   OH242605   1.954   3.432   6.570
14243TIP3    H142606   2.000   3.468   6.493
14243TIP3    H242607   1.891   3.500   6.594
14244TIP3   OH242608   3.207   4.144   7.162
14244TIP3    H142609   3.230   4.077   7.098
14244TIP3    H242610   3.161   4.097   7.231
14245TIP3   OH242611   2.875   3.592   6.841
14245TIP3    H142612   2.797   3.589   6.895
14245TIP3    H242613   2.948   3.579   6.902
14246TIP3   OH242614   2.268   3.676   6.847
14246TIP3    H142615   2.180   3.679   6.808
14246TIP3    H242616   2.296   3.585   6.833
14247TIP3   OH242617   2.519   3.679   6.543
14247TIP3    H142618   2.614   3.687   6.534
14247TIP3    H242619   2.485   3.695   6.455
14248TIP3   OH242620   3.315   3.679   7.047
14248TIP3    H142621   3.297   3.697   7.140
14248TIP3    H242622   3.248   3.616   7.021
14249TIP3   OH242623   2.410   3.703   6.293
14249TIP3    H142624   2.349   3.653   6.239
14249TIP3    H242625   2.467   3.748   6.229
14250TIP3   OH242626   3.521   5.389   7.264
14250TIP3    H142627   3.515   5.419   7.173
14250TIP3    H242628   3.601   5.430   7.297
14251TIP3   OH242629   2.461   4.496   7.673
14251TIP3    H142630   2.541   4.514   7.722
14251TIP3    H242631   2.391   4.505   7.738
14252TIP3   OH242632   2.920   3.969   6.943
14252TIP3    H142633   2.983   3.915   6.896
14252TIP3    H242634   2.915   3.930   7.031
14253TIP3   OH242635   2.409   3.426   6.838
14253TIP3    H142636   2.379   3.353   6.891
14253TIP3    H242637   2.435   3.387   6.755
14254TIP3   OH242638   2.893   3.873   7.204
14254TIP3    H142639   2.806   3.902   7.232
14254TIP3    H242640   2.953   3.923   7.260
14255TIP3   OH242641   2.637   4.223   6.309
14255TIP3    H142642   2.565   4.166   6.285
14255TIP3    H242643   2.609   4.264   6.391
14256TIP3   OH242644   3.515   4.470   6.927
14256TIP3    H142645   3.547   4.519   6.851
14256TIP3    H242646   3.436   4.427   6.896
14257TIP3   OH242647   3.094   3.532   6.238
14257TIP3    H142648   3.001   3.510   6.231
14257TIP3    H242649   3.095   3.627   6.246
14258TIP3   OH242650   3.044   4.562   7.348
14258TIP3    H142651   3.091   4.545   7.429
14258TIP3    H242652   2.999   4.645   7.363
14259TIP3   OH242653   3.149   3.801   6.298
14259TIP3    H142654   3.244   3.803   6.308
14259TIP3    H242655   3.130   3.877   6.242
14260TIP3   OH242656   2.316   4.224   6.964
14260TIP3    H142657   2.356   4.208   6.878
14260TIP3    H242658   2.382   4.195   7.027
14261TIP3   OH242659   2.795   4.383   6.150
14261TIP3    H142660   2.744   4.465   6.152
14261TIP3    H242661   2.744   4.322   6.204
14262TIP3   OH242662   2.200   4.164   7.602
14262TIP3    H142663   2.201   4.137   7.694
14262TIP3    H242664   2.125   4.117   7.565
14263TIP3   OH242665   2.942   4.301   7.623
14263TIP3    H142666   2.871   4.241   7.600
14263TIP3    H242667   3.022   4.255   7.595
14264TIP3   OH242668   3.182   4.850   7.231
14264TIP3    H142669   3.087   4.834   7.235
14264TIP3    H242670   3.203   4.882   7.319
14265TIP3   OH242671   3.562   3.882   6.114
14265TIP3    H142672   3.504   3.838   6.052
14265TIP3    H242673   3.569   3.972   6.080
14266TIP3   OH242674   3.825   4.772   7.193
14266TIP3    H142675   3.733   4.746   7.199
14266TIP3    H242676   3.855   4.735   7.110
14267TIP3   OH242677   3.277   4.695   6.081
14267TIP3    H142678   3.265   4.645   6.162
14267TIP3    H242679   3.230   4.644   6.015
14268TIP3   OH242680   3.289   4.337   6.819
14268TIP3    H142681   3.200   4.316   6.847
14268TIP3    H242682   3.323   4.256   6.783
14269TIP3   OH242683   2.446   4.575   6.638
14269TIP3    H142684   2.435   4.648   6.578
14269TIP3    H242685   2.365   4.574   6.690
14270TIP3   OH242686   2.004   3.857   6.358
14270TIP3    H142687   2.047   3.940   6.381
14270TIP3    H242688   1.922   3.857   6.407
14271TIP3   OH242689   2.524   4.332   6.530
14271TIP3    H142690   2.506   4.420   6.564
14271TIP3    H242691   2.502   4.274   6.603
14272TIP3   OH242692   2.729   4.899   7.096
14272TIP3    H142693   2.765   4.973   7.047
14272TIP3    H242694   2.802   4.867   7.149
14273TIP3   OH242695   2.358   4.793   6.478
14273TIP3    H142696   2.273   4.798   6.522
14273TIP3    H242697   2.397   4.880   6.491
14274TIP3   OH242698   3.076   4.563   7.074
14274TIP3    H142699   3.063   4.563   7.169
14274TIP3    H242700   3.148   4.502   7.059
14275TIP3   OH242701   3.026   4.440   5.991
14275TIP3    H142702   3.103   4.406   6.037
14275TIP3    H242703   2.952   4.414   6.046
14276TIP3   OH242704   3.337   5.046   7.107
14276TIP3    H142705   3.270   4.984   7.136
14276TIP3    H242706   3.295   5.096   7.038
14277TIP3   OH242707   2.414   3.681   7.604
14277TIP3    H142708   2.319   3.690   7.608
14277TIP3    H242709   2.436   3.621   7.675
14278TIP3   OH242710   3.245   4.356   6.135
14278TIP3    H142711   3.234   4.296   6.208
14278TIP3    H242712   3.340   4.366   6.125
14279TIP3   OH242713   2.157   4.785   7.257
14279TIP3    H142714   2.210   4.726   7.311
14279TIP3    H242715   2.168   4.871   7.297
14280TIP3   OH242716   2.387   4.369   5.939
14280TIP3    H142717   2.477   4.343   5.921
14280TIP3    H242718   2.382   4.375   6.035
14281TIP3   OH242719   2.367   4.415   6.217
14281TIP3    H142720   2.431   4.382   6.280
14281TIP3    H242721   2.371   4.510   6.227
14282TIP3   OH242722   2.096   4.110   6.436
14282TIP3    H142723   2.032   4.159   6.488
14282TIP3    H242724   2.115   4.167   6.362
14283TIP3   OH242725   3.262   3.747   7.309
14283TIP3    H142726   3.340   3.790   7.341
14283TIP3    H242727   3.252   3.670   7.364
14284TIP3   OH242728   3.156   3.482   6.504
14284TIP3    H142729   3.134   3.500   6.413
14284TIP3    H242730   3.199   3.562   6.534
14285TIP3   OH242731   2.634   4.601   6.150
14285TIP3    H142732   2.552   4.625   6.191
14285TIP3    H242733   2.652   4.671   6.087
14286TIP3   OH242734   2.799   3.685   6.590
14286TIP3    H142735   2.862   3.752   6.563
14286TIP3    H242736   2.824   3.664   6.680
14287TIP3   OH242737   3.102   3.981   7.357
14287TIP3    H142738   3.124   4.020   7.441
14287TIP3    H242739   3.149   3.898   7.355
14288TIP3   OH242740   2.965   3.380   6.676
14288TIP3    H142741   2.942   3.458   6.728
14288TIP3    H242742   3.036   3.409   6.619
14289TIP3   OH242743   2.381   4.687   6.226
14289TIP3    H142744   2.362   4.758   6.165
14289TIP3    H242745   2.370   4.727   6.313
14290TIP3   OH242746   2.477   3.404   6.483
14290TIP3    H142747   2.465   3.494   6.514
14290TIP3    H242748   2.572   3.389   6.490
14291TIP3   OH242749   3.716   3.864   7.351
14291TIP3    H142750   3.623   3.881   7.366
14291TIP3    H242751   3.718   3.801   7.280
14292TIP3   OH242752   3.380   4.079   6.736
14292TIP3    H142753   3.304   4.022   6.747
14292TIP3    H242754   3.447   4.040   6.793
14293TIP3   OH242755   2.127   4.280   6.214
14293TIP3    H142756   2.204   4.336   6.231
14293TIP3    H242757   2.158   4.216   6.150
14294TIP3   OH242758   2.025   3.579   6.349
14294TIP3    H142759   2.039   3.673   6.360
14294TIP3    H242760   1.963   3.573   6.276
14295TIP3   OH242761   3.368   5.055   6.663
14295TIP3    H142762   3.314   5.113   6.609
14295TIP3    H242763   3.446   5.040   6.610
14296TIP3   OH242764   2.424   3.303   7.220
14296TIP3    H142765   2.394   3.267   7.136
14296TIP3    H242766   2.413   3.231   7.282
14297TIP3   OH242767   1.946   4.561   6.606
14297TIP3    H142768   1.904   4.597   6.684
14297TIP3    H242769   1.900   4.603   6.533
14298TIP3   OH242770   2.157   5.092   7.681
14298TIP3    H142771   2.240   5.096   7.729
14298TIP3    H242772   2.138   4.999   7.673
14299TIP3   OH242773   2.622   4.998   7.723
14299TIP3    H142774   2.713   4.968   7.732
14299TIP3    H242775   2.586   4.944   7.652
14300TIP3   OH242776   2.615   4.582   5.812
14300TIP3    H142777   2.629   4.495   5.848
14300TIP3    H242778   2.658   4.579   5.726
14301TIP3   OH242779   3.241   4.942   7.482
14301TIP3    H142780   3.257   4.873   7.546
14301TIP3    H242781   3.315   5.003   7.494
14302TIP3   OH242782   3.033   4.640   5.806
14302TIP3    H142783   3.031   4.566   5.867
14302TIP3    H242784   2.998   4.604   5.724
14303TIP3   OH242785   2.256   4.499   7.864
14303TIP3    H142786   2.275   4.406   7.876
14303TIP3    H242787   2.169   4.500   7.825
14304TIP3   OH242788   2.250   4.103   6.047
14304TIP3    H142789   2.312   4.080   6.116
14304TIP3    H242790   2.303   4.106   5.967
14305TIP3   OH242791   2.879   4.576   7.643
14305TIP3    H142792   2.831   4.597   7.562
14305TIP3    H242793   2.912   4.487   7.629
14306TIP3   OH242794   2.659   4.321   5.908
14306TIP3    H142795   2.714   4.338   5.984
14306TIP3    H242796   2.690   4.237   5.874
14307TIP3   OH242797   3.354   4.625   7.264
14307TIP3    H142798   3.431   4.654   7.215
14307TIP3    H242799   3.289   4.693   7.248
14308TIP3   OH242800   2.369   4.245   7.872
14308TIP3    H142801   2.443   4.216   7.817
14308TIP3    H242802   2.409   4.262   7.957
14309TIP3   OH242803   2.426   4.048   6.264
14309TIP3    H142804   2.400   4.022   6.352
14309TIP3    H242805   2.473   3.972   6.229
14310TIP3   OH242806   2.735   4.127   7.536
14310TIP3    H142807   2.647   4.164   7.547
14310TIP3    H242808   2.761   4.152   7.448
14311TIP3   OH242809   2.568   3.855   6.124
14311TIP3    H142810   2.537   3.848   6.034
14311TIP3    H242811   2.663   3.865   6.116
14312TIP3   OH242812   3.230   4.496   7.605
14312TIP3    H142813   3.300   4.458   7.552
14312TIP3    H242814   3.226   4.441   7.683
14313TIP3   OH242815   3.371   4.176   5.788
14313TIP3    H142816   3.355   4.136   5.702
14313TIP3    H242817   3.410   4.261   5.769
14314TIP3   OH242818   2.835   3.891   7.636
14314TIP3    H142819   2.836   3.822   7.570
14314TIP3    H242820   2.801   3.967   7.591
14315TIP3   OH242821   2.843   3.698   7.432
14315TIP3    H142822   2.868   3.732   7.346
14315TIP3    H242823   2.754   3.665   7.419
14316TIP3   OH242824   2.841   4.213   7.302
14316TIP3    H142825   2.930   4.247   7.292
14316TIP3    H242826   2.787   4.275   7.252
14317TIP3   OH242827   3.438   4.178   7.684
14317TIP3    H142828   3.472   4.088   7.688
14317TIP3    H242829   3.516   4.233   7.677
14318TIP3   OH242830   3.470   4.442   7.427
14318TIP3    H142831   3.419   4.506   7.378
14318TIP3    H242832   3.560   4.455   7.397
14319TIP3   OH242833   2.720   3.969   7.879
14319TIP3    H142834   2.647   3.912   7.903
14319TIP3    H242835   2.744   3.942   7.791
14320TIP3   OH242836   2.972   3.476   7.541
14320TIP3    H142837   2.929   3.554   7.508
14320TIP3    H242838   2.909   3.406   7.526
14321TIP3   OH242839   3.090   3.929   7.739
14321TIP3    H142840   3.078   3.915   7.833
14321TIP3    H242841   3.005   3.908   7.701
14322TIP3   OH242842   3.342   3.894   7.622
14322TIP3    H142843   3.261   3.888   7.673
14322TIP3    H242844   3.410   3.861   7.681
14323TIP3   OH242845   3.578   3.847   7.764
14323TIP3    H142846   3.590   3.752   7.771
14323TIP3    H242847   3.573   3.877   7.854
14324TIP3   OH242848   2.553   3.749   7.944
14324TIP3    H142849   2.559   3.662   7.904
14324TIP3    H242850   2.594   3.739   8.030
14325TIP3   OH242851   3.031   3.433   7.805
14325TIP3    H142852   3.097   3.363   7.797
14325TIP3    H242853   3.003   3.450   7.716
14326TIP3   OH242854   3.130   3.652   7.940
14326TIP3    H142855   3.099   3.577   7.889
14326TIP3    H242856   3.056   3.712   7.941
14327TIP3   OH242857   2.367   4.860   6.010
14327TIP3    H142858   2.461   4.849   5.990
14327TIP3    H242859   2.334   4.912   5.937
14328TIP3   OH242860   1.853   4.286   6.231
14328TIP3    H142861   1.949   4.292   6.233
14328TIP3    H242862   1.835   4.199   6.196
14329TIP3   OH242863   1.757   4.868   6.698
14329TIP3    H142864   1.689   4.816   6.655
14329TIP3    H242865   1.800   4.807   6.759
14330TIP3   OH242866   1.901   4.698   6.863
14330TIP3    H142867   1.891   4.629   6.928
14330TIP3    H242868   1.953   4.766   6.907
14331TIP3   OH242869   3.724   5.150   6.645
14331TIP3    H142870   3.698   5.113   6.730
14331TIP3    H242871   3.692   5.240   6.647
14332TIP3   OH242872   3.688   5.086   6.913
14332TIP3    H142873   3.623   5.016   6.922
14332TIP3    H242874   3.725   5.096   7.001
14333TIP3   OH242875   3.708   4.838   7.517
14333TIP3    H142876   3.636   4.846   7.579
14333TIP3    H242877   3.756   4.921   7.526
14334TIP3   OH242878   3.525   4.349   6.134
14334TIP3    H142879   3.583   4.419   6.104
14334TIP3    H242880   3.570   4.311   6.209
14335TIP3   OH242881   3.652   4.206   6.335
14335TIP3    H142882   3.583   4.165   6.388
14335TIP3    H242883   3.716   4.238   6.399
14336TIP3   OH242884   3.701   4.608   6.758
14336TIP3    H142885   3.753   4.531   6.735
14336TIP3    H242886   3.674   4.644   6.674
14337TIP3   OH242887   3.505   4.885   6.956
14337TIP3    H142888   3.443   4.935   7.010
14337TIP3    H242889   3.452   4.847   6.887
14338TIP3   OH242890   3.560   4.123   5.982
14338TIP3    H142891   3.491   4.126   5.916
14338TIP3    H242892   3.545   4.201   6.036
14339TIP3   OH242893   3.407   3.773   5.917
14339TIP3    H142894   3.364   3.806   5.838
14339TIP3    H242895   3.402   3.678   5.909
14340TIP3   OH242896   3.451   4.066   6.468
14340TIP3    H142897   3.454   3.971   6.452
14340TIP3    H242898   3.431   4.074   6.561
14341TIP3   OH242899   2.068   4.138   7.243
14341TIP3    H142900   2.059   4.104   7.154
14341TIP3    H242901   2.162   4.129   7.262
14342TIP3   OH242902   3.728   4.481   7.328
14342TIP3    H142903   3.796   4.415   7.316
14342TIP3    H242904   3.727   4.530   7.246
14343TIP3   OH242905   3.911   4.273   7.323
14343TIP3    H142906   3.837   4.230   7.366
14343TIP3    H242907   3.986   4.218   7.343
14344TIP3   OH242908   3.377   3.501   5.890
14344TIP3    H142909   3.441   3.475   5.956
14344TIP3    H242910   3.294   3.463   5.920
14345TIP3   OH242911   3.444   3.792   6.355
14345TIP3    H142912   3.489   3.709   6.368
14345TIP3    H242913   3.484   3.829   6.277
14346TIP3   OH242914   3.596   3.961   6.880
14346TIP3    H142915   3.677   3.977   6.832
14346TIP3    H242916   3.610   4.000   6.966
14347TIP3   OH242917   3.672   4.107   7.109
14347TIP3    H142918   3.600   4.134   7.166
14347TIP3    H242919   3.702   4.189   7.070
14348TIP3   OH242920   2.293   3.819   7.879
14348TIP3    H142921   2.387   3.814   7.900
14348TIP3    H242922   2.257   3.736   7.910
14349TIP3   OH242923   4.131   3.706   7.644
14349TIP3    H142924   4.198   3.651   7.603
14349TIP3    H242925   4.093   3.755   7.571
14350TIP3   OH242926   3.560   3.544   6.407
14350TIP3    H142927   3.605   3.529   6.491
14350TIP3    H242928   3.497   3.471   6.401
14351TIP3   OH242929   2.266   3.530   7.235
14351TIP3    H142930   2.318   3.450   7.242
14351TIP3    H242931   2.331   3.599   7.216
14352TIP3   OH242932   2.044   3.788   7.292
14352TIP3    H142933   2.096   3.783   7.212
14352TIP3    H242934   2.080   3.863   7.340
14353TIP3   OH242935   3.981   3.815   7.441
14353TIP3    H142936   3.896   3.854   7.462
14353TIP3    H242937   3.960   3.738   7.389
14354TIP3   OH242938   3.602   3.453   6.046
14354TIP3    H142939   3.650   3.394   5.988
14354TIP3    H242940   3.656   3.531   6.051
14355TIP3   OH242941   2.033   3.298   6.795
14355TIP3    H142942   1.949   3.288   6.840
14355TIP3    H242943   2.013   3.353   6.719
14356TIP3   OH242944   3.225   5.016   6.318
14356TIP3    H142945   3.269   4.997   6.235
14356TIP3    H242946   3.251   5.106   6.339
14357TIP3   OH242947   2.272   3.381   7.628
14357TIP3    H142948   2.216   3.355   7.701
14357TIP3    H242949   2.212   3.419   7.564
14358TIP3   OH242950   2.291   4.812   7.699
14358TIP3    H142951   2.198   4.793   7.686
14358TIP3    H242952   2.305   4.802   7.793
14359TIP3   OH242953   2.500   4.862   7.245
14359TIP3    H142954   2.449   4.937   7.215
14359TIP3    H242955   2.585   4.871   7.202
14360TIP3   OH242956   2.893   5.094   7.384
14360TIP3    H142957   2.930   5.084   7.472
14360TIP3    H242958   2.956   5.149   7.338
14361TIP3   OH242959   3.086   5.249   7.262
14361TIP3    H142960   3.148   5.194   7.214
14361TIP3    H242961   3.140   5.308   7.314
14362TIP3   OH242962   3.898   3.561   7.344
14362TIP3    H142963   3.808   3.544   7.315
14362TIP3    H242964   3.940   3.475   7.340
14363TIP3   OH242965   2.159   5.098   7.292
14363TIP3    H142966   2.068   5.114   7.269
14363TIP3    H242967   2.179   5.164   7.358
14364TIP3   OH242968   2.391   5.094   7.144
14364TIP3    H142969   2.308   5.097   7.192
14364TIP3    H242970   2.367   5.117   7.054
14365TIP3   OH242971   2.803   5.112   6.934
14365TIP3    H142972   2.727   5.123   6.876
14365TIP3    H242973   2.812   5.197   6.977
14366TIP3   OH242974   3.066   5.043   6.979
14366TIP3    H142975   2.975   5.066   6.961
14366TIP3    H242976   3.117   5.109   6.932
14367TIP3   OH242977   3.274   5.203   6.879
14367TIP3    H142978   3.273   5.292   6.843
14367TIP3    H242979   3.306   5.148   6.807
14368TIP3   OH242980   2.075   4.876   7.004
14368TIP3    H142981   2.096   4.850   7.094
14368TIP3    H242982   2.147   4.842   6.952
14369TIP3   OH242983   2.278   4.761   6.863
14369TIP3    H142984   2.288   4.676   6.905
14369TIP3    H242985   2.364   4.802   6.872
14370TIP3   OH242986   2.545   4.847   6.893
14370TIP3    H142987   2.565   4.754   6.878
14370TIP3    H242988   2.598   4.870   6.969
14371TIP3   OH242989   3.100   3.495   6.982
14371TIP3    H142990   3.059   3.425   7.033
14371TIP3    H242991   3.168   3.451   6.931
14372TIP3   OH242992   3.604   3.420   6.870
14372TIP3    H142993   3.637   3.470   6.795
14372TIP3    H242994   3.509   3.435   6.869
14373TIP3   OH242995   3.718   3.494   6.630
14373TIP3    H142996   3.787   3.432   6.605
14373TIP3    H242997   3.757   3.580   6.616
14374TIP3   OH242998   2.330   3.200   6.979
14374TIP3    H142999   2.242   3.166   6.993
14374TIP3    H243000   2.384   3.122   6.964
14375TIP3   OH243001   2.148   3.104   6.623
14375TIP3    H143002   2.181   3.155   6.548
14375TIP3    H243003   2.117   3.170   6.685
14376TIP3   OH243004   2.813   3.249   6.877
14376TIP3    H143005   2.866   3.289   6.809
14376TIP3    H243006   2.859   3.271   6.959
14377TIP3   OH243007   3.318   3.382   6.850
14377TIP3    H143008   3.326   3.345   6.762
14377TIP3    H243009   3.323   3.306   6.908
14378TIP3   OH243010   3.375   3.333   6.418
14378TIP3    H143011   3.296   3.379   6.444
14378TIP3    H243012   3.366   3.245   6.456
14379TIP3   OH243013   1.830   4.676   6.381
14379TIP3    H143014   1.744   4.649   6.349
14379TIP3    H243015   1.835   4.769   6.359
14380TIP3   OH243016   2.268   3.235   6.392
14380TIP3    H143017   2.315   3.173   6.336
14380TIP3    H243018   2.337   3.291   6.429
14381TIP3   OH243019   2.753   3.434   6.491
14381TIP3    H143020   2.810   3.379   6.544
14381TIP3    H243021   2.769   3.523   6.521
14382TIP3   OH243022   2.634   4.809   5.961
14382TIP3    H143023   2.721   4.843   5.939
14382TIP3    H243024   2.622   4.734   5.904
14383TIP3   OH243025   3.358   4.957   6.080
14383TIP3    H143026   3.334   4.864   6.077
14383TIP3    H243027   3.312   4.996   6.006
14384TIP3   OH243028   2.578   3.485   7.850
14384TIP3    H143029   2.542   3.415   7.904
14384TIP3    H243030   2.669   3.492   7.877
14385TIP3   OH243031   2.821   3.484   7.983
14385TIP3    H143032   2.897   3.460   7.930
14385TIP3    H243033   2.810   3.411   8.044
14386TIP3   OH243034   1.922   4.693   6.050
14386TIP3    H143035   1.911   4.698   6.145
14386TIP3    H243036   1.993   4.629   6.038
14387TIP3   OH243037   3.639   3.576   7.764
14387TIP3    H143038   3.657   3.548   7.854
14387TIP3    H243039   3.724   3.572   7.720
14388TIP3   OH243040   3.561   5.116   7.261
14388TIP3    H143041   3.482   5.083   7.216
14388TIP3    H243042   3.544   5.210   7.273
14389TIP3   OH243043   4.831   4.498   6.010
14389TIP3    H143044   4.793   4.584   5.990
14389TIP3    H243045   4.762   4.436   5.987
14390TIP3   OH243046   4.840   4.494   6.441
14390TIP3    H143047   4.891   4.472   6.520
14390TIP3    H243048   4.790   4.415   6.422
14391TIP3   OH243049   4.125   4.343   6.786
14391TIP3    H143050   4.167   4.294   6.857
14391TIP3    H243051   4.197   4.367   6.728
14392TIP3   OH243052   5.126   4.790   6.109
14392TIP3    H143053   5.097   4.726   6.174
14392TIP3    H243054   5.128   4.873   6.157
14393TIP3   OH243055   4.105   4.807   6.492
14393TIP3    H143056   4.097   4.712   6.486
14393TIP3    H243057   4.195   4.826   6.464
14394TIP3   OH243058   3.803   3.982   6.249
14394TIP3    H143059   3.761   4.065   6.273
14394TIP3    H243060   3.733   3.931   6.209
14395TIP3   OH243061   3.877   4.283   6.482
14395TIP3    H143062   3.927   4.206   6.509
14395TIP3    H243063   3.939   4.335   6.431
14396TIP3   OH243064   4.771   5.209   6.140
14396TIP3    H143065   4.792   5.151   6.068
14396TIP3    H243066   4.794   5.159   6.219
14397TIP3   OH243067   4.624   4.728   6.436
14397TIP3    H143068   4.665   4.652   6.396
14397TIP3    H243069   4.698   4.778   6.473
14398TIP3   OH243070   5.666   4.019   6.449
14398TIP3    H143071   5.677   4.104   6.492
14398TIP3    H243072   5.694   4.034   6.358
14399TIP3   OH243073   5.043   4.197   6.476
14399TIP3    H143074   5.074   4.112   6.507
14399TIP3    H243075   5.006   4.179   6.390
14400TIP3   OH243076   4.402   3.854   6.432
14400TIP3    H143077   4.380   3.927   6.375
14400TIP3    H243078   4.346   3.782   6.403
14401TIP3   OH243079   5.100   3.959   6.074
14401TIP3    H143080   5.162   3.952   6.146
14401TIP3    H243081   5.152   3.991   6.000
14402TIP3   OH243082   4.026   4.068   6.567
14402TIP3    H143083   4.110   4.050   6.610
14402TIP3    H243084   4.028   4.017   6.487
14403TIP3   OH243085   4.438   4.275   6.385
14403TIP3    H143086   4.532   4.261   6.391
14403TIP3    H243087   4.404   4.192   6.350
14404TIP3   OH243088   5.702   4.234   6.625
14404TIP3    H143089   5.633   4.296   6.601
14404TIP3    H243090   5.668   4.190   6.703
14405TIP3   OH243091   4.383   3.860   6.886
14405TIP3    H143092   4.332   3.896   6.813
14405TIP3    H243093   4.328   3.875   6.963
14406TIP3   OH243094   4.684   4.701   5.892
14406TIP3    H143095   4.693   4.693   5.797
14406TIP3    H243096   4.644   4.787   5.904
14407TIP3   OH243097   4.480   4.628   6.648
14407TIP3    H143098   4.430   4.698   6.690
14407TIP3    H243099   4.525   4.671   6.575
14408TIP3   OH243100   5.253   3.981   6.299
14408TIP3    H143101   5.208   3.959   6.380
14408TIP3    H243102   5.307   4.057   6.321
14409TIP3   OH243103   4.276   3.967   6.654
14409TIP3    H143104   4.331   4.042   6.677
14409TIP3    H243105   4.323   3.924   6.583
14410TIP3   OH243106   4.334   4.826   6.770
14410TIP3    H143107   4.317   4.916   6.741
14410TIP3    H243108   4.257   4.803   6.822
14411TIP3   OH243109   3.698   4.533   6.018
14411TIP3    H143110   3.668   4.529   5.927
14411TIP3    H243111   3.723   4.625   6.031
14412TIP3   OH243112   5.132   5.040   6.250
14412TIP3    H143113   5.044   5.033   6.288
14412TIP3    H243114   5.132   5.123   6.203
14413TIP3   OH243115   5.454   3.914   6.609
14413TIP3    H143116   5.370   3.931   6.566
14413TIP3    H243117   5.520   3.938   6.543
14414TIP3   OH243118   4.725   3.551   6.625
14414TIP3    H143119   4.720   3.459   6.651
14414TIP3    H243120   4.647   3.591   6.663
14415TIP3   OH243121   4.846   5.077   5.907
14415TIP3    H143122   4.896   4.996   5.898
14415TIP3    H243123   4.906   5.146   5.879
14416TIP3   OH243124   4.992   4.853   5.868
14416TIP3    H143125   5.006   4.788   5.798
14416TIP3    H243126   5.042   4.818   5.942
14417TIP3   OH243127   5.375   4.932   6.594
14417TIP3    H143128   5.350   4.858   6.538
14417TIP3    H243129   5.358   5.009   6.540
14418TIP3   OH243130   4.655   4.335   5.866
14418TIP3    H143131   4.578   4.389   5.844
14418TIP3    H243132   4.704   4.329   5.783
14419TIP3   OH243133   4.623   4.147   5.553
14419TIP3    H143134   4.691   4.194   5.601
14419TIP3    H243135   4.671   4.083   5.500
14420TIP3   OH243136   5.547   4.611   6.462
14420TIP3    H143137   5.461   4.652   6.455
14420TIP3    H243138   5.581   4.611   6.372
14421TIP3   OH243139   5.021   4.417   5.832
14421TIP3    H143140   4.965   4.447   5.903
14421TIP3    H243141   5.102   4.390   5.875
14422TIP3   OH243142   5.249   4.459   6.771
14422TIP3    H143143   5.243   4.540   6.821
14422TIP3    H243144   5.165   4.453   6.725
14423TIP3   OH243145   4.240   4.410   6.235
14423TIP3    H143146   4.204   4.349   6.170
14423TIP3    H243147   4.311   4.362   6.276
14424TIP3   OH243148   4.360   4.855   6.373
14424TIP3    H143149   4.334   4.833   6.284
14424TIP3    H243150   4.445   4.814   6.385
14425TIP3   OH243151   4.335   4.400   6.608
14425TIP3    H143152   4.371   4.361   6.528
14425TIP3    H243153   4.388   4.478   6.623
14426TIP3   OH243154   4.889   5.039   6.377
14426TIP3    H143155   4.883   5.119   6.429
14426TIP3    H243156   4.875   4.968   6.439
14427TIP3   OH243157   4.529   4.939   6.932
14427TIP3    H143158   4.465   4.994   6.978
14427TIP3    H243159   4.476   4.881   6.877
14428TIP3   OH243160   4.848   4.281   5.664
14428TIP3    H143161   4.910   4.339   5.709
14428TIP3    H243162   4.862   4.299   5.571
14429TIP3   OH243163   4.272   4.493   7.065
14429TIP3    H143164   4.274   4.585   7.090
14429TIP3    H243165   4.179   4.471   7.062
14430TIP3   OH243166   4.592   4.968   5.870
14430TIP3    H143167   4.679   4.999   5.895
14430TIP3    H243168   4.543   5.047   5.849
14431TIP3   OH243169   4.307   5.089   7.010
14431TIP3    H143170   4.275   5.097   6.920
14431TIP3    H243171   4.228   5.076   7.062
14432TIP3   OH243172   5.359   3.511   5.720
14432TIP3    H143173   5.283   3.532   5.774
14432TIP3    H243174   5.369   3.587   5.662
14433TIP3   OH243175   4.124   4.245   6.036
14433TIP3    H143176   4.045   4.289   6.004
14433TIP3    H243177   4.099   4.153   6.045
14434TIP3   OH243178   3.900   4.654   6.958
14434TIP3    H143179   3.830   4.630   6.897
14434TIP3    H243180   3.934   4.570   6.990
14435TIP3   OH243181   3.818   4.836   6.581
14435TIP3    H143182   3.905   4.805   6.559
14435TIP3    H243183   3.814   4.830   6.677
14436TIP3   OH243184   5.603   5.299   6.664
14436TIP3    H143185   5.609   5.204   6.678
14436TIP3    H243186   5.524   5.324   6.712
14437TIP3   OH243187   4.702   5.093   6.782
14437TIP3    H143188   4.695   5.182   6.817
14437TIP3    H243189   4.643   5.041   6.838
14438TIP3   OH243190   4.487   5.188   5.741
14438TIP3    H143191   4.452   5.168   5.654
14438TIP3    H243192   4.450   5.274   5.762
14439TIP3   OH243193   3.901   5.029   6.147
14439TIP3    H143194   3.864   5.029   6.235
14439TIP3    H243195   3.861   4.953   6.104
14440TIP3   OH243196   4.701   5.100   5.375
14440TIP3    H143197   4.775   5.049   5.342
14440TIP3    H243198   4.729   5.127   5.463
14441TIP3   OH243199   4.745   5.171   5.641
14441TIP3    H143200   4.659   5.172   5.684
14441TIP3    H243201   4.799   5.116   5.696
14442TIP3   OH243202   5.501   4.407   6.932
14442TIP3    H143203   5.416   4.411   6.889
14442TIP3    H243204   5.510   4.316   6.958
14443TIP3   OH243205   4.109   4.830   6.932
14443TIP3    H143206   4.160   4.821   7.013
14443TIP3    H243207   4.039   4.766   6.940
14444TIP3   OH243208   4.486   3.642   6.746
14444TIP3    H143209   4.402   3.608   6.716
14444TIP3    H243210   4.464   3.723   6.793
14445TIP3   OH243211   5.023   3.768   6.948
14445TIP3    H143212   5.092   3.745   7.009
14445TIP3    H243213   4.942   3.756   6.997
14446TIP3   OH243214   5.284   4.202   6.875
14446TIP3    H143215   5.232   4.186   6.953
14446TIP3    H243216   5.249   4.283   6.839
14447TIP3   OH243217   4.859   4.315   5.391
14447TIP3    H143218   4.879   4.298   5.299
14447TIP3    H243219   4.871   4.409   5.402
14448TIP3   OH243220   4.640   3.682   5.718
14448TIP3    H143221   4.601   3.690   5.805
14448TIP3    H243222   4.602   3.601   5.682
14449TIP3   OH243223   4.425   4.179   6.753
14449TIP3    H143224   4.381   4.184   6.837
14449TIP3    H243225   4.402   4.260   6.709
14450TIP3   OH243226   4.302   4.057   6.277
14450TIP3    H143227   4.213   4.032   6.302
14450TIP3    H243228   4.312   4.026   6.188
14451TIP3   OH243229   4.780   4.132   6.004
14451TIP3    H143230   4.731   4.203   5.963
14451TIP3    H243231   4.837   4.099   5.935
14452TIP3   OH243232   4.967   4.388   7.083
14452TIP3    H143233   4.937   4.316   7.139
14452TIP3    H243234   5.058   4.402   7.109
14453TIP3   OH243235   4.952   4.145   6.223
14453TIP3    H143236   4.882   4.164   6.160
14453TIP3    H243237   5.000   4.072   6.184
14454TIP3   OH243238   4.266   4.190   6.977
14454TIP3    H143239   4.294   4.248   7.048
14454TIP3    H243240   4.247   4.107   7.020
14455TIP3   OH243241   4.306   3.667   5.693
14455TIP3    H143242   4.295   3.672   5.788
14455TIP3    H243243   4.228   3.709   5.657
14456TIP3   OH243244   3.854   3.713   6.553
14456TIP3    H143245   3.927   3.747   6.605
14456TIP3    H243246   3.892   3.692   6.468
14457TIP3   OH243247   3.752   3.687   6.057
14457TIP3    H143248   3.796   3.722   5.980
14457TIP3    H243249   3.687   3.754   6.080
14458TIP3   OH243250   4.999   4.398   6.653
14458TIP3    H143251   5.022   4.331   6.588
14458TIP3    H243252   4.958   4.348   6.724
14459TIP3   OH243253   4.672   3.844   6.327
14459TIP3    H143254   4.593   3.843   6.381
14459TIP3    H243255   4.744   3.834   6.389
14460TIP3   OH243256   4.062   3.932   6.333
14460TIP3    H143257   3.975   3.936   6.294
14460TIP3    H243258   4.091   3.842   6.317
14461TIP3   OH243259   4.316   3.936   6.032
14461TIP3    H143260   4.411   3.945   6.021
14461TIP3    H243261   4.281   3.951   5.944
14462TIP3   OH243262   5.115   3.936   6.538
14462TIP3    H143263   5.104   3.953   6.632
14462TIP3    H243264   5.045   3.875   6.517
14463TIP3   OH243265   4.204   3.954   5.784
14463TIP3    H143266   4.143   3.905   5.729
14463TIP3    H243267   4.258   4.003   5.722
14464TIP3   OH243268   5.318   5.643   6.754
14464TIP3    H143269   5.315   5.659   6.660
14464TIP3    H243270   5.397   5.687   6.784
14465TIP3   OH243271   4.256   4.757   7.163
14465TIP3    H143272   4.338   4.773   7.210
14465TIP3    H243273   4.188   4.764   7.230
14466TIP3   OH243274   4.713   4.228   6.434
14466TIP3    H143275   4.777   4.176   6.386
14466TIP3    H243276   4.711   4.188   6.521
14467TIP3   OH243277   4.204   3.683   6.320
14467TIP3    H143278   4.177   3.608   6.373
14467TIP3    H243279   4.222   3.646   6.233
14468TIP3   OH243280   4.694   4.128   6.696
14468TIP3    H143281   4.607   4.159   6.723
14468TIP3    H243282   4.755   4.176   6.753
14469TIP3   OH243283   4.429   4.494   5.795
14469TIP3    H143284   4.358   4.432   5.781
14469TIP3    H243285   4.412   4.531   5.882
14470TIP3   OH243286   5.306   4.735   6.412
14470TIP3    H143287   5.331   4.788   6.337
14470TIP3    H243288   5.227   4.689   6.385
14471TIP3   OH243289   4.891   3.788   5.721
14471TIP3    H143290   4.798   3.764   5.717
14471TIP3    H243291   4.890   3.883   5.734
14472TIP3   OH243292   4.844   4.813   6.834
14472TIP3    H143293   4.897   4.792   6.910
14472TIP3    H243294   4.802   4.897   6.857
14473TIP3   OH243295   4.946   4.053   5.791
14473TIP3    H143296   5.041   4.059   5.801
14473TIP3    H243297   4.922   4.129   5.739
14474TIP3   OH243298   4.127   4.532   6.459
14474TIP3    H143299   4.157   4.500   6.375
14474TIP3    H243300   4.183   4.488   6.523
14475TIP3   OH243301   4.574   4.629   5.598
14475TIP3    H143302   4.535   4.717   5.605
14475TIP3    H243303   4.529   4.577   5.664
14476TIP3   OH243304   3.996   4.431   7.098
14476TIP3    H143305   4.008   4.407   7.190
14476TIP3    H243306   3.923   4.376   7.068
14477TIP3   OH243307   4.739   4.550   7.114
14477TIP3    H143308   4.669   4.489   7.089
14477TIP3    H243309   4.820   4.505   7.090
14478TIP3   OH243310   4.977   5.105   6.715
14478TIP3    H143311   4.882   5.093   6.715
14478TIP3    H243312   4.998   5.138   6.802
14479TIP3   OH243313   5.359   4.143   5.595
14479TIP3    H143314   5.307   4.095   5.530
14479TIP3    H243315   5.358   4.234   5.565
14480TIP3   OH243316   5.622   5.018   6.680
14480TIP3    H143317   5.528   5.002   6.681
14480TIP3    H243318   5.651   4.986   6.594
14481TIP3   OH243319   5.083   4.592   6.312
14481TIP3    H143320   4.995   4.570   6.342
14481TIP3    H243321   5.117   4.510   6.275
14482TIP3   OH243322   4.232   4.825   6.126
14482TIP3    H143323   4.226   4.903   6.071
14482TIP3    H243324   4.143   4.790   6.128
14483TIP3   OH243325   3.800   4.108   5.844
14483TIP3    H143326   3.843   4.191   5.867
14483TIP3    H243327   3.718   4.109   5.894
14484TIP3   OH243328   4.342   4.583   6.038
14484TIP3    H143329   4.320   4.672   6.066
14484TIP3    H243330   4.309   4.527   6.108
14485TIP3   OH243331   4.508   5.170   6.591
14485TIP3    H143332   4.550   5.240   6.540
14485TIP3    H243333   4.579   5.132   6.642
14486TIP3   OH243334   4.141   5.050   5.986
14486TIP3    H143335   4.059   5.058   6.035
14486TIP3    H243336   4.178   5.138   5.986
14487TIP3   OH243337   4.862   4.820   6.556
14487TIP3    H143338   4.855   4.820   6.651
14487TIP3    H243339   4.929   4.754   6.537
14488TIP3   OH243340   4.852   4.580   5.472
14488TIP3    H143341   4.914   4.620   5.533
14488TIP3    H243342   4.766   4.609   5.502
14489TIP3   OH243343   5.132   5.312   6.598
14489TIP3    H143344   5.063   5.249   6.619
14489TIP3    H243345   5.097   5.365   6.527
14490TIP3   OH243346   5.195   5.173   5.249
14490TIP3    H143347   5.139   5.248   5.268
14490TIP3    H243348   5.142   5.097   5.271
14491TIP3   OH243349   4.211   3.937   7.092
14491TIP3    H143350   4.116   3.946   7.099
14491TIP3    H243351   4.235   3.886   7.169
14492TIP3   OH243352   5.042   4.644   5.676
14492TIP3    H143353   5.036   4.564   5.729
14492TIP3    H243354   5.134   4.646   5.648
14493TIP3   OH243355   3.957   5.028   6.803
14493TIP3    H143356   4.023   4.966   6.835
14493TIP3    H243357   3.897   5.038   6.877
14494TIP3   OH243358   4.152   4.685   5.736
14494TIP3    H143359   4.239   4.655   5.761
14494TIP3    H243360   4.162   4.780   5.726
14495TIP3   OH243361   3.898   4.358   5.927
14495TIP3    H143362   3.831   4.406   5.977
14495TIP3    H243363   3.915   4.413   5.851
14496TIP3   OH243364   5.076   3.997   6.804
14496TIP3    H143365   5.146   4.038   6.854
14496TIP3    H243366   5.052   3.919   6.855
14497TIP3   OH243367   4.950   3.740   5.989
14497TIP3    H143368   4.929   3.758   5.897
14497TIP3    H243369   4.994   3.820   6.019
14498TIP3   OH243370   4.450   4.869   5.653
14498TIP3    H143371   4.360   4.893   5.674
14498TIP3    H243372   4.501   4.897   5.728
14499TIP3   OH243373   4.596   3.939   6.077
14499TIP3    H143374   4.657   4.008   6.051
14499TIP3    H243375   4.621   3.918   6.167
14500TIP3   OH243376   4.905   4.232   6.851
14500TIP3    H143377   4.925   4.274   6.935
14500TIP3    H243378   4.955   4.150   6.854
14501TIP3   OH243379   4.763   3.634   6.162
14501TIP3    H143380   4.739   3.711   6.214
14501TIP3    H243381   4.833   3.664   6.105
14502TIP3   OH243382   4.200   4.959   5.726
14502TIP3    H143383   4.178   5.028   5.664
14502TIP3    H243384   4.175   4.993   5.811
14503TIP3   OH243385   4.273   3.662   5.972
14503TIP3    H143386   4.261   3.752   6.000
14503TIP3    H243387   4.368   3.647   5.979
14504TIP3   OH243388   5.529   4.101   6.801
14504TIP3    H143389   5.445   4.135   6.833
14504TIP3    H243390   5.505   4.029   6.743
14505TIP3   OH243391   5.174   4.333   6.226
14505TIP3    H143392   5.096   4.279   6.237
14505TIP3    H243393   5.239   4.294   6.285
14506TIP3   OH243394   3.929   4.529   5.710
14506TIP3    H143395   3.993   4.598   5.729
14506TIP3    H243396   3.968   4.479   5.638
14507TIP3   OH243397   3.818   3.830   5.834
14507TIP3    H143398   3.829   3.925   5.840
14507TIP3    H243399   3.757   3.817   5.761
14508TIP3   OH243400   5.152   5.305   6.165
14508TIP3    H143401   5.107   5.362   6.103
14508TIP3    H243402   5.245   5.325   6.153
14509TIP3   OH243403   4.225   3.556   6.707
14509TIP3    H143404   4.195   3.523   6.622
14509TIP3    H243405   4.217   3.480   6.765
14510TIP3   OH243406   3.735   4.816   6.070
14510TIP3    H143407   3.662   4.814   6.131
14510TIP3    H243408   3.699   4.859   5.992
14511TIP3   OH243409   3.957   5.350   7.155
14511TIP3    H143410   4.038   5.358   7.206
14511TIP3    H243411   3.941   5.256   7.149
14512TIP3   OH243412   4.414   5.252   7.208
14512TIP3    H143413   4.505   5.224   7.221
14512TIP3    H243414   4.382   5.199   7.135
14513TIP3   OH243415   5.033   5.198   6.966
14513TIP3    H143416   5.048   5.128   7.029
14513TIP3    H243417   5.106   5.258   6.979
14514TIP3   OH243418   4.052   4.753   7.352
14514TIP3    H143419   4.071   4.660   7.364
14514TIP3    H243420   3.965   4.756   7.312
14515TIP3   OH243421   4.092   4.378   5.544
14515TIP3    H143422   4.129   4.346   5.626
14515TIP3    H243423   4.168   4.414   5.497
14516TIP3   OH243424   4.680   4.829   7.136
14516TIP3    H143425   4.637   4.851   7.053
14516TIP3    H243426   4.714   4.740   7.122
14517TIP3   OH243427   4.405   4.545   5.375
14517TIP3    H143428   4.459   4.586   5.443
14517TIP3    H243429   4.455   4.467   5.349
14518TIP3   OH243430   5.152   4.883   6.753
14518TIP3    H143431   5.228   4.912   6.704
14518TIP3    H243432   5.085   4.949   6.735
14519TIP3   OH243433   4.169   4.498   7.358
14519TIP3    H143434   4.248   4.478   7.309
14519TIP3    H243435   4.200   4.516   7.447
14520TIP3   OH243436   4.230   4.303   5.774
14520TIP3    H143437   4.204   4.274   5.861
14520TIP3    H243438   4.273   4.227   5.735
14521TIP3   OH243439   4.524   4.378   7.020
14521TIP3    H143440   4.441   4.424   7.029
14521TIP3    H243441   4.558   4.404   6.934
14522TIP3   OH243442   4.358   4.112   5.621
14522TIP3    H143443   4.324   4.105   5.532
14522TIP3    H243444   4.452   4.121   5.611
14523TIP3   OH243445   5.024   4.751   7.086
14523TIP3    H143446   5.100   4.717   7.040
14523TIP3    H243447   5.021   4.701   7.168
14524TIP3   OH243448   5.175   4.466   5.280
14524TIP3    H143449   5.155   4.415   5.202
14524TIP3    H243450   5.123   4.546   5.270
14525TIP3   OH243451   4.622   4.146   7.132
14525TIP3    H143452   4.627   4.076   7.066
14525TIP3    H243453   4.589   4.222   7.084
14526TIP3   OH243454   4.639   3.952   6.926
14526TIP3    H143455   4.668   3.986   6.841
14526TIP3    H243456   4.550   3.921   6.910
14527TIP3   OH243457   4.645   4.462   6.792
14527TIP3    H143458   4.735   4.495   6.785
14527TIP3    H243459   4.593   4.523   6.740
14528TIP3   OH243460   5.219   4.412   7.205
14528TIP3    H143461   5.232   4.348   7.276
14528TIP3    H243462   5.308   4.440   7.182
14529TIP3   OH243463   5.265   4.700   6.919
14529TIP3    H143464   5.215   4.764   6.868
14529TIP3    H243465   5.356   4.712   6.889
14530TIP3   OH243466   4.519   4.230   7.383
14530TIP3    H143467   4.453   4.163   7.403
14530TIP3    H243468   4.554   4.203   7.298
14531TIP3   OH243469   4.763   3.722   7.035
14531TIP3    H143470   4.721   3.803   7.005
14531TIP3    H243471   4.696   3.654   7.023
14532TIP3   OH243472   4.887   4.165   7.219
14532TIP3    H143473   4.879   4.155   7.314
14532TIP3    H243474   4.799   4.148   7.185
14533TIP3   OH243475   5.129   4.121   7.081
14533TIP3    H143476   5.051   4.121   7.137
14533TIP3    H243477   5.201   4.106   7.142
14534TIP3   OH243478   5.370   4.100   7.229
14534TIP3    H143479   5.381   4.007   7.247
14534TIP3    H243480   5.342   4.137   7.313
14535TIP3   OH243481   4.351   4.008   7.442
14535TIP3    H143482   4.359   3.921   7.403
14535TIP3    H243483   4.395   4.000   7.527
14536TIP3   OH243484   4.814   3.672   7.304
14536TIP3    H143485   4.893   3.619   7.299
14536TIP3    H243486   4.796   3.697   7.213
14537TIP3   OH243487   4.188   5.159   5.532
14537TIP3    H143488   4.277   5.139   5.505
14537TIP3    H243489   4.147   5.197   5.454
14538TIP3   OH243490   3.656   4.493   5.748
14538TIP3    H143491   3.744   4.522   5.724
14538TIP3    H243492   3.631   4.431   5.679
14539TIP3   OH243493   3.553   5.125   6.183
14539TIP3    H143494   3.496   5.064   6.136
14539TIP3    H243495   3.601   5.070   6.244
14540TIP3   OH243496   3.710   5.005   6.386
14540TIP3    H143497   3.736   4.926   6.433
14540TIP3    H243498   3.697   5.070   6.454
14541TIP3   OH243499   5.418   5.376   6.163
14541TIP3    H143500   5.437   5.398   6.255
14541TIP3    H243501   5.465   5.442   6.113
14542TIP3   OH243502   5.442   5.392   6.442
14542TIP3    H143503   5.396   5.308   6.438
14542TIP3    H243504   5.512   5.378   6.506
14543TIP3   OH243505   5.503   5.099   7.002
14543TIP3    H143506   5.432   5.105   7.065
14543TIP3    H243507   5.552   5.180   7.013
14544TIP3   OH243508   5.323   4.613   5.636
14544TIP3    H143509   5.385   4.679   5.607
14544TIP3    H243510   5.367   4.569   5.709
14545TIP3   OH243511   5.447   4.460   5.830
14545TIP3    H143512   5.377   4.417   5.880
14545TIP3    H243513   5.507   4.493   5.897
14546TIP3   OH243514   5.492   4.880   6.245
14546TIP3    H143515   5.488   4.823   6.169
14546TIP3    H243516   5.493   4.969   6.208
14547TIP3   OH243517   5.301   5.151   6.445
14547TIP3    H143518   5.236   5.198   6.498
14547TIP3    H243519   5.250   5.112   6.374
14548TIP3   OH243520   5.347   4.391   5.474
14548TIP3    H143521   5.285   4.406   5.403
14548TIP3    H243522   5.334   4.465   5.533
14549TIP3   OH243523   5.226   4.023   5.388
14549TIP3    H143524   5.175   4.058   5.314
14549TIP3    H243525   5.214   3.928   5.382
14550TIP3   OH243526   5.249   4.319   5.961
14550TIP3    H143527   5.250   4.224   5.944
14550TIP3    H243528   5.228   4.327   6.054
14551TIP3   OH243529   3.864   4.391   6.733
14551TIP3    H143530   3.854   4.352   6.647
14551TIP3    H243531   3.957   4.382   6.754
14552TIP3   OH243532   5.523   4.740   6.821
14552TIP3    H143533   5.592   4.675   6.809
14552TIP3    H243534   5.530   4.797   6.745
14553TIP3   OH243535   5.711   4.536   6.812
14553TIP3    H143536   5.637   4.489   6.850
14553TIP3    H243537   5.788   4.487   6.841
14554TIP3   OH243538   5.178   3.751   5.371
14554TIP3    H143539   5.238   3.727   5.442
14554TIP3    H243540   5.092   3.720   5.402
14555TIP3   OH243541   5.241   4.050   5.842
14555TIP3    H143542   5.286   3.967   5.854
14555TIP3    H243543   5.280   4.087   5.763
14556TIP3   OH243544   5.389   4.214   6.370
14556TIP3    H143545   5.470   4.232   6.322
14556TIP3    H243546   5.401   4.257   6.454
14557TIP3   OH243547   5.460   4.377   6.587
14557TIP3    H143548   5.391   4.400   6.649
14557TIP3    H243549   5.487   4.461   6.550
14558TIP3   OH243550   4.087   4.062   7.370
14558TIP3    H143551   4.180   4.060   7.392
14558TIP3    H243552   4.052   3.982   7.407
14559TIP3   OH243553   5.932   3.967   7.125
14559TIP3    H143554   5.995   3.907   7.086
14559TIP3    H243555   5.899   4.018   7.052
14560TIP3   OH243556   5.356   3.801   5.893
14560TIP3    H143557   5.401   3.787   5.977
14560TIP3    H243558   5.293   3.729   5.887
14561TIP3   OH243559   4.066   3.784   6.721
14561TIP3    H143560   4.117   3.703   6.729
14561TIP3    H243561   4.131   3.851   6.701
14562TIP3   OH243562   3.844   4.041   6.784
14562TIP3    H143563   3.892   4.033   6.702
14562TIP3    H243564   3.892   4.107   6.834
14563TIP3   OH243565   5.783   4.108   6.939
14563TIP3    H143566   5.721   4.142   7.004
14563TIP3    H243567   5.728   4.055   6.880
14564TIP3   OH243568   5.401   3.709   5.534
14564TIP3    H143569   5.451   3.648   5.479
14564TIP3    H243570   5.455   3.788   5.538
14565TIP3   OH243571   3.830   3.560   6.286
14565TIP3    H143572   3.745   3.546   6.327
14565TIP3    H243573   3.810   3.612   6.208
14566TIP3   OH243574   4.998   5.279   5.797
14566TIP3    H143575   5.033   5.242   5.716
14566TIP3    H243576   5.042   5.363   5.807
14567TIP3   OH243577   4.054   3.608   7.110
14567TIP3    H143578   4.002   3.597   7.190
14567TIP3    H243579   3.999   3.658   7.051
14568TIP3   OH243580   4.085   5.066   7.180
14568TIP3    H143581   3.991   5.048   7.175
14568TIP3    H243582   4.106   5.058   7.273
14569TIP3   OH243583   4.276   5.093   6.722
14569TIP3    H143584   4.213   5.101   6.651
14569TIP3    H243585   4.358   5.128   6.686
14570TIP3   OH243586   4.690   5.356   6.870
14570TIP3    H143587   4.727   5.344   6.958
14570TIP3    H243588   4.756   5.408   6.824
14571TIP3   OH243589   4.892   5.502   6.748
14571TIP3    H143590   4.957   5.445   6.707
14571TIP3    H243591   4.944   5.563   6.801
14572TIP3   OH243592   5.690   3.812   6.833
14572TIP3    H143593   5.599   3.790   6.813
14572TIP3    H243594   5.736   3.728   6.827
14573TIP3   OH243595   3.941   5.333   6.691
14573TIP3    H143596   3.856   5.374   6.703
14573TIP3    H243597   4.004   5.401   6.712
14574TIP3   OH243598   4.606   5.369   6.428
14574TIP3    H143599   4.559   5.385   6.346
14574TIP3    H243600   4.625   5.456   6.463
14575TIP3   OH243601   4.868   5.296   6.471
14575TIP3    H143602   4.776   5.317   6.456
14575TIP3    H243603   4.917   5.366   6.426
14576TIP3   OH243604   5.064   5.469   6.370
14576TIP3    H143605   5.065   5.556   6.332
14576TIP3    H243606   5.092   5.411   6.300
14577TIP3   OH243607   4.055   5.080   6.517
14577TIP3    H143608   4.060   4.985   6.506
14577TIP3    H243609   4.116   5.115   6.453
14578TIP3   OH243610   4.315   5.130   6.397
14578TIP3    H143611   4.326   5.039   6.372
14578TIP3    H243612   4.384   5.146   6.461
14579TIP3   OH243613   4.898   3.753   6.471
14579TIP3    H143614   4.859   3.682   6.522
14579TIP3    H243615   4.967   3.710   6.419
14580TIP3   OH243616   5.399   3.672   6.352
14580TIP3    H143617   5.433   3.724   6.279
14580TIP3    H243618   5.306   3.692   6.355
14581TIP3   OH243619   5.513   3.754   6.116
14581TIP3    H143620   5.582   3.692   6.093
14581TIP3    H243621   5.553   3.840   6.102
14582TIP3   OH243622   4.136   3.455   6.465
14582TIP3    H143623   4.048   3.421   6.476
14582TIP3    H243624   4.191   3.377   6.456
14583TIP3   OH243625   3.961   3.367   6.121
14583TIP3    H143626   3.985   3.415   6.042
14583TIP3    H243627   3.923   3.433   6.179
14584TIP3   OH243628   4.622   3.491   6.363
14584TIP3    H143629   4.670   3.539   6.296
14584TIP3    H243630   4.662   3.519   6.446
14585TIP3   OH243631   5.111   3.633   6.339
14585TIP3    H143632   5.124   3.595   6.252
14585TIP3    H243633   5.120   3.558   6.399
14586TIP3   OH243634   5.171   3.590   5.904
14586TIP3    H143635   5.091   3.637   5.930
14586TIP3    H243636   5.161   3.503   5.943
14587TIP3   OH243637   3.602   4.947   5.872
14587TIP3    H143638   3.515   4.912   5.859
14587TIP3    H243639   3.599   5.034   5.831
14588TIP3   OH243640   4.066   3.492   5.881
14588TIP3    H143641   4.111   3.430   5.824
14588TIP3    H243642   4.135   3.548   5.916
14589TIP3   OH243643   4.548   3.688   5.980
14589TIP3    H143644   4.607   3.635   6.034
14589TIP3    H243645   4.564   3.778   6.009
14590TIP3   OH243646   4.447   5.089   5.478
14590TIP3    H143647   4.527   5.102   5.426
14590TIP3    H243648   4.456   5.001   5.514
14591TIP3   OH243649   5.114   5.197   5.556
14591TIP3    H143650   5.087   5.111   5.522
14591TIP3    H243651   5.092   5.258   5.486
14592TIP3   OH243652   4.364   3.739   7.344
14592TIP3    H143653   4.329   3.673   7.404
14592TIP3    H243654   4.456   3.747   7.367
14593TIP3   OH243655   4.607   3.742   7.472
14593TIP3    H143656   4.684   3.724   7.419
14593TIP3    H243657   4.605   3.672   7.537
14594TIP3   OH243658   5.434   3.831   7.245
14594TIP3    H143659   5.450   3.807   7.336
14594TIP3    H243660   5.521   3.829   7.204
14595TIP3   OH243661   5.354   5.369   6.761
14595TIP3    H143662   5.279   5.339   6.709
14595TIP3    H243663   5.341   5.463   6.769
14596TIP3   OH243664   6.632   4.746   5.497
14596TIP3    H143665   6.597   4.834   5.485
14596TIP3    H243666   6.561   4.688   5.468
14597TIP3   OH243667   6.620   4.748   5.927
14597TIP3    H143668   6.678   4.725   6.000
14597TIP3    H243669   6.579   4.665   5.901
14598TIP3   OH243670   6.897   5.059   5.595
14598TIP3    H143671   6.887   4.991   5.661
14598TIP3    H243672   6.917   5.139   5.644
14599TIP3   OH243673   5.936   5.048   5.943
14599TIP3    H143674   5.927   4.953   5.957
14599TIP3    H243675   6.029   5.061   5.928
14600TIP3   OH243676   5.596   4.241   5.733
14600TIP3    H143677   5.553   4.321   5.763
14600TIP3    H243678   5.527   4.191   5.690
14601TIP3   OH243679   5.682   4.540   5.961
14601TIP3    H143680   5.727   4.461   5.989
14601TIP3    H243681   5.725   4.566   5.880
14602TIP3   OH243682   6.566   5.473   5.619
14602TIP3    H143683   6.589   5.413   5.548
14602TIP3    H243684   6.578   5.421   5.698
14603TIP3   OH243685   6.426   4.956   5.947
14603TIP3    H143686   6.475   4.880   5.917
14603TIP3    H243687   6.492   5.019   5.975
14604TIP3   OH243688   7.479   4.279   5.944
14604TIP3    H143689   7.490   4.362   5.991
14604TIP3    H243690   7.519   4.294   5.859
14605TIP3   OH243691   6.821   4.448   5.968
14605TIP3    H143692   6.866   4.367   5.992
14605TIP3    H243693   6.793   4.434   5.877
14606TIP3   OH243694   6.191   4.121   5.929
14606TIP3    H143695   6.171   4.189   5.865
14606TIP3    H243696   6.139   4.045   5.902
14607TIP3   OH243697   6.894   4.219   5.560
14607TIP3    H143698   6.959   4.216   5.630
14607TIP3    H243699   6.942   4.252   5.484
14608TIP3   OH243700   5.814   4.319   6.050
14608TIP3    H143701   5.895   4.298   6.096
14608TIP3    H243702   5.817   4.267   5.970
14609TIP3   OH243703   6.225   4.489   5.938
14609TIP3    H143704   6.317   4.498   5.913
14609TIP3    H243705   6.189   4.429   5.874
14610TIP3   OH243706   7.514   4.492   6.122
14610TIP3    H143707   7.437   4.547   6.106
14610TIP3    H243708   7.562   4.538   6.191
14611TIP3   OH243709   6.167   4.124   6.375
14611TIP3    H143710   6.120   4.164   6.302
14611TIP3    H243711   6.107   4.130   6.449
14612TIP3   OH243712   6.489   4.962   5.402
14612TIP3    H143713   6.470   4.946   5.310
14612TIP3    H243714   6.452   5.048   5.420
14613TIP3   OH243715   6.283   4.880   6.176
14613TIP3    H143716   6.221   4.948   6.201
14613TIP3    H243717   6.318   4.908   6.092
14614TIP3   OH243718   7.053   4.251   5.779
14614TIP3    H143719   7.016   4.228   5.864
14614TIP3    H243720   7.114   4.322   5.797
14615TIP3   OH243721   6.066   4.242   6.146
14615TIP3    H143722   6.107   4.328   6.154
14615TIP3    H243723   6.114   4.198   6.076
14616TIP3   OH243724   6.114   5.090   6.249
14616TIP3    H143725   6.104   5.178   6.214
14616TIP3    H243726   6.033   5.075   6.299
14617TIP3   OH243727   5.489   4.808   5.508
14617TIP3    H143728   5.409   4.833   5.463
14617TIP3    H243729   5.523   4.889   5.546
14618TIP3   OH243730   6.925   5.307   5.741
14618TIP3    H143731   6.836   5.301   5.775
14618TIP3    H243732   6.927   5.391   5.694
14619TIP3   OH243733   7.281   4.154   6.106
14619TIP3    H143734   7.197   4.189   6.075
14619TIP3    H243735   7.345   4.187   6.044
14620TIP3   OH243736   6.518   3.806   6.111
14620TIP3    H143737   6.513   3.714   6.138
14620TIP3    H243738   6.440   3.846   6.150
14621TIP3   OH243739   6.646   5.332   5.392
14621TIP3    H143740   6.695   5.251   5.380
14621TIP3    H243741   6.708   5.401   5.370
14622TIP3   OH243742   6.795   5.113   5.342
14622TIP3    H143743   6.809   5.039   5.283
14622TIP3    H243744   6.834   5.084   5.425
14623TIP3   OH243745   7.168   5.185   6.082
14623TIP3    H143746   7.152   5.112   6.022
14623TIP3    H243747   7.157   5.263   6.028
14624TIP3   OH243748   6.455   4.592   5.342
14624TIP3    H143749   6.373   4.638   5.326
14624TIP3    H243750   6.502   4.597   5.259
14625TIP3   OH243751   6.424   4.395   5.046
14625TIP3    H143752   6.492   4.443   5.094
14625TIP3    H243753   6.471   4.328   4.997
14626TIP3   OH243754   7.339   4.840   5.943
14626TIP3    H143755   7.259   4.891   5.933
14626TIP3    H243756   7.388   4.855   5.861
14627TIP3   OH243757   6.813   4.690   5.298
14627TIP3    H143758   6.758   4.714   5.373
14627TIP3    H243759   6.896   4.662   5.337
14628TIP3   OH243760   7.042   4.706   6.265
14628TIP3    H143761   7.042   4.790   6.310
14628TIP3    H243762   6.962   4.707   6.213
14629TIP3   OH243763   6.035   4.653   5.720
14629TIP3    H143764   6.005   4.592   5.652
14629TIP3    H243765   6.091   4.600   5.777
14630TIP3   OH243766   6.192   5.090   5.853
14630TIP3    H143767   6.175   5.072   5.761
14630TIP3    H243768   6.274   5.044   5.872
14631TIP3   OH243769   6.680   5.303   5.866
14631TIP3    H143770   6.676   5.382   5.919
14631TIP3    H243771   6.664   5.232   5.928
14632TIP3   OH243772   6.315   5.191   6.415
14632TIP3    H143773   6.253   5.248   6.461
14632TIP3    H243774   6.260   5.138   6.357
14633TIP3   OH243775   6.649   4.542   5.130
14633TIP3    H143776   6.709   4.601   5.175
14633TIP3    H243777   6.675   4.547   5.038
14634TIP3   OH243778   6.039   4.747   6.473
14634TIP3    H143779   6.058   4.833   6.511
14634TIP3    H243780   5.954   4.723   6.510
14635TIP3   OH243781   6.390   5.223   5.402
14635TIP3    H143782   6.477   5.263   5.405
14635TIP3    H243783   6.337   5.285   5.352
14636TIP3   OH243784   6.103   5.346   6.501
14636TIP3    H143785   6.077   5.358   6.409
14636TIP3    H243786   6.021   5.334   6.548
14637TIP3   OH243787   7.153   3.770   5.201
14637TIP3    H143788   7.079   3.794   5.257
14637TIP3    H243789   7.164   3.846   5.143
14638TIP3   OH243790   5.913   4.502   5.503
14638TIP3    H143791   5.833   4.550   5.479
14638TIP3    H243792   5.886   4.410   5.508
14639TIP3   OH243793   6.981   5.156   4.740
14639TIP3    H143794   6.972   5.251   4.725
14639TIP3    H243795   7.054   5.130   4.684
14640TIP3   OH243796   5.692   4.896   6.442
14640TIP3    H143797   5.619   4.889   6.381
14640TIP3    H243798   5.709   4.805   6.469
14641TIP3   OH243799   5.533   5.127   6.123
14641TIP3    H143800   5.620   5.159   6.150
14641TIP3    H243801   5.475   5.201   6.137
14642TIP3   OH243802   7.396   5.556   6.153
14642TIP3    H143803   7.402   5.461   6.165
14642TIP3    H243804   7.317   5.581   6.200
14643TIP3   OH243805   6.504   5.338   6.279
14643TIP3    H143806   6.493   5.428   6.309
14643TIP3    H243807   6.437   5.288   6.327
14644TIP3   OH243808   6.284   5.435   5.233
14644TIP3    H143809   6.238   5.415   5.152
14644TIP3    H243810   6.246   5.518   5.262
14645TIP3   OH243811   5.718   5.297   5.605
14645TIP3    H143812   5.765   5.292   5.689
14645TIP3    H243813   5.673   5.213   5.599
14646TIP3   OH243814   6.473   5.344   4.885
14646TIP3    H143815   6.527   5.281   4.837
14646TIP3    H243816   6.520   5.359   4.966
14647TIP3   OH243817   6.543   5.419   5.142
14647TIP3    H143818   6.454   5.421   5.178
14647TIP3    H243819   6.596   5.381   5.212
14648TIP3   OH243820   7.280   4.674   6.440
14648TIP3    H143821   7.202   4.677   6.384
14648TIP3    H243822   7.304   4.581   6.441
14649TIP3   OH243823   5.887   5.093   6.410
14649TIP3    H143824   5.939   5.083   6.490
14649TIP3    H243825   5.817   5.028   6.419
14650TIP3   OH243826   6.280   3.904   6.234
14650TIP3    H143827   6.198   3.866   6.204
14650TIP3    H243828   6.254   3.984   6.280
14651TIP3   OH243829   6.824   4.023   6.437
14651TIP3    H143830   6.896   3.998   6.496
14651TIP3    H243831   6.745   4.005   6.487
14652TIP3   OH243832   7.047   4.434   6.339
14652TIP3    H143833   7.011   4.430   6.428
14652TIP3    H243834   7.037   4.525   6.313
14653TIP3   OH243835   6.712   4.519   4.854
14653TIP3    H143836   6.673   4.520   4.767
14653TIP3    H243837   6.796   4.564   4.843
14654TIP3   OH243838   6.428   3.946   5.200
14654TIP3    H143839   6.394   3.952   5.289
14654TIP3    H243840   6.394   3.863   5.167
14655TIP3   OH243841   6.197   4.515   6.227
14655TIP3    H143842   6.284   4.476   6.233
14655TIP3    H243843   6.187   4.539   6.135
14656TIP3   OH243844   6.093   4.316   5.761
14656TIP3    H143845   6.005   4.286   5.782
14656TIP3    H243846   6.108   4.286   5.671
14657TIP3   OH243847   6.577   4.389   5.483
14657TIP3    H143848   6.530   4.461   5.441
14657TIP3    H243849   6.637   4.357   5.416
14658TIP3   OH243850   6.781   4.658   6.573
14658TIP3    H143851   6.751   4.590   6.634
14658TIP3    H243852   6.874   4.669   6.593
14659TIP3   OH243853   6.740   4.402   5.709
14659TIP3    H143854   6.679   4.423   5.638
14659TIP3    H243855   6.792   4.329   5.675
14660TIP3   OH243856   6.028   4.458   6.495
14660TIP3    H143857   5.948   4.495   6.532
14660TIP3    H243858   6.028   4.366   6.522
14661TIP3   OH243859   6.093   3.925   5.173
14661TIP3    H143860   6.085   3.929   5.269
14661TIP3    H243861   6.015   3.970   5.141
14662TIP3   OH243862   5.649   3.973   6.035
14662TIP3    H143863   5.726   4.002   6.083
14662TIP3    H243864   5.684   3.943   5.951
14663TIP3   OH243865   5.550   3.944   5.545
14663TIP3    H143866   5.593   3.978   5.467
14663TIP3    H243867   5.485   4.011   5.567
14664TIP3   OH243868   6.777   4.652   6.142
14664TIP3    H143869   6.803   4.586   6.078
14664TIP3    H243870   6.753   4.601   6.220
14665TIP3   OH243871   6.460   4.103   5.811
14665TIP3    H143872   6.382   4.101   5.867
14665TIP3    H243873   6.533   4.084   5.869
14666TIP3   OH243874   5.856   4.186   5.816
14666TIP3    H143875   5.768   4.189   5.777
14666TIP3    H243876   5.884   4.095   5.803
14667TIP3   OH243877   6.112   4.194   5.513
14667TIP3    H143878   6.207   4.203   5.503
14667TIP3    H243879   6.077   4.210   5.425
14668TIP3   OH243880   6.922   4.191   6.016
14668TIP3    H143881   6.897   4.203   6.108
14668TIP3    H243882   6.870   4.116   5.987
14669TIP3   OH243883   5.996   4.215   5.263
14669TIP3    H143884   5.934   4.167   5.210
14669TIP3    H243885   6.051   4.262   5.200
14670TIP3   OH243886   7.110   5.896   6.242
14670TIP3    H143887   7.110   5.905   6.146
14670TIP3    H243888   7.188   5.943   6.270
14671TIP3   OH243889   6.054   4.991   6.630
14671TIP3    H143890   6.136   5.011   6.676
14671TIP3    H243891   5.987   4.995   6.697
14672TIP3   OH243892   6.514   4.480   5.898
14672TIP3    H143893   6.572   4.449   5.828
14672TIP3    H243894   6.541   4.432   5.975
14673TIP3   OH243895   6.004   3.940   5.814
14673TIP3    H143896   5.976   3.864   5.866
14673TIP3    H243897   6.030   3.902   5.729
14674TIP3   OH243898   6.468   4.448   6.248
14674TIP3    H143899   6.468   4.544   6.244
14674TIP3    H243900   6.557   4.426   6.276
14675TIP3   OH243901   6.213   4.730   5.287
14675TIP3    H143902   6.138   4.676   5.262
14675TIP3    H243903   6.189   4.767   5.372
14676TIP3   OH243904   7.111   4.991   5.895
14676TIP3    H143905   7.150   5.038   5.821
14676TIP3    H243906   7.034   4.949   5.858
14677TIP3   OH243907   6.683   4.046   5.211
14677TIP3    H143908   6.590   4.027   5.203
14677TIP3    H243909   6.687   4.142   5.219
14678TIP3   OH243910   6.634   5.064   6.327
14678TIP3    H143911   6.699   5.058   6.396
14678TIP3    H243912   6.599   5.153   6.333
14679TIP3   OH243913   6.743   4.314   5.270
14679TIP3    H143914   6.839   4.315   5.281
14679TIP3    H243915   6.725   4.390   5.214
14680TIP3   OH243916   6.375   4.905   5.149
14680TIP3    H143917   6.323   4.985   5.144
14680TIP3    H243918   6.319   4.844   5.198
14681TIP3   OH243919   5.801   4.639   6.570
14681TIP3    H143920   5.796   4.624   6.664
14681TIP3    H243921   5.715   4.611   6.537
14682TIP3   OH243922   6.555   4.818   6.560
14682TIP3    H143923   6.537   4.823   6.466
14682TIP3    H243924   6.638   4.771   6.566
14683TIP3   OH243925   6.773   5.364   6.202
14683TIP3    H143926   6.678   5.349   6.207
14683TIP3    H243927   6.796   5.400   6.288
14684TIP3   OH243928   7.150   4.405   5.089
14684TIP3    H143929   7.091   4.358   5.029
14684TIP3    H243930   7.155   4.494   5.052
14685TIP3   OH243931   7.413   5.282   6.172
14685TIP3    H143932   7.320   5.257   6.175
14685TIP3    H243933   7.445   5.249   6.089
14686TIP3   OH243934   6.905   5.215   5.008
14686TIP3    H143935   6.878   5.139   5.060
14686TIP3    H243936   6.927   5.178   4.923
14687TIP3   OH243937   6.883   4.853   5.792
14687TIP3    H143938   6.792   4.833   5.813
14687TIP3    H243939   6.918   4.772   5.756
14688TIP3   OH243940   6.047   5.083   5.609
14688TIP3    H143941   6.048   5.158   5.550
14688TIP3    H243942   5.955   5.073   5.634
14689TIP3   OH243943   5.588   4.371   5.340
14689TIP3    H143944   5.627   4.456   5.358
14689TIP3    H243945   5.503   4.373   5.385
14690TIP3   OH243946   6.121   4.830   5.521
14690TIP3    H143947   6.108   4.921   5.548
14690TIP3    H243948   6.094   4.778   5.597
14691TIP3   OH243949   6.322   5.409   6.070
14691TIP3    H143950   6.358   5.483   6.021
14691TIP3    H243951   6.396   5.375   6.120
14692TIP3   OH243952   5.955   5.305   5.461
14692TIP3    H143953   5.868   5.315   5.499
14692TIP3    H243954   5.993   5.393   5.466
14693TIP3   OH243955   6.657   5.081   6.047
14693TIP3    H143956   6.650   5.072   6.142
14693TIP3    H243957   6.736   5.032   6.024
14694TIP3   OH243958   6.651   4.971   4.913
14694TIP3    H143959   6.696   4.956   4.996
14694TIP3    H243960   6.561   4.942   4.928
14695TIP3   OH243961   6.930   5.569   6.082
14695TIP3    H143962   6.860   5.507   6.101
14695TIP3    H243963   6.894   5.623   6.011
14696TIP3   OH243964   6.988   5.432   4.713
14696TIP3    H143965   7.038   5.509   4.683
14696TIP3    H243966   6.910   5.469   4.754
14697TIP3   OH243967   5.983   4.195   6.582
14697TIP3    H143968   5.889   4.206   6.593
14697TIP3    H243969   6.009   4.138   6.654
14698TIP3   OH243970   6.842   4.916   5.133
14698TIP3    H143971   6.823   4.839   5.187
14698TIP3    H243972   6.935   4.908   5.112
14699TIP3   OH243973   5.743   5.297   6.231
14699TIP3    H143974   5.799   5.240   6.284
14699TIP3    H243975   5.757   5.385   6.267
14700TIP3   OH243976   5.920   4.918   5.193
14700TIP3    H143977   6.008   4.885   5.212
14700TIP3    H243978   5.929   5.013   5.195
14701TIP3   OH243979   5.681   4.628   5.402
14701TIP3    H143980   5.616   4.681   5.448
14701TIP3    H243981   5.708   4.682   5.327
14702TIP3   OH243982   6.855   4.243   6.278
14702TIP3    H143983   6.936   4.287   6.305
14702TIP3    H243984   6.847   4.169   6.337
14703TIP3   OH243985   6.747   3.998   5.477
14703TIP3    H143986   6.726   4.015   5.385
14703TIP3    H243987   6.791   4.077   5.506
14704TIP3   OH243988   6.210   5.118   5.115
14704TIP3    H143989   6.127   5.137   5.159
14704TIP3    H243990   6.223   5.192   5.056
14705TIP3   OH243991   6.391   4.199   5.559
14705TIP3    H143992   6.454   4.266   5.532
14705TIP3    H243993   6.416   4.178   5.649
14706TIP3   OH243994   6.721   4.485   6.353
14706TIP3    H143995   6.748   4.529   6.434
14706TIP3    H243996   6.771   4.404   6.352
14707TIP3   OH243997   6.558   3.890   5.647
14707TIP3    H143998   6.534   3.968   5.698
14707TIP3    H243999   6.629   3.920   5.590
14708TIP3   OH244000   5.962   5.190   5.212
14708TIP3    H144001   5.938   5.263   5.154
14708TIP3    H244002   5.959   5.228   5.300
14709TIP3   OH244003   6.071   3.919   5.453
14709TIP3    H144004   6.060   4.010   5.483
14709TIP3    H244005   6.165   3.903   5.460
14710TIP3   OH244006   7.320   4.412   6.341
14710TIP3    H144007   7.226   4.398   6.336
14710TIP3    H244008   7.351   4.405   6.251
14711TIP3   OH244009   6.974   4.594   5.710
14711TIP3    H144010   6.902   4.532   5.722
14711TIP3    H244011   7.046   4.557   5.761
14712TIP3   OH244012   5.676   4.813   5.143
14712TIP3    H144013   5.619   4.880   5.181
14712TIP3    H244014   5.765   4.846   5.158
14713TIP3   OH244015   5.602   4.093   5.320
14713TIP3    H144016   5.612   4.187   5.335
14713TIP3    H244017   5.522   4.086   5.268
14714TIP3   OH244018   6.950   5.575   5.656
14714TIP3    H144019   6.904   5.628   5.591
14714TIP3    H244020   7.043   5.595   5.642
14715TIP3   OH244021   6.022   3.810   6.196
14715TIP3    H144022   5.992   3.776   6.112
14715TIP3    H244023   6.015   3.736   6.256
14716TIP3   OH244024   5.545   5.070   5.593
14716TIP3    H144025   5.506   5.112   5.670
14716TIP3    H244026   5.503   5.114   5.519
14717TIP3   OH244027   5.750   5.606   6.655
14717TIP3    H144028   5.832   5.610   6.703
14717TIP3    H244029   5.732   5.512   6.645
14718TIP3   OH244030   6.213   5.512   6.692
14718TIP3    H144031   6.303   5.482   6.704
14718TIP3    H244032   6.178   5.457   6.622
14719TIP3   OH244033   6.828   5.458   6.453
14719TIP3    H144034   6.842   5.387   6.516
14719TIP3    H244035   6.903   5.516   6.467
14720TIP3   OH244036   6.608   5.178   4.713
14720TIP3    H144037   6.631   5.101   4.764
14720TIP3    H244038   6.641   5.159   4.625
14721TIP3   OH244039   5.857   5.000   6.829
14721TIP3    H144040   5.876   4.907   6.843
14721TIP3    H244041   5.768   5.001   6.794
14722TIP3   OH244042   5.845   4.623   4.989
14722TIP3    H144043   5.892   4.605   5.070
14722TIP3    H244044   5.910   4.612   4.920
14723TIP3   OH244045   6.475   5.094   6.617
14723TIP3    H144046   6.428   5.118   6.537
14723TIP3    H244047   6.520   5.013   6.596
14724TIP3   OH244048   6.351   4.867   4.877
14724TIP3    H144049   6.353   4.883   4.972
14724TIP3    H244050   6.348   4.771   4.869
14725TIP3   OH244051   6.941   5.139   6.234
14725TIP3    H144052   7.020   5.161   6.185
14725TIP3    H244053   6.881   5.211   6.217
14726TIP3   OH244054   5.981   4.746   6.845
14726TIP3    H144055   6.050   4.684   6.823
14726TIP3    H244056   6.000   4.772   6.935
14727TIP3   OH244057   5.998   4.558   5.226
14727TIP3    H144058   5.979   4.530   5.315
14727TIP3    H244059   6.049   4.486   5.188
14728TIP3   OH244060   6.318   4.627   6.481
14728TIP3    H144061   6.338   4.675   6.561
14728TIP3    H244062   6.383   4.657   6.417
14729TIP3   OH244063   6.147   4.367   5.089
14729TIP3    H144064   6.121   4.355   4.998
14729TIP3    H244065   6.242   4.373   5.087
14730TIP3   OH244066   6.826   5.005   6.575
14730TIP3    H144067   6.901   4.975   6.523
14730TIP3    H244068   6.829   4.951   6.654
14731TIP3   OH244069   6.934   4.657   4.757
14731TIP3    H144070   6.936   4.626   4.666
14731TIP3    H244071   6.912   4.749   4.750
14732TIP3   OH244072   6.429   4.400   6.616
14732TIP3    H144073   6.435   4.319   6.567
14732TIP3    H244074   6.395   4.464   6.554
14733TIP3   OH244075   6.426   4.201   6.421
14733TIP3    H144076   6.443   4.255   6.344
14733TIP3    H244077   6.336   4.169   6.409
14734TIP3   OH244078   6.482   4.728   6.283
14734TIP3    H144079   6.563   4.757   6.241
14734TIP3    H244080   6.414   4.783   6.244
14735TIP3   OH244081   7.047   4.683   6.669
14735TIP3    H144082   7.089   4.598   6.681
14735TIP3    H244083   7.118   4.743   6.651
14736TIP3   OH244084   7.064   4.957   6.396
14736TIP3    H144085   7.014   5.021   6.345
14736TIP3    H244086   7.154   4.968   6.365
14737TIP3   OH244087   6.308   4.492   6.851
14737TIP3    H144088   6.244   4.428   6.881
14737TIP3    H244089   6.341   4.457   6.769
14738TIP3   OH244090   6.559   3.973   6.517
14738TIP3    H144091   6.516   4.051   6.485
14738TIP3    H244092   6.495   3.903   6.505
14739TIP3   OH244093   6.689   4.445   6.718
14739TIP3    H144094   6.687   4.432   6.813
14739TIP3    H244095   6.601   4.423   6.689
14740TIP3   OH244096   6.931   4.395   6.581
14740TIP3    H144097   6.854   4.395   6.638
14740TIP3    H244098   7.004   4.374   6.640
14741TIP3   OH244099   7.158   4.363   6.740
14741TIP3    H144100   7.177   4.269   6.745
14741TIP3    H244101   7.156   4.392   6.832
14742TIP3   OH244102   6.162   4.263   6.922
14742TIP3    H144103   6.160   4.174   6.885
14742TIP3    H244104   6.200   4.251   7.009
14743TIP3   OH244105   6.626   3.948   6.783
14743TIP3    H144106   6.695   3.882   6.777
14743TIP3    H244107   6.595   3.959   6.693
14744TIP3   OH244108   6.717   4.165   6.927
14744TIP3    H144109   6.688   4.091   6.874
14744TIP3    H244110   6.642   4.225   6.927
14745TIP3   OH244111   5.953   5.407   5.041
14745TIP3    H144112   6.046   5.393   5.022
14745TIP3    H244113   5.919   5.450   4.962
14746TIP3   OH244114   5.327   5.358   5.658
14746TIP3    H144115   5.268   5.298   5.612
14746TIP3    H244116   5.374   5.303   5.720
14747TIP3   OH244117   5.486   5.212   5.836
14747TIP3    H144118   5.475   5.149   5.907
14747TIP3    H244119   5.538   5.283   5.875
14748TIP3   OH244120   7.211   5.659   5.642
14748TIP3    H144121   7.249   5.657   5.730
14748TIP3    H244122   7.285   5.669   5.583
14749TIP3   OH244123   7.259   5.637   5.922
14749TIP3    H144124   7.209   5.555   5.914
14749TIP3    H244125   7.323   5.619   5.991
14750TIP3   OH244126   7.296   5.350   6.501
14750TIP3    H144127   7.225   5.359   6.565
14750TIP3    H244128   7.344   5.433   6.507
14751TIP3   OH244129   7.118   4.875   5.099
14751TIP3    H144130   7.178   4.944   5.069
14751TIP3    H244131   7.165   4.832   5.171
14752TIP3   OH244132   7.246   4.727   5.300
14752TIP3    H144133   7.180   4.690   5.358
14752TIP3    H244134   7.313   4.761   5.359
14753TIP3   OH244135   7.298   5.122   5.733
14753TIP3    H144136   7.353   5.049   5.703
14753TIP3    H244137   7.316   5.192   5.670
14754TIP3   OH244138   7.103   5.408   5.932
14754TIP3    H144139   7.037   5.456   5.983
14754TIP3    H244140   7.053   5.368   5.860
14755TIP3   OH244141   7.135   4.642   4.948
14755TIP3    H144142   7.066   4.644   4.881
14755TIP3    H244143   7.123   4.724   4.995
14756TIP3   OH244144   6.984   4.290   4.905
14756TIP3    H144145   6.942   4.325   4.826
14756TIP3    H244146   6.985   4.195   4.891
14757TIP3   OH244147   7.037   4.590   5.436
14757TIP3    H144148   7.047   4.496   5.423
14757TIP3    H244149   7.021   4.600   5.530
14758TIP3   OH244150   5.675   4.624   6.221
14758TIP3    H144151   5.663   4.595   6.131
14758TIP3    H244152   5.738   4.695   6.215
14759TIP3   OH244153   7.323   4.992   6.297
14759TIP3    H144154   7.388   4.922   6.289
14759TIP3    H244155   7.329   5.040   6.214
14760TIP3   OH244156   7.496   4.779   6.305
14760TIP3    H144157   7.426   4.740   6.357
14760TIP3    H244158   7.572   4.724   6.322
14761TIP3   OH244159   6.965   4.019   4.860
14761TIP3    H144160   7.033   3.993   4.922
14761TIP3    H244161   6.885   3.978   4.894
14762TIP3   OH244162   7.032   4.308   5.328
14762TIP3    H144163   7.080   4.227   5.342
14762TIP3    H244164   7.074   4.348   5.251
14763TIP3   OH244165   7.193   4.481   5.849
14763TIP3    H144166   7.275   4.497   5.802
14763TIP3    H244167   7.209   4.518   5.936
14764TIP3   OH244168   7.264   4.620   6.086
14764TIP3    H144169   7.194   4.653   6.142
14764TIP3    H244170   7.295   4.697   6.038
14765TIP3   OH244171   5.906   4.362   6.900
14765TIP3    H144172   5.999   4.339   6.908
14765TIP3    H244173   5.860   4.279   6.910
14766TIP3   OH244174   7.725   4.214   6.621
14766TIP3    H144175   7.792   4.161   6.578
14766TIP3    H244176   7.685   4.265   6.551
14767TIP3   OH244177   7.152   4.063   5.384
14767TIP3    H144178   7.204   4.049   5.464
14767TIP3    H244179   7.093   3.988   5.380
14768TIP3   OH244180   5.864   4.039   6.200
14768TIP3    H144181   5.915   3.958   6.211
14768TIP3    H244182   5.929   4.107   6.189
14769TIP3   OH244183   5.630   4.307   6.267
14769TIP3    H144184   5.682   4.285   6.190
14769TIP3    H244185   5.649   4.400   6.282
14770TIP3   OH244186   7.571   4.327   6.426
14770TIP3    H144187   7.487   4.370   6.438
14770TIP3    H244188   7.552   4.250   6.372
14771TIP3   OH244189   7.188   3.970   5.015
14771TIP3    H144190   7.238   3.910   4.960
14771TIP3    H244191   7.243   4.048   5.021
14772TIP3   OH244192   5.628   3.823   5.777
14772TIP3    H144193   5.543   3.805   5.816
14772TIP3    H244194   5.608   3.873   5.698
14773TIP3   OH244195   6.793   5.539   5.297
14773TIP3    H144196   6.839   5.519   5.216
14773TIP3    H244197   6.841   5.613   5.335
14774TIP3   OH244198   5.847   3.879   6.608
14774TIP3    H144199   5.795   3.864   6.686
14774TIP3    H244200   5.786   3.919   6.545
14775TIP3   OH244201   5.879   5.322   6.667
14775TIP3    H144202   5.785   5.304   6.658
14775TIP3    H244203   5.897   5.308   6.760
14776TIP3   OH244204   6.092   5.368   6.217
14776TIP3    H144205   6.042   5.444   6.186
14776TIP3    H244206   6.177   5.377   6.174
14777TIP3   OH244207   6.485   5.605   6.356
14777TIP3    H144208   6.522   5.597   6.444
14777TIP3    H244209   6.548   5.658   6.308
14778TIP3   OH244210   6.677   5.757   6.229
14778TIP3    H144211   6.737   5.702   6.178
14778TIP3    H244212   6.735   5.811   6.283
14779TIP3   OH244213   7.486   4.087   6.312
14779TIP3    H144214   7.406   4.089   6.261
14779TIP3    H244215   7.517   3.997   6.305
14780TIP3   OH244216   5.753   5.604   6.269
14780TIP3    H144217   5.661   5.621   6.245
14780TIP3    H244218   5.774   5.671   6.333
14781TIP3   OH244219   5.984   5.603   6.118
14781TIP3    H144220   5.901   5.605   6.165
14781TIP3    H244221   5.961   5.626   6.028
14782TIP3   OH244222   6.397   5.623   5.911
14782TIP3    H144223   6.326   5.632   5.847
14782TIP3    H244224   6.404   5.710   5.950
14783TIP3   OH244225   6.664   5.566   5.957
14783TIP3    H144226   6.572   5.582   5.935
14783TIP3    H244227   6.711   5.632   5.905
14784TIP3   OH244228   6.872   5.742   5.861
14784TIP3    H144229   6.865   5.827   5.818
14784TIP3    H244230   6.899   5.682   5.791
14785TIP3   OH244231   5.660   5.391   5.977
14785TIP3    H144232   5.681   5.365   6.066
14785TIP3    H244233   5.735   5.361   5.925
14786TIP3   OH244234   5.869   5.289   5.837
14786TIP3    H144235   5.883   5.204   5.878
14786TIP3    H244236   5.956   5.330   5.839
14787TIP3   OH244237   6.139   5.365   5.863
14787TIP3    H144238   6.160   5.274   5.843
14787TIP3    H244239   6.193   5.386   5.940
14788TIP3   OH244240   6.671   3.999   5.954
14788TIP3    H144241   6.637   3.928   6.009
14788TIP3    H244242   6.746   3.961   5.909
14789TIP3   OH244243   7.204   3.927   5.830
14789TIP3    H144244   7.245   3.976   5.760
14789TIP3    H244245   7.116   3.965   5.839
14790TIP3   OH244246   7.321   4.013   5.598
14790TIP3    H144247   7.387   3.948   5.573
14790TIP3    H244248   7.366   4.097   5.587
14791TIP3   OH244249   5.933   3.711   5.954
14791TIP3    H144250   5.844   3.676   5.965
14791TIP3    H244251   5.987   3.633   5.944
14792TIP3   OH244252   5.758   3.627   5.611
14792TIP3    H144253   5.783   3.674   5.532
14792TIP3    H244254   5.722   3.694   5.669
14793TIP3   OH244255   6.414   3.750   5.848
14793TIP3    H144256   6.465   3.795   5.780
14793TIP3    H244257   6.457   3.776   5.930
14794TIP3   OH244258   6.902   3.900   5.840
14794TIP3    H144259   6.922   3.871   5.751
14794TIP3    H244260   6.915   3.823   5.894
14795TIP3   OH244261   6.969   3.849   5.391
14795TIP3    H144262   6.890   3.896   5.417
14795TIP3    H244263   6.959   3.762   5.429
14796TIP3   OH244264   5.434   5.195   5.377
14796TIP3    H144265   5.351   5.171   5.335
14796TIP3    H244266   5.450   5.285   5.349
14797TIP3   OH244267   5.864   3.747   5.369
14797TIP3    H144268   5.909   3.684   5.313
14797TIP3    H244269   5.934   3.803   5.403
14798TIP3   OH244270   6.346   3.945   5.465
14798TIP3    H144271   6.405   3.892   5.518
14798TIP3    H244272   6.362   4.035   5.493
14799TIP3   OH244273   6.212   5.356   4.957
14799TIP3    H144274   6.305   5.356   4.937
14799TIP3    H244275   6.169   5.363   4.872
14800TIP3   OH244276   6.926   5.483   5.061
14800TIP3    H144277   6.924   5.388   5.050
14800TIP3    H244278   6.885   5.517   4.981
14801TIP3   OH244279   6.167   3.991   6.839
14801TIP3    H144280   6.130   3.923   6.896
14801TIP3    H244281   6.258   3.999   6.866
14802TIP3   OH244282   6.413   3.998   6.963
14802TIP3    H144283   6.490   3.974   6.911
14802TIP3    H244284   6.404   3.927   7.027
14803TIP3   OH244285   7.232   4.095   6.742
14803TIP3    H144286   7.249   4.065   6.831
14803TIP3    H244287   7.316   4.088   6.698
14804TIP3   OH244288   7.147   5.623   6.250
14804TIP3    H144289   7.074   5.592   6.196
14804TIP3    H244290   7.133   5.717   6.258
14805TIP3   OH244291   8.428   5.014   4.985
14805TIP3    H144292   8.391   5.101   4.968
14805TIP3    H244293   8.359   4.953   4.961
14806TIP3   OH244294   8.457   5.015   5.421
14806TIP3    H144295   8.510   4.979   5.492
14806TIP3    H244296   8.401   4.943   5.393
14807TIP3   OH244297   7.739   4.899   5.752
14807TIP3    H144298   7.761   4.813   5.787
14807TIP3    H244299   7.789   4.960   5.807
14808TIP3   OH244300   8.701   5.297   5.084
14808TIP3    H144301   8.685   5.216   5.132
14808TIP3    H244302   8.720   5.362   5.152
14809TIP3   OH244303   7.688   5.284   5.456
14809TIP3    H144304   7.678   5.189   5.456
14809TIP3    H244305   7.782   5.298   5.445
14810TIP3   OH244306   7.387   4.486   5.229
14810TIP3    H144307   7.358   4.575   5.250
14810TIP3    H244308   7.313   4.446   5.184
14811TIP3   OH244309   7.471   4.808   5.448
14811TIP3    H144310   7.521   4.731   5.475
14811TIP3    H244311   7.537   4.872   5.422
14812TIP3   OH244312   8.312   5.714   5.082
14812TIP3    H144313   8.368   5.669   5.019
14812TIP3    H244314   8.232   5.662   5.085
14813TIP3   OH244315   8.193   5.221   5.404
14813TIP3    H144316   8.214   5.142   5.354
14813TIP3    H244317   8.278   5.255   5.431
14814TIP3   OH244318   9.204   4.537   5.452
14814TIP3    H144319   9.229   4.620   5.492
14814TIP3    H244320   9.227   4.546   5.360
14815TIP3   OH244321   8.643   4.703   5.447
14815TIP3    H144322   8.675   4.616   5.473
14815TIP3    H244323   8.599   4.688   5.363
14816TIP3   OH244324   8.022   4.350   5.409
14816TIP3    H144325   7.992   4.406   5.480
14816TIP3    H244326   7.943   4.306   5.378
14817TIP3   OH244327   8.687   4.475   5.050
14817TIP3    H144328   8.753   4.469   5.119
14817TIP3    H244329   8.734   4.510   4.975
14818TIP3   OH244330   7.618   4.598   5.543
14818TIP3    H144331   7.704   4.593   5.584
14818TIP3    H244332   7.624   4.541   5.467
14819TIP3   OH244333   8.043   4.805   5.302
14819TIP3    H144334   8.132   4.781   5.328
14819TIP3    H244335   7.998   4.721   5.291
14820TIP3   OH244336   9.279   4.743   5.622
14820TIP3    H144337   9.204   4.799   5.602
14820TIP3    H244338   9.262   4.713   5.712
14821TIP3   OH244339   7.984   4.358   5.888
14821TIP3    H144340   7.954   4.408   5.812
14821TIP3    H244341   7.917   4.374   5.955
14822TIP3   OH244342   8.291   5.231   4.887
14822TIP3    H144343   8.265   5.207   4.798
14822TIP3    H244344   8.241   5.311   4.905
14823TIP3   OH244345   8.112   5.175   5.670
14823TIP3    H144346   8.034   5.228   5.689
14823TIP3    H244347   8.129   5.190   5.577
14824TIP3   OH244348   8.855   4.497   5.264
14824TIP3    H144349   8.813   4.471   5.346
14824TIP3    H244350   8.909   4.573   5.287
14825TIP3   OH244351   7.906   5.354   5.734
14825TIP3    H144352   7.893   5.443   5.703
14825TIP3    H244353   7.825   5.332   5.781
14826TIP3   OH244354   7.308   5.063   5.000
14826TIP3    H144355   7.328   5.086   4.910
14826TIP3    H244356   7.324   5.144   5.050
14827TIP3   OH244357   8.687   5.564   5.203
14827TIP3    H144358   8.640   5.542   5.122
14827TIP3    H244359   8.774   5.592   5.173
14828TIP3   OH244360   9.028   4.422   5.627
14828TIP3    H144361   8.939   4.435   5.595
14828TIP3    H244362   9.084   4.454   5.556
14829TIP3   OH244363   8.312   4.071   5.596
14829TIP3    H144364   8.304   3.978   5.619
14829TIP3    H244365   8.233   4.111   5.633
14830TIP3   OH244366   8.441   5.579   4.878
14830TIP3    H144367   8.491   5.499   4.863
14830TIP3    H244368   8.501   5.649   4.851
14831TIP3   OH244369   8.600   5.367   4.834
14831TIP3    H144370   8.597   5.293   4.773
14831TIP3    H244371   8.636   5.330   4.914
14832TIP3   OH244372   8.925   5.477   5.572
14832TIP3    H144373   8.918   5.398   5.518
14832TIP3    H244374   8.881   5.545   5.521
14833TIP3   OH244375   8.254   4.852   4.837
14833TIP3    H144376   8.170   4.897   4.823
14833TIP3    H244377   8.295   4.851   4.751
14834TIP3   OH244378   8.220   4.652   4.527
14834TIP3    H144379   8.285   4.703   4.575
14834TIP3    H244380   8.270   4.585   4.481
14835TIP3   OH244381   9.131   5.117   5.453
14835TIP3    H144382   9.050   5.168   5.451
14835TIP3    H244383   9.164   5.122   5.363
14836TIP3   OH244384   8.608   4.937   4.794
14836TIP3    H144385   8.552   4.964   4.867
14836TIP3    H244386   8.690   4.910   4.835
14837TIP3   OH244387   8.846   4.970   5.756
14837TIP3    H144388   8.842   5.054   5.801
14837TIP3    H244389   8.767   4.968   5.702
14838TIP3   OH244390   7.824   4.935   5.211
14838TIP3    H144391   7.792   4.876   5.143
14838TIP3    H244392   7.903   4.893   5.245
14839TIP3   OH244393   7.947   5.346   5.352
14839TIP3    H144394   7.925   5.329   5.261
14839TIP3    H244395   8.031   5.301   5.365
14840TIP3   OH244396   8.475   5.539   5.404
14840TIP3    H144397   8.383   5.553   5.379
14840TIP3    H244398   8.477   5.449   5.437
14841TIP3   OH244399   8.101   5.446   5.910
14841TIP3    H144400   8.036   5.503   5.951
14841TIP3    H244401   8.051   5.393   5.849
14842TIP3   OH244402   8.441   4.795   4.625
14842TIP3    H144403   8.500   4.855   4.671
14842TIP3    H244404   8.469   4.799   4.534
14843TIP3   OH244405   7.842   5.047   5.981
14843TIP3    H144406   7.852   5.132   6.024
14843TIP3    H244407   7.759   5.014   6.014
14844TIP3   OH244408   8.181   5.495   4.912
14844TIP3    H144409   8.271   5.520   4.893
14844TIP3    H244410   8.129   5.539   4.845
14845TIP3   OH244411   7.893   5.612   5.983
14845TIP3    H144412   7.870   5.620   5.891
14845TIP3    H244413   7.809   5.599   6.027
14846TIP3   OH244414   8.920   4.034   4.688
14846TIP3    H144415   8.849   4.052   4.749
14846TIP3    H244416   8.928   4.114   4.636
14847TIP3   OH244417   7.730   4.767   5.002
14847TIP3    H144418   7.638   4.785   4.982
14847TIP3    H244419   7.728   4.687   5.053
14848TIP3   OH244420   8.746   5.415   4.252
14848TIP3    H144421   8.748   5.504   4.217
14848TIP3    H244422   8.834   5.380   4.233
14849TIP3   OH244423   7.490   5.168   5.938
14849TIP3    H144424   7.425   5.143   5.872
14849TIP3    H244425   7.523   5.085   5.971
14850TIP3   OH244426   7.413   5.332   5.572
14850TIP3    H144427   7.496   5.308   5.531
14850TIP3    H244428   7.435   5.402   5.633
14851TIP3   OH244429   9.198   5.798   5.638
14851TIP3    H144430   9.197   5.703   5.649
14851TIP3    H244431   9.125   5.830   5.692
14852TIP3   OH244432   8.283   5.593   5.765
14852TIP3    H144433   8.286   5.681   5.800
14852TIP3    H244434   8.222   5.546   5.821
14853TIP3   OH244435   8.082   5.686   4.716
14853TIP3    H144436   8.044   5.659   4.633
14853TIP3    H244437   8.042   5.771   4.735
14854TIP3   OH244438   7.516   5.554   5.100
14854TIP3    H144439   7.563   5.545   5.184
14854TIP3    H244440   7.468   5.472   5.091
14855TIP3   OH244441   8.280   5.642   4.349
14855TIP3    H144442   8.323   5.563   4.317
14855TIP3    H244443   8.314   5.654   4.438
14856TIP3   OH244444   8.338   5.677   4.618
14856TIP3    H144445   8.251   5.675   4.657
14856TIP3    H244446   8.395   5.638   4.685
14857TIP3   OH244447   9.091   4.921   5.910
14857TIP3    H144448   9.000   4.943   5.892
14857TIP3    H244449   9.095   4.826   5.902
14858TIP3   OH244450   7.680   5.364   5.901
14858TIP3    H144451   7.734   5.355   5.979
14858TIP3    H244452   7.614   5.296   5.909
14859TIP3   OH244453   8.073   4.157   5.715
14859TIP3    H144454   7.989   4.129   5.680
14859TIP3    H244455   8.054   4.239   5.761
14860TIP3   OH244456   8.622   4.282   5.922
14860TIP3    H144457   8.690   4.257   5.985
14860TIP3    H244458   8.540   4.268   5.969
14861TIP3   OH244459   8.817   4.712   5.864
14861TIP3    H144460   8.783   4.712   5.954
14861TIP3    H244461   8.812   4.804   5.836
14862TIP3   OH244462   8.515   4.768   4.361
14862TIP3    H144463   8.465   4.778   4.280
14862TIP3    H244464   8.598   4.813   4.344
14863TIP3   OH244465   8.227   4.197   4.687
14863TIP3    H144466   8.190   4.204   4.775
14863TIP3    H244467   8.192   4.115   4.652
14864TIP3   OH244468   7.866   4.598   5.228
14864TIP3    H144469   7.804   4.554   5.286
14864TIP3    H244470   7.883   4.534   5.158
14865TIP3   OH244471   8.371   4.647   4.975
14865TIP3    H144472   8.324   4.719   4.935
14865TIP3    H244473   8.427   4.613   4.905
14866TIP3   OH244474   8.585   4.956   6.037
14866TIP3    H144475   8.581   4.926   6.128
14866TIP3    H244476   8.678   4.967   6.019
14867TIP3   OH244477   8.536   4.658   5.197
14867TIP3    H144478   8.469   4.677   5.130
14867TIP3    H244479   8.585   4.584   5.161
14868TIP3   OH244480   7.793   4.706   5.969
14868TIP3    H144481   7.884   4.737   5.962
14868TIP3    H244482   7.802   4.613   5.990
14869TIP3   OH244483   7.896   4.175   4.664
14869TIP3    H144484   7.888   4.181   4.760
14869TIP3    H244485   7.819   4.221   4.631
14870TIP3   OH244486   7.465   4.235   5.543
14870TIP3    H144487   7.529   4.270   5.606
14870TIP3    H244488   7.499   4.262   5.457
14871TIP3   OH244489   7.336   4.205   5.026
14871TIP3    H144490   7.382   4.241   4.950
14871TIP3    H244491   7.277   4.275   5.053
14872TIP3   OH244492   8.611   4.908   5.621
14872TIP3    H144493   8.631   4.835   5.562
14872TIP3    H244494   8.564   4.868   5.694
14873TIP3   OH244495   8.267   4.360   5.288
14873TIP3    H144496   8.184   4.358   5.334
14873TIP3    H244497   8.333   4.351   5.357
14874TIP3   OH244498   7.648   4.441   5.322
14874TIP3    H144499   7.565   4.440   5.275
14874TIP3    H244500   7.687   4.356   5.303
14875TIP3   OH244501   7.903   4.433   5.007
14875TIP3    H144502   7.997   4.452   5.002
14875TIP3    H244503   7.870   4.455   4.920
14876TIP3   OH244504   8.716   4.438   5.497
14876TIP3    H144505   8.704   4.455   5.590
14876TIP3    H244506   8.643   4.380   5.474
14877TIP3   OH244507   7.802   4.464   4.753
14877TIP3    H144508   7.738   4.418   4.698
14877TIP3    H244509   7.855   4.515   4.691
14878TIP3   OH244510   8.908   6.147   5.727
14878TIP3    H144511   8.901   6.159   5.632
14878TIP3    H244512   8.984   6.199   5.752
14879TIP3   OH244513   7.842   5.285   6.133
14879TIP3    H144514   7.924   5.293   6.181
14879TIP3    H244515   7.774   5.284   6.200
14880TIP3   OH244516   8.320   4.758   5.384
14880TIP3    H144517   8.378   4.710   5.326
14880TIP3    H244518   8.302   4.698   5.456
14881TIP3   OH244519   7.790   4.202   5.297
14881TIP3    H144520   7.766   4.124   5.348
14881TIP3    H244521   7.823   4.166   5.214
14882TIP3   OH244522   8.016   4.990   4.785
14882TIP3    H144523   7.941   4.935   4.762
14882TIP3    H244524   7.992   5.028   4.870
14883TIP3   OH244525   8.900   5.261   5.399
14883TIP3    H144526   8.944   5.300   5.322
14883TIP3    H244527   8.830   5.208   5.362
14884TIP3   OH244528   8.478   4.304   4.696
14884TIP3    H144529   8.384   4.282   4.691
14884TIP3    H244530   8.480   4.399   4.706
14885TIP3   OH244531   8.467   5.383   5.759
14885TIP3    H144532   8.457   5.352   5.849
14885TIP3    H244533   8.410   5.459   5.753
14886TIP3   OH244534   8.534   4.569   4.760
14886TIP3    H144535   8.629   4.575   4.771
14886TIP3    H244536   8.511   4.645   4.707
14887TIP3   OH244537   7.693   5.000   5.450
14887TIP3    H144538   7.743   4.979   5.371
14887TIP3    H244539   7.742   4.957   5.521
14888TIP3   OH244540   8.181   5.146   4.638
14888TIP3    H144541   8.134   5.229   4.631
14888TIP3    H244542   8.122   5.088   4.684
14889TIP3   OH244543   7.601   4.963   6.090
14889TIP3    H144544   7.635   4.963   6.179
14889TIP3    H244545   7.573   4.873   6.075
14890TIP3   OH244546   8.348   5.092   6.067
14890TIP3    H144547   8.292   5.058   5.997
14890TIP3    H244548   8.433   5.051   6.051
14891TIP3   OH244549   8.939   4.665   4.580
14891TIP3    H144550   8.889   4.618   4.514
14891TIP3    H244551   8.939   4.756   4.551
14892TIP3   OH244552   9.188   5.517   5.656
14892TIP3    H144553   9.093   5.512   5.652
14892TIP3    H244554   9.218   5.480   5.573
14893TIP3   OH244555   8.717   5.471   4.521
14893TIP3    H144556   8.671   5.402   4.568
14893TIP3    H244557   8.718   5.442   4.430
14894TIP3   OH244558   8.696   5.100   5.280
14894TIP3    H144559   8.609   5.082   5.318
14894TIP3    H244560   8.724   5.015   5.245
14895TIP3   OH244561   7.828   5.344   5.100
14895TIP3    H144562   7.828   5.423   5.046
14895TIP3    H244563   7.737   5.313   5.098
14896TIP3   OH244564   7.370   4.621   4.803
14896TIP3    H144565   7.422   4.696   4.834
14896TIP3    H244566   7.290   4.625   4.855
14897TIP3   OH244567   7.930   5.102   5.015
14897TIP3    H144568   7.912   5.192   5.043
14897TIP3    H244569   7.897   5.048   5.086
14898TIP3   OH244570   8.119   5.668   5.554
14898TIP3    H144571   8.166   5.739   5.510
14898TIP3    H244572   8.183   5.632   5.615
14899TIP3   OH244573   7.751   5.570   4.953
14899TIP3    H144574   7.664   5.578   4.993
14899TIP3    H244575   7.786   5.659   4.956
14900TIP3   OH244576   8.448   5.285   5.498
14900TIP3    H144577   8.459   5.296   5.593
14900TIP3    H244578   8.467   5.192   5.483
14901TIP3   OH244579   8.467   5.210   4.412
14901TIP3    H144580   8.502   5.193   4.500
14901TIP3    H244581   8.383   5.165   4.411
14902TIP3   OH244582   8.764   5.685   4.193
14902TIP3    H144583   8.757   5.732   4.110
14902TIP3    H244584   8.700   5.728   4.250
14903TIP3   OH244585   7.798   4.428   6.080
14903TIP3    H144586   7.704   4.436   6.091
14903TIP3    H244587   7.827   4.378   6.157
14904TIP3   OH244588   8.623   5.165   4.640
14904TIP3    H144589   8.606   5.086   4.691
14904TIP3    H244590   8.716   5.161   4.618
14905TIP3   OH244591   7.533   5.547   5.729
14905TIP3    H144592   7.585   5.486   5.781
14905TIP3    H244593   7.548   5.633   5.770
14906TIP3   OH244594   7.868   5.149   4.426
14906TIP3    H144595   7.842   5.067   4.385
14906TIP3    H244596   7.813   5.154   4.505
14907TIP3   OH244597   7.759   5.197   4.688
14907TIP3    H144598   7.840   5.172   4.732
14907TIP3    H244599   7.762   5.293   4.687
14908TIP3   OH244600   7.479   4.854   4.914
14908TIP3    H144601   7.421   4.904   4.971
14908TIP3    H244602   7.507   4.916   4.847
14909TIP3   OH244603   8.685   4.494   5.756
14909TIP3    H144604   8.729   4.563   5.805
14909TIP3    H244605   8.663   4.428   5.822
14910TIP3   OH244606   8.537   4.257   4.963
14910TIP3    H144607   8.516   4.275   4.872
14910TIP3    H244608   8.579   4.337   4.995
14911TIP3   OH244609   8.036   5.374   4.623
14911TIP3    H144610   7.955   5.411   4.659
14911TIP3    H244611   8.033   5.396   4.530
14912TIP3   OH244612   8.183   4.453   5.040
14912TIP3    H144613   8.243   4.524   5.015
14912TIP3    H244614   8.206   4.433   5.131
14913TIP3   OH244615   8.489   4.792   5.835
14913TIP3    H144616   8.512   4.844   5.912
14913TIP3    H244617   8.502   4.701   5.862
14914TIP3   OH244618   8.351   4.147   5.133
14914TIP3    H144619   8.326   4.224   5.184
14914TIP3    H244620   8.420   4.178   5.074
14915TIP3   OH244621   7.789   5.472   4.699
14915TIP3    H144622   7.766   5.545   4.641
14915TIP3    H244623   7.776   5.507   4.788
14916TIP3   OH244624   7.865   4.164   4.942
14916TIP3    H144625   7.852   4.254   4.973
14916TIP3    H244626   7.960   4.150   4.950
14917TIP3   OH244627   9.071   4.643   5.804
14917TIP3    H144628   8.981   4.663   5.830
14917TIP3    H244629   9.064   4.567   5.746
14918TIP3   OH244630   8.764   4.842   5.192
14918TIP3    H144631   8.686   4.788   5.205
14918TIP3    H244632   8.831   4.803   5.248
14919TIP3   OH244633   7.526   5.050   4.727
14919TIP3    H144634   7.598   5.114   4.726
14919TIP3    H244635   7.542   4.995   4.651
14920TIP3   OH244636   7.417   4.347   4.805
14920TIP3    H144637   7.417   4.442   4.816
14920TIP3    H244638   7.412   4.333   4.711
14921TIP3   OH244639   8.713   5.858   5.165
14921TIP3    H144640   8.688   5.894   5.080
14921TIP3    H244641   8.799   5.817   5.149
14922TIP3   OH244642   7.810   4.073   5.677
14922TIP3    H144643   7.780   4.044   5.591
14922TIP3    H244644   7.801   3.995   5.732
14923TIP3   OH244645   7.345   5.330   5.093
14923TIP3    H144646   7.305   5.367   5.173
14923TIP3    H244647   7.295   5.369   5.022
14924TIP3   OH244648   7.548   5.870   6.145
14924TIP3    H144649   7.630   5.876   6.194
14924TIP3    H244650   7.536   5.776   6.128
14925TIP3   OH244651   8.007   5.767   6.179
14925TIP3    H144652   8.098   5.736   6.185
14925TIP3    H244653   7.970   5.717   6.107
14926TIP3   OH244654   7.985   5.375   4.331
14926TIP3    H144655   7.936   5.299   4.361
14926TIP3    H244656   8.056   5.338   4.277
14927TIP3   OH244657   8.641   5.717   5.921
14927TIP3    H144658   8.653   5.638   5.973
14927TIP3    H244659   8.713   5.774   5.948
14928TIP3   OH244660   8.400   5.422   4.249
14928TIP3    H144661   8.443   5.354   4.302
14928TIP3    H244662   8.443   5.417   4.164
14929TIP3   OH244663   7.642   5.268   6.327
14929TIP3    H144664   7.665   5.175   6.334
14929TIP3    H244665   7.556   5.269   6.287
14930TIP3   OH244666   7.632   4.879   4.536
14930TIP3    H144667   7.692   4.857   4.607
14930TIP3    H244668   7.688   4.893   4.460
14931TIP3   OH244669   8.262   5.351   6.109
14931TIP3    H144670   8.213   5.370   6.029
14931TIP3    H244671   8.301   5.265   6.094
14932TIP3   OH244672   8.222   5.087   4.370
14932TIP3    H144673   8.192   5.098   4.460
14932TIP3    H244674   8.199   4.997   4.347
14933TIP3   OH244675   8.735   5.330   5.724
14933TIP3    H144676   8.781   5.398   5.675
14933TIP3    H244677   8.644   5.360   5.727
14934TIP3   OH244678   7.764   5.013   6.320
14934TIP3    H144679   7.842   4.973   6.281
14934TIP3    H244680   7.787   5.025   6.412
14935TIP3   OH244681   7.811   4.813   4.737
14935TIP3    H144682   7.790   4.787   4.827
14935TIP3    H244683   7.857   4.738   4.700
14936TIP3   OH244684   8.036   4.852   5.960
14936TIP3    H144685   7.972   4.922   5.971
14936TIP3    H244686   8.108   4.893   5.912
14937TIP3   OH244687   7.948   4.624   4.584
14937TIP3    H144688   7.917   4.630   4.494
14937TIP3    H244689   8.044   4.632   4.578
14938TIP3   OH244690   8.656   5.268   6.078
14938TIP3    H144691   8.731   5.239   6.025
14938TIP3    H244692   8.628   5.189   6.125
14939TIP3   OH244693   8.734   4.903   4.263
14939TIP3    H144694   8.722   4.864   4.176
14939TIP3    H244695   8.714   4.995   4.251
14940TIP3   OH244696   8.168   4.668   6.116
14940TIP3    H144697   8.202   4.596   6.063
14940TIP3    H244698   8.124   4.726   6.054
14941TIP3   OH244699   8.228   4.470   5.913
14941TIP3    H144700   8.234   4.515   5.829
14941TIP3    H244701   8.141   4.431   5.912
14942TIP3   OH244702   8.236   4.995   5.835
14942TIP3    H144703   8.299   4.946   5.781
14942TIP3    H244704   8.194   5.056   5.774
14943TIP3   OH244705   8.856   4.964   6.097
14943TIP3    H144706   8.806   4.949   6.177
14943TIP3    H244707   8.947   4.948   6.122
14944TIP3   OH244708   8.887   5.211   5.905
14944TIP3    H144709   8.828   5.257   5.845
14944TIP3    H244710   8.974   5.225   5.870
14945TIP3   OH244711   8.079   4.756   6.360
14945TIP3    H144712   8.030   4.676   6.377
14945TIP3    H244713   8.114   4.745   6.271
14946TIP3   OH244714   8.353   4.231   5.991
14946TIP3    H144715   8.313   4.314   5.964
14946TIP3    H244716   8.285   4.166   5.977
14947TIP3   OH244717   8.726   4.681   6.117
14947TIP3    H144718   8.681   4.728   6.188
14947TIP3    H244719   8.809   4.653   6.156
14948TIP3   OH244720   8.970   4.627   6.242
14948TIP3    H144721   8.974   4.531   6.250
14948TIP3    H244722   8.949   4.657   6.331
14949TIP3   OH244723   7.937   4.528   6.421
14949TIP3    H144724   7.948   4.448   6.370
14949TIP3    H244725   7.977   4.508   6.506
14950TIP3   OH244726   8.408   4.198   6.258
14950TIP3    H144727   8.480   4.136   6.251
14950TIP3    H244728   8.382   4.215   6.168
14951TIP3   OH244729   8.489   4.388   6.442
14951TIP3    H144730   8.466   4.330   6.370
14951TIP3    H244731   8.429   4.462   6.434
14952TIP3   OH244732   7.769   5.688   4.526
14952TIP3    H144733   7.859   5.669   4.500
14952TIP3    H244734   7.728   5.725   4.448
14953TIP3   OH244735   7.134   5.633   5.164
14953TIP3    H144736   7.073   5.579   5.115
14953TIP3    H244737   7.178   5.572   5.223
14954TIP3   OH244738   7.280   5.467   5.336
14954TIP3    H144739   7.277   5.396   5.400
14954TIP3    H244740   7.331   5.536   5.379
14955TIP3   OH244741   9.025   5.888   5.428
14955TIP3    H144742   9.027   5.836   5.347
14955TIP3    H244743   9.095   5.852   5.482
14956TIP3   OH244744   9.080   5.617   5.981
14956TIP3    H144745   9.016   5.619   6.053
14956TIP3    H244746   9.123   5.703   5.985
14957TIP3   OH244747   8.894   5.133   4.607
14957TIP3    H144748   8.953   5.199   4.571
14957TIP3    H244749   8.944   5.092   4.677
14958TIP3   OH244750   9.030   4.992   4.800
14958TIP3    H144751   8.963   4.947   4.852
14958TIP3    H244752   9.089   5.031   4.865
14959TIP3   OH244753   9.078   5.401   5.232
14959TIP3    H144754   9.097   5.372   5.143
14959TIP3    H244755   9.052   5.492   5.223
14960TIP3   OH244756   8.800   5.697   5.436
14960TIP3    H144757   8.837   5.777   5.474
14960TIP3    H244758   8.853   5.681   5.358
14961TIP3   OH244759   8.924   4.906   4.457
14961TIP3    H144760   8.857   4.902   4.389
14961TIP3    H244761   8.905   4.987   4.504
14962TIP3   OH244762   8.804   4.561   4.371
14962TIP3    H144763   8.753   4.601   4.301
14962TIP3    H244764   8.781   4.468   4.367
14963TIP3   OH244765   8.835   4.840   4.925
14963TIP3    H144766   8.836   4.746   4.907
14963TIP3    H244767   8.814   4.846   5.019
14964TIP3   OH244768   7.468   4.908   5.706
14964TIP3    H144769   7.457   4.868   5.620
14964TIP3    H244770   7.563   4.910   5.719
14965TIP3   OH244771   9.133   5.262   5.792
14965TIP3    H144772   9.197   5.192   5.781
14965TIP3    H244773   9.153   5.325   5.723
14966TIP3   OH244774   9.305   5.051   5.808
14966TIP3    H144775   9.226   5.007   5.838
14966TIP3    H244776   9.377   4.997   5.839
14967TIP3   OH244777   8.725   4.300   4.363
14967TIP3    H144778   8.792   4.273   4.425
14967TIP3    H244779   8.648   4.249   4.386
14968TIP3   OH244780   8.821   4.571   4.817
14968TIP3    H144781   8.863   4.486   4.829
14968TIP3    H244782   8.862   4.607   4.738
14969TIP3   OH244783   8.983   4.738   5.332
14969TIP3    H144784   9.064   4.763   5.287
14969TIP3    H244785   8.993   4.775   5.420
14970TIP3   OH244786   9.045   4.882   5.566
14970TIP3    H144787   8.980   4.904   5.632
14970TIP3    H244788   9.074   4.966   5.531
14971TIP3   OH244789   7.672   4.571   6.343
14971TIP3    H144790   7.765   4.577   6.365
14971TIP3    H244791   7.643   4.489   6.383
14972TIP3   OH244792   9.493   4.508   6.092
14972TIP3    H144793   9.564   4.452   6.060
14972TIP3    H244794   9.466   4.559   6.016
14973TIP3   OH244795   8.921   4.319   4.873
14973TIP3    H144796   8.966   4.309   4.956
14973TIP3    H244797   8.860   4.245   4.869
14974TIP3   OH244798   7.664   4.308   5.721
14974TIP3    H144799   7.719   4.230   5.713
14974TIP3    H244800   7.722   4.381   5.700
14975TIP3   OH244801   7.441   4.563   5.760
14975TIP3    H144802   7.492   4.555   5.679
14975TIP3    H244803   7.491   4.625   5.813
14976TIP3   OH244804   9.345   4.627   5.892
14976TIP3    H144805   9.276   4.651   5.954
14976TIP3    H244806   9.315   4.544   5.853
14977TIP3   OH244807   8.947   4.255   4.523
14977TIP3    H144808   8.984   4.194   4.459
14977TIP3    H244809   9.008   4.328   4.524
14978TIP3   OH244810   7.409   4.043   5.235
14978TIP3    H144811   7.331   4.048   5.290
14978TIP3    H244812   7.397   4.110   5.169
14979TIP3   OH244813   8.593   5.779   4.787
14979TIP3    H144814   8.645   5.780   4.707
14979TIP3    H244815   8.611   5.863   4.829
14980TIP3   OH244816   7.649   4.106   6.078
14980TIP3    H144817   7.600   4.110   6.160
14980TIP3    H244818   7.599   4.160   6.017
14981TIP3   OH244819   7.668   5.593   6.149
14981TIP3    H144820   7.576   5.568   6.144
14981TIP3    H244821   7.694   5.572   6.239
14982TIP3   OH244822   7.886   5.632   5.701
14982TIP3    H144823   7.838   5.709   5.671
14982TIP3    H244824   7.971   5.638   5.658
14983TIP3   OH244825   8.286   5.859   5.856
14983TIP3    H144826   8.331   5.845   5.939
14983TIP3    H244827   8.345   5.914   5.805
14984TIP3   OH244828   8.463   6.021   5.717
14984TIP3    H144829   8.520   5.966   5.664
14984TIP3    H244830   8.523   6.074   5.770
14985TIP3   OH244831   9.262   4.366   5.802
14985TIP3    H144832   9.178   4.368   5.756
14985TIP3    H244833   9.290   4.274   5.796
14986TIP3   OH244834   7.549   5.879   5.755
14986TIP3    H144835   7.458   5.901   5.736
14986TIP3    H244836   7.575   5.941   5.822
14987TIP3   OH244837   7.780   5.867   5.605
14987TIP3    H144838   7.696   5.871   5.651
14987TIP3    H244839   7.758   5.887   5.514
14988TIP3   OH244840   8.237   5.873   5.405
14988TIP3    H144841   8.175   5.878   5.332
14988TIP3    H244842   8.234   5.960   5.445
14989TIP3   OH244843   8.519   5.827   5.417
14989TIP3    H144844   8.424   5.839   5.414
14989TIP3    H244845   8.555   5.915   5.401
14990TIP3   OH244846   8.670   6.050   5.349
14990TIP3    H144847   8.666   6.133   5.302
14990TIP3    H244848   8.688   5.985   5.282
14991TIP3   OH244849   7.453   5.645   5.480
14991TIP3    H144850   7.480   5.618   5.567
14991TIP3    H244851   7.523   5.615   5.422
14992TIP3   OH244852   7.658   5.536   5.337
14992TIP3    H144853   7.668   5.448   5.375
14992TIP3    H244854   7.746   5.573   5.339
14993TIP3   OH244855   7.930   5.621   5.357
14993TIP3    H144856   7.941   5.526   5.344
14993TIP3    H244857   7.988   5.642   5.430
14994TIP3   OH244858   8.480   4.271   5.451
14994TIP3    H144859   8.436   4.202   5.501
14994TIP3    H244860   8.544   4.224   5.397
14995TIP3   OH244861   8.966   4.196   5.320
14995TIP3    H144862   9.003   4.252   5.251
14995TIP3    H244863   8.873   4.218   5.321
14996TIP3   OH244864   9.087   4.279   5.087
14996TIP3    H144865   9.154   4.216   5.062
14996TIP3    H244866   9.122   4.364   5.059
14997TIP3   OH244867   7.727   3.966   5.435
14997TIP3    H144868   7.638   3.933   5.446
14997TIP3    H244869   7.781   3.888   5.428
14998TIP3   OH244870   7.542   3.858   5.074
14998TIP3    H144871   7.573   3.912   5.000
14998TIP3    H244872   7.502   3.921   5.134
14999TIP3   OH244873   8.211   4.003   5.333
14999TIP3    H144874   8.253   4.055   5.264
14999TIP3    H244875   8.239   4.044   5.414
15000TIP3   OH244876   8.683   4.152   5.308
15000TIP3    H144877   8.685   4.116   5.219
15000TIP3    H244878   8.698   4.077   5.365
15001TIP3   OH244879   8.752   4.101   4.892
15001TIP3    H144880   8.670   4.147   4.914
15001TIP3    H244881   8.741   4.014   4.930
15002TIP3   OH244882   7.210   5.449   4.888
15002TIP3    H144883   7.132   5.410   4.850
15002TIP3    H244884   7.218   5.534   4.844
15003TIP3   OH244885   7.655   4.001   4.849
15003TIP3    H144886   7.702   3.943   4.789
15003TIP3    H244887   7.723   4.057   4.887
15004TIP3   OH244888   8.141   4.198   4.950
15004TIP3    H144889   8.201   4.151   5.007
15004TIP3    H244890   8.150   4.290   4.975
15005TIP3   OH244891   8.021   5.622   4.444
15005TIP3    H144892   8.106   5.646   4.407
15005TIP3    H244893   7.995   5.544   4.396
15006TIP3   OH244894   8.741   5.741   4.552
15006TIP3    H144895   8.731   5.646   4.545
15006TIP3    H244896   8.695   5.776   4.476
15007TIP3   OH244897   7.943   4.257   6.309
15007TIP3    H144898   7.910   4.191   6.371
15007TIP3    H244899   8.036   4.266   6.330
15008TIP3   OH244900   8.188   4.254   6.433
15008TIP3    H144901   8.268   4.238   6.383
15008TIP3    H244902   8.189   4.187   6.502
15009TIP3   OH244903   9.020   4.353   6.235
15009TIP3    H144904   9.040   4.331   6.326
15009TIP3    H244905   9.105   4.353   6.191
15010TIP3   OH244906   8.966   5.879   5.759
15010TIP3    H144907   8.883   5.836   5.738
15010TIP3    H244908   8.946   5.973   5.753
15011TIP3   OH244909   9.484   5.261   5.295
15011TIP3    H144910   9.552   5.194   5.296
15011TIP3    H244911   9.502   5.312   5.216
15012TIP3   OH244912   9.475   5.586   4.939
15012TIP3    H144913   9.449   5.512   4.994
15012TIP3    H244914   9.570   5.577   4.930
15013TIP3   OH244915   9.168   4.765   4.713
15013TIP3    H144916   9.131   4.850   4.737
15013TIP3    H244917   9.095   4.717   4.674
15014TIP3   OH244918   9.257   5.087   4.936
15014TIP3    H144919   9.298   5.001   4.944
15014TIP3    H244920   9.305   5.129   4.865
15015TIP3   OH244921   0.334   5.767   4.568
15015TIP3    H144922   0.385   5.829   4.619
15015TIP3    H244923   0.243   5.781   4.596
15016TIP3   OH244924   0.186   5.492   4.977
15016TIP3    H144925   0.240   5.509   4.899
15016TIP3    H244926   0.243   5.514   5.051
15017TIP3   OH244927   0.046   4.685   5.072
15017TIP3    H144928   0.121   4.703   5.015
15017TIP3    H244929   0.066   4.602   5.114
15018TIP3   OH244930   9.367   4.843   4.987
15018TIP3    H144931   9.441   4.825   5.045
15018TIP3    H244932   9.376   4.780   4.916
15019TIP3   OH244933   0.141   5.019   4.779
15019TIP3    H144934   0.228   4.992   4.808
15019TIP3    H244935   0.081   4.972   4.836
15020TIP3   OH244936   9.712   4.622   5.380
15020TIP3    H144937   9.645   4.579   5.327
15020TIP3    H244938   9.665   4.650   5.459
15021TIP3   OH244939   9.777   5.415   5.127
15021TIP3    H144940   9.728   5.487   5.167
15021TIP3    H244941   9.860   5.455   5.101
15022TIP3   OH244942   9.566   4.792   5.164
15022TIP3    H144943   9.643   4.823   5.212
15022TIP3    H244944   9.584   4.700   5.147
15023TIP3   OH244945   9.635   5.624   5.220
15023TIP3    H144946   9.616   5.713   5.191
15023TIP3    H244947   9.571   5.607   5.289
15024TIP3   OH244948   9.067   5.308   4.481
15024TIP3    H144949   9.024   5.313   4.395
15024TIP3    H244950   9.090   5.398   4.502
15025TIP3   OH244951   9.424   5.227   4.759
15025TIP3    H144952   9.377   5.240   4.677
15025TIP3    H244953   9.507   5.187   4.734
15026TIP3   OH244954  -0.025   5.678   4.833
15026TIP3    H144955  -0.032   5.582   4.832
15026TIP3    H244956   0.067   5.695   4.853
15027TIP3   OH244957   0.094   5.186   5.001
15027TIP3    H144958   0.108   5.168   4.908
15027TIP3    H244959   0.059   5.275   5.002
15028TIP3   OH244960   9.834   5.701   5.396
15028TIP3    H144961   9.791   5.774   5.441
15028TIP3    H244962   9.768   5.668   5.336
15029TIP3   OH244963   9.659   5.294   5.532
15029TIP3    H144964   9.616   5.281   5.616
15029TIP3    H244965   9.594   5.267   5.467
15030TIP3   OH244966   0.233   5.729   4.314
15030TIP3    H144967   0.267   5.716   4.402
15030TIP3    H244968   0.301   5.780   4.270
15031TIP3   OH244969   9.654   5.896   5.471
15031TIP3    H144970   9.616   5.896   5.383
15031TIP3    H244971   9.582   5.871   5.528
15032TIP3   OH244972   9.450   5.124   4.501
15032TIP3    H144973   9.378   5.114   4.440
15032TIP3    H244974   9.459   5.038   4.543
15033TIP3   OH244975   9.278   5.403   5.428
15033TIP3    H144976   9.208   5.400   5.363
15033TIP3    H244977   9.342   5.338   5.398
15034TIP3   OH244978   0.229   5.812   5.239
15034TIP3    H144979   0.251   5.891   5.288
15034TIP3    H244980   0.156   5.774   5.286
15035TIP3   OH244981   0.016   6.066   4.147
15035TIP3    H144982  -0.007   5.985   4.192
15035TIP3    H244983  -0.000   6.134   4.213
15036TIP3   OH244984   9.277   5.795   4.565
15036TIP3    H144985   9.311   5.795   4.654
15036TIP3    H244986   9.221   5.718   4.560
15037TIP3   OH244987   9.481   5.592   5.435
15037TIP3    H144988   9.523   5.588   5.521
15037TIP3    H244989   9.405   5.534   5.443
15038TIP3   OH244990   0.076   4.459   5.224
15038TIP3    H144991   0.013   4.392   5.197
15038TIP3    H244992   0.027   4.513   5.286
15039TIP3   OH244993   0.178   4.960   5.129
15039TIP3    H144994   0.114   4.930   5.193
15039TIP3    H244995   0.135   5.032   5.083
15040TIP3   OH244996   9.709   4.725   4.732
15040TIP3    H144997   9.617   4.739   4.710
15040TIP3    H244998   9.757   4.761   4.657
15041TIP3   OH244999   9.596   4.963   5.478
15041TIP3    H145000   9.524   5.020   5.507
15041TIP3    H245001   9.582   4.881   5.524
15042TIP3   OH245002   9.735   4.478   4.060
15042TIP3    H145003   9.756   4.427   4.138
15042TIP3    H245004   9.688   4.555   4.093
15043TIP3   OH245005   9.211   4.492   4.976
15043TIP3    H145006   9.250   4.530   5.055
15043TIP3    H245007   9.285   4.472   4.920
15044TIP3   OH245008   9.128   4.468   4.535
15044TIP3    H145009   9.184   4.501   4.465
15044TIP3    H245010   9.067   4.540   4.553
15045TIP3   OH245011   9.411   4.666   4.779
15045TIP3    H145012   9.319   4.680   4.755
15045TIP3    H245013   9.422   4.571   4.778
15046TIP3   OH245014   9.650   4.749   4.455
15046TIP3    H145015   9.710   4.823   4.445
15046TIP3    H245016   9.599   4.748   4.375
15047TIP3   OH245017   9.449   4.779   4.269
15047TIP3    H145018   9.379   4.728   4.308
15047TIP3    H245019   9.450   4.752   4.177
15048TIP3   OH245020   9.690   5.552   5.641
15048TIP3    H145021   9.747   5.607   5.695
15048TIP3    H245022   9.612   5.540   5.694
15049TIP3   OH245023   9.735   4.266   4.743
15049TIP3    H145024   9.707   4.332   4.806
15049TIP3    H245025   9.683   4.285   4.664
15050TIP3   OH245026   9.811   5.298   4.295
15050TIP3    H145027   9.794   5.210   4.261
15050TIP3    H245028   9.764   5.300   4.378
15051TIP3   OH245029   0.302   5.553   5.217
15051TIP3    H145030   0.387   5.523   5.249
15051TIP3    H245031   0.307   5.648   5.220
15052TIP3   OH245032   9.483   5.302   5.014
15052TIP3    H145033   9.436   5.284   4.932
15052TIP3    H245034   9.519   5.217   5.040
15053TIP3   OH245035   9.390   5.126   5.560
15053TIP3    H145036   9.374   5.105   5.652
15053TIP3    H245037   9.304   5.124   5.520
15054TIP3   OH245038   0.351   5.221   5.526
15054TIP3    H145039   0.275   5.170   5.497
15054TIP3    H245040   0.415   5.154   5.552
15055TIP3   OH245041   9.558   5.581   4.593
15055TIP3    H145042   9.546   5.662   4.543
15055TIP3    H245043   9.505   5.593   4.672
15056TIP3   OH245044   9.148   4.875   4.306
15056TIP3    H145045   9.190   4.961   4.310
15056TIP3    H245046   9.070   4.884   4.361
15057TIP3   OH245047   9.668   5.335   4.525
15057TIP3    H145048   9.629   5.412   4.568
15057TIP3    H245049   9.648   5.262   4.584
15058TIP3   OH245050   0.046   5.952   5.054
15058TIP3    H145051   0.117   6.002   5.094
15058TIP3    H245052   0.090   5.876   5.015
15059TIP3   OH245053   9.525   5.820   4.456
15059TIP3    H145054   9.434   5.825   4.486
15059TIP3    H245055   9.553   5.911   4.447
15060TIP3   OH245056   9.552   4.708   5.588
15060TIP3    H145057   9.458   4.718   5.603
15060TIP3    H245058   9.583   4.655   5.662
15061TIP3   OH245059   9.492   5.423   3.851
15061TIP3    H145060   9.480   5.328   3.851
15061TIP3    H245061   9.471   5.449   3.941
15062TIP3   OH245062   9.459   5.501   4.111
15062TIP3    H145063   9.491   5.439   4.177
15062TIP3    H245064   9.471   5.587   4.151
15063TIP3   OH245065   9.232   5.136   4.340
15063TIP3    H145066   9.174   5.183   4.400
15063TIP3    H245067   9.243   5.196   4.266
15064TIP3   OH245068   9.762   5.616   4.062
15064TIP3    H145069   9.738   5.591   4.151
15064TIP3    H245070   9.775   5.711   4.067
15065TIP3   OH245071   9.497   5.757   4.189
15065TIP3    H145072   9.486   5.842   4.146
15065TIP3    H245073   9.501   5.778   4.282
15066TIP3   OH245074   9.761   4.331   4.281
15066TIP3    H145075   9.684   4.369   4.324
15066TIP3    H245076   9.828   4.329   4.349
15067TIP3   OH245077   9.242   5.331   4.131
15067TIP3    H145078   9.300   5.407   4.135
15067TIP3    H245079   9.282   5.274   4.065
15068TIP3   OH245080   9.225   4.613   4.318
15068TIP3    H145081   9.187   4.701   4.315
15068TIP3    H245082   9.191   4.569   4.240
15069TIP3   OH245083   9.668   4.276   5.193
15069TIP3    H145084   9.629   4.249   5.110
15069TIP3    H245085   9.636   4.211   5.256
15070TIP3   OH245086   9.090   5.585   4.531
15070TIP3    H145087   9.003   5.580   4.570
15070TIP3    H245088   9.076   5.623   4.445
15071TIP3   OH245089   9.308   6.103   5.613
15071TIP3    H145090   9.383   6.107   5.671
15071TIP3    H245091   9.289   6.009   5.605
15072TIP3   OH245092   9.741   6.085   5.655
15072TIP3    H145093   9.836   6.090   5.667
15072TIP3    H245094   9.728   6.006   5.602
15073TIP3   OH245095   0.047   5.670   3.794
15073TIP3    H145096  -0.001   5.640   3.871
15073TIP3    H245097   0.116   5.605   3.783
15074TIP3   OH245098   9.443   5.521   5.783
15074TIP3    H145099   9.465   5.429   5.800
15074TIP3    H245100   9.352   5.518   5.754
15075TIP3   OH245101   9.397   5.164   3.978
15075TIP3    H145102   9.430   5.124   4.058
15075TIP3    H245103   9.464   5.147   3.912
15076TIP3   OH245104   0.239   5.625   5.562
15076TIP3    H145105   0.184   5.653   5.489
15076TIP3    H245106   0.328   5.627   5.527
15077TIP3   OH245107   9.585   5.271   5.795
15077TIP3    H145108   9.627   5.186   5.790
15077TIP3    H245109   9.588   5.294   5.888
15078TIP3   OH245110   9.506   5.039   4.194
15078TIP3    H145111   9.477   4.959   4.238
15078TIP3    H245112   9.602   5.034   4.197
15079TIP3   OH245113   0.087   5.110   5.503
15079TIP3    H145114   0.014   5.140   5.558
15079TIP3    H245115   0.055   5.119   5.413
15080TIP3   OH245116   9.733   4.751   4.140
15080TIP3    H145117   9.700   4.807   4.070
15080TIP3    H245118   9.828   4.756   4.132
15081TIP3   OH245119   0.060   4.851   5.599
15081TIP3    H145120   0.107   4.788   5.545
15081TIP3    H245121   0.072   4.935   5.554
15082TIP3   OH245122   0.222   4.680   5.447
15082TIP3    H145123   0.317   4.679   5.460
15082TIP3    H245124   0.211   4.694   5.353
15083TIP3   OH245125   0.274   5.213   5.216
15083TIP3    H145126   0.282   5.119   5.232
15083TIP3    H245127   0.228   5.220   5.133
15084TIP3   OH245128   9.730   5.034   5.773
15084TIP3    H145129   9.715   4.992   5.857
15084TIP3    H245130   9.748   4.962   5.712
15085TIP3   OH245131   9.732   4.786   5.913
15085TIP3    H145132   9.761   4.695   5.915
15085TIP3    H245133   9.800   4.834   5.960
15086TIP3   OH245134   9.510   5.990   4.041
15086TIP3    H145135   9.601   5.966   4.021
15086TIP3    H245136   9.465   5.988   3.957
15087TIP3   OH245137   8.988   5.294   4.216
15087TIP3    H145138   9.071   5.324   4.180
15087TIP3    H245139   8.968   5.215   4.166
15088TIP3   OH245140   8.945   5.885   4.658
15088TIP3    H145141   8.879   5.837   4.608
15088TIP3    H245142   8.972   5.825   4.727
15089TIP3   OH245143   9.252   5.126   5.209
15089TIP3    H145144   9.246   5.123   5.113
15089TIP3    H245145   9.333   5.175   5.226
15090TIP3   OH245146   9.479   4.869   5.906
15090TIP3    H145147   9.569   4.838   5.903
15090TIP3    H245148   9.426   4.789   5.902
15091TIP3   OH245149   9.324   4.584   5.210
15091TIP3    H145150   9.416   4.570   5.187
15091TIP3    H245151   9.315   4.678   5.220
15092TIP3   OH245152   9.224   4.843   5.227
15092TIP3    H145153   9.250   4.846   5.135
15092TIP3    H245154   9.231   4.934   5.256
15093TIP3   OH245155   9.169   4.290   4.737
15093TIP3    H145156   9.088   4.295   4.788
15093TIP3    H245157   9.159   4.357   4.669
15094TIP3   OH245158   9.405   4.380   5.543
15094TIP3    H145159   9.396   4.390   5.638
15094TIP3    H245160   9.333   4.432   5.507
15095TIP3   OH245161   9.468   5.834   5.663
15095TIP3    H145162   9.377   5.813   5.644
15095TIP3    H245163   9.475   5.830   5.758
15096TIP3   OH245164   9.617   5.895   5.193
15096TIP3    H145165   9.564   5.964   5.154
15096TIP3    H245166   9.705   5.910   5.159
15097TIP3   OH245167   0.292   6.036   5.372
15097TIP3    H145168   0.309   6.076   5.457
15097TIP3    H245169   0.271   6.109   5.314
15098TIP3   OH245170   9.319   6.116   5.221
15098TIP3    H145171   9.242   6.173   5.224
15098TIP3    H245172   9.290   6.034   5.261
15099TIP3   OH245173   9.539   6.124   5.066
15099TIP3    H145174   9.459   6.131   5.117
15099TIP3    H245175   9.514   6.155   4.978
15100TIP3   OH245176   0.148   6.180   4.890
15100TIP3    H145177   0.066   6.136   4.916
15100TIP3    H245178   0.215   6.138   4.944
15101TIP3   OH245179   0.568   6.134   4.956
15101TIP3    H145180   0.524   6.066   4.905
15101TIP3    H245181   0.590   6.202   4.893
15102TIP3   OH245182   9.408   5.810   4.801
15102TIP3    H145183   9.417   5.735   4.861
15102TIP3    H245184   9.487   5.863   4.817
15103TIP3   OH245185   9.660   5.923   4.848
15103TIP3    H145186   9.696   5.836   4.832
15103TIP3    H245187   9.698   5.951   4.932
15104TIP3   OH245188   9.511   4.212   4.976
15104TIP3    H145189   9.421   4.178   4.985
15104TIP3    H245190   9.566   4.134   4.980
15105TIP3   OH245191   9.250   4.094   4.564
15105TIP3    H145192   9.277   4.158   4.498
15105TIP3    H245193   9.219   4.147   4.637
15106TIP3   OH245194   9.020   5.705   4.298
15106TIP3    H145195   8.932   5.685   4.265
15106TIP3    H245196   9.026   5.801   4.290
15107TIP3   OH245197   9.372   4.283   4.401
15107TIP3    H145198   9.397   4.225   4.329
15107TIP3    H245199   9.439   4.269   4.468
15108TIP3   OH245200   9.754   5.881   3.959
15108TIP3    H145201   9.803   5.950   4.004
15108TIP3    H245202   9.813   5.851   3.890
15109TIP3   OH245203   9.658   4.527   5.771
15109TIP3    H145204   9.659   4.464   5.842
15109TIP3    H245205   9.746   4.521   5.733
15110TIP3   OH245206   0.102   4.576   5.982
15110TIP3    H145207   0.192   4.571   5.951
15110TIP3    H245208   0.091   4.498   6.037
15111TIP3   OH245209   9.087   5.711   4.021
15111TIP3    H145210   9.091   5.694   4.115
15111TIP3    H245211   9.164   5.667   3.986
15112TIP3   OH245212   0.955   5.824   6.712
15112TIP3    H145213   0.938   5.918   6.702
15112TIP3    H245214   0.887   5.781   6.661
15113TIP3   OH245215   0.919   5.808   7.101
15113TIP3    H145216   0.974   5.792   7.178
15113TIP3    H245217   0.872   5.726   7.089
15114TIP3   OH245218   1.146   6.106   6.767
15114TIP3    H145219   1.144   6.034   6.830
15114TIP3    H245220   1.167   6.183   6.820
15115TIP3   OH245221   0.792   6.529   6.788
15115TIP3    H145222   0.844   6.461   6.746
15115TIP3    H245223   0.798   6.510   6.882
15116TIP3   OH245224   0.714   5.980   7.013
15116TIP3    H145225   0.777   5.911   7.033
15116TIP3    H245226   0.739   6.053   7.070
15117TIP3   OH245227   1.720   5.332   7.123
15117TIP3    H145228   1.738   5.415   7.168
15117TIP3    H245229   1.741   5.350   7.031
15118TIP3   OH245230   1.104   5.493   7.133
15118TIP3    H145231   1.146   5.411   7.159
15118TIP3    H245232   1.059   5.472   7.051
15119TIP3   OH245233   0.440   5.238   7.160
15119TIP3    H145234   0.364   5.296   7.167
15119TIP3    H245235   0.404   5.151   7.144
15120TIP3   OH245236   1.145   5.277   6.733
15120TIP3    H145237   1.207   5.268   6.806
15120TIP3    H245238   1.198   5.307   6.660
15121TIP3   OH245239   0.548   5.648   7.034
15121TIP3    H145240   0.640   5.623   7.039
15121TIP3    H245241   0.505   5.593   7.100
15122TIP3   OH245242   1.779   5.555   7.284
15122TIP3    H145243   1.689   5.586   7.281
15122TIP3    H245244   1.813   5.586   7.367
15123TIP3   OH245245   0.845   6.016   6.514
15123TIP3    H145246   0.803   5.967   6.443
15123TIP3    H245247   0.778   6.023   6.582
15124TIP3   OH245248   1.309   5.294   6.948
15124TIP3    H145249   1.278   5.261   7.032
15124TIP3    H245250   1.366   5.367   6.971
15125TIP3   OH245251   1.181   6.350   6.915
15125TIP3    H145252   1.093   6.340   6.952
15125TIP3    H245253   1.178   6.433   6.868
15126TIP3   OH245254   1.511   5.225   7.287
15126TIP3    H145255   1.426   5.237   7.244
15126TIP3    H245256   1.575   5.252   7.221
15127TIP3   OH245257   0.831   4.842   7.266
15127TIP3    H145258   0.793   4.762   7.302
15127TIP3    H245259   0.756   4.896   7.242
15128TIP3   OH245260   0.931   6.371   6.614
15128TIP3    H145261   0.979   6.292   6.588
15128TIP3    H245262   0.982   6.443   6.577
15129TIP3   OH245263   1.075   6.163   6.507
15129TIP3    H145264   1.001   6.102   6.497
15129TIP3    H245265   1.117   6.136   6.588
15130TIP3   OH245266   1.419   6.232   7.260
15130TIP3    H145267   1.400   6.158   7.203
15130TIP3    H245268   1.403   6.309   7.206
15131TIP3   OH245269   0.794   5.695   6.532
15131TIP3    H145270   0.707   5.733   6.519
15131TIP3    H245271   0.826   5.676   6.444
15132TIP3   OH245272   0.746   5.402   6.259
15132TIP3    H145273   0.806   5.470   6.287
15132TIP3    H245274   0.795   5.350   6.196
15133TIP3   OH245275   1.596   5.895   7.127
15133TIP3    H145276   1.512   5.940   7.125
15133TIP3    H245277   1.631   5.907   7.038
15134TIP3   OH245278   1.104   5.740   6.494
15134TIP3    H145279   1.060   5.774   6.571
15134TIP3    H245280   1.187   5.705   6.527
15135TIP3   OH245281   1.313   5.762   7.439
15135TIP3    H145282   1.303   5.844   7.487
15135TIP3    H245283   1.236   5.757   7.383
15136TIP3   OH245284   0.474   5.840   7.227
15136TIP3    H145285   0.513   5.781   7.162
15136TIP3    H245286   0.544   5.854   7.291
15137TIP3   OH245287   0.941   6.338   7.042
15137TIP3    H145288   0.924   6.419   7.091
15137TIP3    H245289   0.921   6.268   7.105
15138TIP3   OH245290   0.946   5.592   6.324
15138TIP3    H145291   1.008   5.647   6.372
15138TIP3    H245292   0.960   5.614   6.232
15139TIP3   OH245293   0.677   6.286   6.543
15139TIP3    H145294   0.758   6.304   6.591
15139TIP3    H245295   0.621   6.362   6.560
15140TIP3   OH245296   1.410   4.810   6.381
15140TIP3    H145297   1.333   4.827   6.436
15140TIP3    H245298   1.417   4.888   6.326
15141TIP3   OH245299   1.239   6.192   5.948
15141TIP3    H145300   1.231   6.284   5.924
15141TIP3    H245301   1.329   6.169   5.924
15142TIP3   OH245302   1.649   6.595   7.328
15142TIP3    H145303   1.655   6.500   7.342
15142TIP3    H245304   1.570   6.621   7.375
15143TIP3   OH245305   0.765   6.347   7.448
15143TIP3    H145306   0.761   6.438   7.476
15143TIP3    H245307   0.679   6.330   7.411
15144TIP3   OH245308   0.532   6.516   6.483
15144TIP3    H145309   0.518   6.509   6.389
15144TIP3    H245310   0.578   6.599   6.495
15145TIP3   OH245311   0.769   6.359   6.095
15145TIP3    H145312   0.817   6.310   6.029
15145TIP3    H245313   0.834   6.382   6.161
15146TIP3   OH245314   0.811   6.484   6.340
15146TIP3    H145315   0.746   6.458   6.405
15146TIP3    H245316   0.893   6.489   6.390
15147TIP3   OH245317   1.545   5.707   7.598
15147TIP3    H145318   1.464   5.717   7.549
15147TIP3    H245319   1.561   5.613   7.599
15148TIP3   OH245320   0.537   4.950   7.415
15148TIP3    H145321   0.533   4.898   7.334
15148TIP3    H245322   0.576   5.034   7.388
15149TIP3   OH245323   1.140   5.073   7.582
15149TIP3    H145324   1.211   5.049   7.642
15149TIP3    H245325   1.063   5.026   7.614
15150TIP3   OH245326   1.308   5.497   7.529
15150TIP3    H145327   1.264   5.489   7.614
15150TIP3    H245328   1.288   5.586   7.500
15151TIP3   OH245329   0.988   5.644   6.065
15151TIP3    H145330   0.950   5.613   5.983
15151TIP3    H245331   1.076   5.674   6.040
15152TIP3   OH245332   0.676   4.987   6.356
15152TIP3    H145333   0.642   4.988   6.446
15152TIP3    H245334   0.664   4.897   6.327
15153TIP3   OH245335   0.296   5.546   7.409
15153TIP3    H145336   0.327   5.548   7.499
15153TIP3    H245337   0.376   5.552   7.356
15154TIP3   OH245338   0.318   5.441   6.959
15154TIP3    H145339   0.248   5.499   6.990
15154TIP3    H245340   0.317   5.451   6.864
15155TIP3   OH245341   0.840   5.449   6.640
15155TIP3    H145342   0.836   5.540   6.608
15155TIP3    H245343   0.906   5.407   6.585
15156TIP3   OH245344   1.030   5.712   7.756
15156TIP3    H145345   1.002   5.643   7.816
15156TIP3    H245346   1.124   5.723   7.775
15157TIP3   OH245347   0.982   5.444   6.890
15157TIP3    H145348   0.920   5.467   6.821
15157TIP3    H245349   1.035   5.374   6.852
15158TIP3   OH245350   0.339   4.947   6.354
15158TIP3    H145351   0.335   5.000   6.434
15158TIP3    H245352   0.333   5.011   6.283
15159TIP3   OH245353   1.080   5.705   7.302
15159TIP3    H145354   1.095   5.633   7.240
15159TIP3    H245355   1.042   5.663   7.379
15160TIP3   OH245356   0.805   5.184   6.938
15160TIP3    H145357   0.747   5.254   6.969
15160TIP3    H245358   0.860   5.164   7.014
15161TIP3   OH245359   0.371   5.338   6.703
15161TIP3    H145360   0.395   5.276   6.772
15161TIP3    H245361   0.351   5.284   6.627
15162TIP3   OH245362   1.198   5.236   7.195
15162TIP3    H145363   1.174   5.257   7.286
15162TIP3    H245364   1.130   5.175   7.166
15163TIP3   OH245365   0.095   5.298   6.360
15163TIP3    H145366   0.017   5.271   6.409
15163TIP3    H245367   0.079   5.269   6.271
15164TIP3   OH245368   1.367   6.940   7.415
15164TIP3    H145369   1.367   6.951   7.320
15164TIP3    H245370   1.445   6.988   7.444
15165TIP3   OH245371   0.804   5.554   7.104
15165TIP3    H145372   0.845   5.501   7.036
15165TIP3    H245373   0.824   5.508   7.185
15166TIP3   OH245374   0.211   4.859   6.896
15166TIP3    H145375   0.246   4.770   6.902
15166TIP3    H245376   0.243   4.891   6.812
15167TIP3   OH245377   0.808   5.436   7.363
15167TIP3    H145378   0.758   5.468   7.438
15167TIP3    H245379   0.900   5.442   7.391
15168TIP3   OH245380   0.534   5.777   6.550
15168TIP3    H145381   0.531   5.685   6.576
15168TIP3    H245382   0.443   5.807   6.558
15169TIP3   OH245383   1.364   6.034   7.079
15169TIP3    H145384   1.403   6.083   7.006
15169TIP3    H245385   1.288   5.991   7.041
15170TIP3   OH245386   0.929   5.099   6.372
15170TIP3    H145387   0.836   5.080   6.368
15170TIP3    H245388   0.934   5.194   6.381
15171TIP3   OH245389   0.856   6.081   7.486
15171TIP3    H145390   0.909   6.070   7.566
15171TIP3    H245391   0.825   6.172   7.490
15172TIP3   OH245392   1.017   5.355   6.449
15172TIP3    H145393   1.112   5.351   6.461
15172TIP3    H245394   1.003   5.431   6.392
15173TIP3   OH245395   0.656   5.905   6.334
15173TIP3    H145396   0.637   5.999   6.329
15173TIP3    H245397   0.589   5.870   6.392
15174TIP3   OH245398   0.784   5.836   7.761
15174TIP3    H145399   0.725   5.767   7.730
15174TIP3    H245400   0.871   5.802   7.744
15175TIP3   OH245401   1.029   6.408   7.381
15175TIP3    H145402   0.939   6.377   7.386
15175TIP3    H245403   1.049   6.440   7.469
15176TIP3   OH245404   1.412   5.444   6.267
15176TIP3    H145405   1.356   5.397   6.205
15176TIP3    H245406   1.417   5.533   6.233
15177TIP3   OH245407   1.664   6.318   7.349
15177TIP3    H145408   1.570   6.300   7.344
15177TIP3    H245409   1.699   6.288   7.265
15178TIP3   OH245410   1.117   6.261   6.207
15178TIP3    H145411   1.114   6.198   6.280
15178TIP3    H245412   1.152   6.210   6.134
15179TIP3   OH245413   1.151   5.899   6.960
15179TIP3    H145414   1.064   5.876   6.993
15179TIP3    H245415   1.183   5.818   6.919
15180TIP3   OH245416   0.306   5.898   6.658
15180TIP3    H145417   0.353   5.981   6.670
15180TIP3    H245418   0.337   5.843   6.731
15181TIP3   OH245419   0.898   6.115   7.208
15181TIP3    H145420   0.884   6.102   7.302
15181TIP3    H245421   0.956   6.044   7.182
15182TIP3   OH245422   0.944   5.999   6.073
15182TIP3    H145423   0.993   5.970   6.150
15182TIP3    H245424   0.861   5.952   6.078
15183TIP3   OH245425   1.172   6.616   7.266
15183TIP3    H145426   1.109   6.546   7.284
15183TIP3    H245427   1.137   6.660   7.188
15184TIP3   OH245428   1.225   6.460   5.888
15184TIP3    H145429   1.236   6.513   5.809
15184TIP3    H245430   1.160   6.506   5.940
15185TIP3   OH245431   1.103   5.917   6.278
15185TIP3    H145432   1.090   5.865   6.358
15185TIP3    H245433   1.199   5.924   6.270
15186TIP3   OH245434   0.321   5.990   6.122
15186TIP3    H145435   0.352   5.901   6.141
15186TIP3    H245436   0.258   6.009   6.191
15187TIP3   OH245437   1.123   5.308   7.446
15187TIP3    H145438   1.197   5.360   7.477
15187TIP3    H245439   1.125   5.229   7.500
15188TIP3   OH245440   1.020   5.051   6.630
15188TIP3    H145441   0.991   5.073   6.541
15188TIP3    H245442   1.053   5.134   6.665
15189TIP3   OH245443   0.387   6.176   6.375
15189TIP3    H145444   0.332   6.232   6.321
15189TIP3    H245445   0.473   6.180   6.334
15190TIP3   OH245446   0.688   5.225   6.697
15190TIP3    H145447   0.735   5.299   6.658
15190TIP3    H245448   0.734   5.207   6.779
15191TIP3   OH245449   1.005   5.566   7.524
15191TIP3    H145450   1.004   5.618   7.604
15191TIP3    H245451   1.037   5.480   7.552
15192TIP3   OH245452   0.818   4.952   6.789
15192TIP3    H145453   0.819   5.025   6.852
15192TIP3    H245454   0.893   4.968   6.732
15193TIP3   OH245455   0.326   4.949   6.660
15193TIP3    H145456   0.289   5.032   6.631
15193TIP3    H245457   0.420   4.959   6.649
15194TIP3   OH245458   1.564   5.421   7.495
15194TIP3    H145459   1.472   5.442   7.510
15194TIP3    H245460   1.563   5.357   7.424
15195TIP3   OH245461   1.233   5.635   6.885
15195TIP3    H145462   1.153   5.587   6.907
15195TIP3    H245463   1.300   5.598   6.942
15196TIP3   OH245464   1.203   6.616   6.823
15196TIP3    H145465   1.166   6.672   6.755
15196TIP3    H245466   1.298   6.623   6.812
15197TIP3   OH245467   0.462   6.231   6.087
15197TIP3    H145468   0.401   6.160   6.106
15197TIP3    H245469   0.542   6.188   6.059
15198TIP3   OH245470   1.083   6.499   7.636
15198TIP3    H145471   1.098   6.426   7.696
15198TIP3    H245472   1.160   6.555   7.647
15199TIP3   OH245473   0.906   6.217   5.910
15199TIP3    H145474   0.943   6.149   5.967
15199TIP3    H245475   0.956   6.210   5.829
15200TIP3   OH245476   0.731   6.114   7.772
15200TIP3    H145477   0.648   6.105   7.724
15200TIP3    H245478   0.764   6.024   7.778
15201TIP3   OH245479   0.683   5.903   6.063
15201TIP3    H145480   0.682   5.913   6.158
15201TIP3    H245481   0.629   5.825   6.047
15202TIP3   OH245482   1.196   6.183   7.419
15202TIP3    H145483   1.273   6.205   7.367
15202TIP3    H245484   1.133   6.252   7.399
15203TIP3   OH245485   0.316   5.546   6.475
15203TIP3    H145486   0.312   5.497   6.557
15203TIP3    H245487   0.372   5.493   6.418
15204TIP3   OH245488   0.203   3.860   5.802
15204TIP3    H145489   0.160   3.775   5.794
15204TIP3    H245490   0.274   3.857   5.739
15205TIP3   OH245491   0.476   5.381   6.320
15205TIP3    H145492   0.448   5.375   6.229
15205TIP3    H245493   0.572   5.384   6.316
15206TIP3   OH245494   1.082   6.044   7.761
15206TIP3    H145495   1.150   6.009   7.704
15206TIP3    H245496   1.082   5.987   7.838
15207TIP3   OH245497   1.224   5.713   5.936
15207TIP3    H145498   1.210   5.666   5.854
15207TIP3    H245499   1.201   5.803   5.917
15208TIP3   OH245500   0.689   5.410   7.876
15208TIP3    H145501   0.661   5.321   7.855
15208TIP3    H245502   0.664   5.461   7.799
15209TIP3   OH245503   0.608   5.211   7.633
15209TIP3    H145504   0.613   5.186   7.541
15209TIP3    H245505   0.619   5.306   7.632
15210TIP3   OH245506   0.695   5.857   7.397
15210TIP3    H145507   0.708   5.785   7.458
15210TIP3    H245508   0.753   5.926   7.429
15211TIP3   OH245509   1.298   5.728   7.846
15211TIP3    H145510   1.337   5.641   7.857
15211TIP3    H245511   1.373   5.786   7.830
15212TIP3   OH245512   1.315   6.004   7.583
15212TIP3    H145513   1.262   6.066   7.533
15212TIP3    H245514   1.404   6.016   7.551
15213TIP3   OH245515   0.945   4.908   7.672
15213TIP3    H145516   0.985   4.887   7.756
15213TIP3    H245517   0.855   4.935   7.694
15214TIP3   OH245518   0.955   5.502   7.912
15214TIP3    H145519   0.974   5.495   8.006
15214TIP3    H245520   0.866   5.468   7.902
15215TIP3   OH245521   1.181   5.444   7.760
15215TIP3    H145522   1.105   5.448   7.818
15215TIP3    H245523   1.253   5.417   7.817
15216TIP3   OH245524   1.416   5.409   7.907
15216TIP3    H145525   1.432   5.315   7.916
15216TIP3    H245526   1.411   5.442   7.997
15217TIP3   OH245527   0.859   5.005   7.973
15217TIP3    H145528   0.925   4.936   7.963
15217TIP3    H245529   0.799   4.991   7.900
15218TIP3   OH245530   7.516   0.597   0.093
15218TIP3    H145531   7.478   0.524   0.044
15218TIP3    H245532   7.444   0.659   0.103
15219TIP3   OH245533   1.477   6.655   6.819
15219TIP3    H145534   1.503   6.680   6.908
15219TIP3    H245535   1.537   6.703   6.763
15220TIP3   OH245536   1.502   6.681   7.101
15220TIP3    H145537   1.452   6.599   7.097
15220TIP3    H245538   1.571   6.665   7.164
15221TIP3   OH245539   1.554   6.395   7.664
15221TIP3    H145540   1.484   6.403   7.729
15221TIP3    H245541   1.601   6.479   7.670
15222TIP3   OH245542   1.380   5.912   6.281
15222TIP3    H145543   1.437   5.983   6.252
15222TIP3    H245544   1.426   5.875   6.357
15223TIP3   OH245545   1.509   5.771   6.483
15223TIP3    H145546   1.447   5.728   6.541
15223TIP3    H245547   1.576   5.808   6.541
15224TIP3   OH245548   1.545   6.170   6.918
15224TIP3    H145549   1.597   6.100   6.879
15224TIP3    H245550   1.550   6.242   6.855
15225TIP3   OH245551   1.348   6.453   7.112
15225TIP3    H145552   1.280   6.497   7.163
15225TIP3    H245553   1.300   6.412   7.040
15226TIP3   OH245554   1.412   5.683   6.133
15226TIP3    H145555   1.346   5.687   6.064
15226TIP3    H245556   1.397   5.762   6.185
15227TIP3   OH245557   1.268   5.326   6.069
15227TIP3    H145558   1.216   5.361   5.998
15227TIP3    H245559   1.262   5.231   6.060
15228TIP3   OH245560   1.319   5.621   6.622
15228TIP3    H145561   1.320   5.527   6.607
15228TIP3    H245562   1.293   5.630   6.714
15229TIP3   OH245563   1.571   6.040   7.482
15229TIP3    H145564   1.638   5.974   7.466
15229TIP3    H245565   1.580   6.102   7.410
15230TIP3   OH245566   1.753   5.833   7.473
15230TIP3    H145567   1.679   5.790   7.517
15230TIP3    H245568   1.828   5.777   7.492
15231TIP3   OH245569   1.230   5.054   6.034
15231TIP3    H145570   1.295   5.031   6.102
15231TIP3    H245571   1.148   5.020   6.068
15232TIP3   OH245572   1.297   5.348   6.507
15232TIP3    H145573   1.341   5.264   6.520
15232TIP3    H245574   1.339   5.385   6.429
15233TIP3   OH245575   1.445   5.521   7.031
15233TIP3    H145576   1.527   5.538   6.984
15233TIP3    H245577   1.459   5.558   7.118
15234TIP3   OH245578   1.520   5.666   7.260
15234TIP3    H145579   1.450   5.694   7.319
15234TIP3    H245580   1.549   5.746   7.217
15235TIP3   OH245581   1.979   5.263   7.798
15235TIP3    H145582   2.044   5.206   7.758
15235TIP3    H245583   1.942   5.312   7.725
15236TIP3   OH245584   1.406   5.096   6.556
15236TIP3    H145585   1.450   5.085   6.640
15236TIP3    H245586   1.344   5.023   6.551
15237TIP3   OH245587   1.828   5.380   7.602
15237TIP3    H145588   1.750   5.419   7.640
15237TIP3    H245589   1.795   5.311   7.544
15238TIP3   OH245590   1.451   5.011   6.196
15238TIP3    H145591   1.503   4.950   6.144
15238TIP3    H245592   1.504   5.091   6.201
15239TIP3   OH245593   1.033   6.585   6.473
15239TIP3    H145594   1.094   6.569   6.402
15239TIP3    H245595   1.074   6.654   6.526
15240TIP3   OH245596   0.765   6.618   7.506
15240TIP3    H145597   0.780   6.620   7.601
15240TIP3    H245598   0.836   6.670   7.469
15241TIP3   OH245599   0.965   6.779   7.398
15241TIP3    H145600   1.034   6.725   7.360
15241TIP3    H245601   1.012   6.841   7.455
15242TIP3   OH245602   1.741   5.125   7.495
15242TIP3    H145603   1.651   5.111   7.464
15242TIP3    H245604   1.781   5.039   7.491
15243TIP3   OH245605   0.670   6.729   7.034
15243TIP3    H145606   0.581   6.697   7.048
15243TIP3    H245607   0.686   6.791   7.105
15244TIP3   OH245608   0.908   6.606   7.107
15244TIP3    H145609   0.822   6.642   7.083
15244TIP3    H245610   0.970   6.672   7.075
15245TIP3   OH245611   1.119   6.772   7.034
15245TIP3    H145612   1.113   6.860   6.997
15245TIP3    H245613   1.149   6.718   6.961
15246TIP3   OH245614   0.985   5.074   7.122
15246TIP3    H145615   0.933   5.007   7.167
15246TIP3    H245616   1.042   5.025   7.063
15247TIP3   OH245617   1.449   4.969   7.012
15247TIP3    H145618   1.486   5.018   6.938
15247TIP3    H245619   1.355   4.984   7.006
15248TIP3   OH245620   1.564   5.052   6.778
15248TIP3    H145621   1.633   4.991   6.754
15248TIP3    H245622   1.603   5.139   6.764
15249TIP3   OH245623   0.778   4.749   7.007
15249TIP3    H145624   0.716   4.814   6.975
15249TIP3    H245625   0.812   4.786   7.089
15250TIP3   OH245626   1.172   4.945   6.967
15250TIP3    H145627   1.174   4.907   6.879
15250TIP3    H245628   1.172   4.869   7.025
15251TIP3   OH245629   1.224   4.882   6.568
15251TIP3    H145630   1.147   4.936   6.588
15251TIP3    H245631   1.204   4.797   6.607
15252TIP3   OH245632   0.073   4.729   6.579
15252TIP3    H145633   0.133   4.657   6.593
15252TIP3    H245634   0.007   4.720   6.648
15253TIP3   OH245635   0.598   4.980   6.619
15253TIP3    H145636   0.655   4.926   6.673
15253TIP3    H245637   0.629   5.070   6.635
15254TIP3   OH245638   0.530   6.464   6.207
15254TIP3    H145639   0.622   6.449   6.186
15254TIP3    H245640   0.486   6.383   6.181
15255TIP3   OH245641   1.177   6.523   6.247
15255TIP3    H145642   1.165   6.429   6.238
15255TIP3    H245643   1.147   6.559   6.163
15256TIP3   OH245644   7.183   0.460   0.137
15256TIP3    H145645   7.258   0.434   0.084
15256TIP3    H245646   7.150   0.377   0.174
15257TIP3   OH245647   1.487   5.142   7.924
15257TIP3    H145648   1.504   5.114   8.014
15257TIP3    H245649   1.572   5.136   7.880
15258TIP3   OH245650   1.400   6.666   7.424
15258TIP3    H145651   1.324   6.638   7.372
15258TIP3    H245652   1.390   6.761   7.430
15259TIP3   OH245653   2.676   6.056   6.159
15259TIP3    H145654   2.646   6.143   6.135
15259TIP3    H245655   2.604   5.998   6.133
15260TIP3   OH245656   2.674   6.045   6.588
15260TIP3    H145657   2.728   6.031   6.666
15260TIP3    H245658   2.629   5.962   6.575
15261TIP3   OH245659   1.969   5.905   6.933
15261TIP3    H145660   2.010   5.855   7.004
15261TIP3    H245661   2.042   5.931   6.877
15262TIP3   OH245662   2.941   6.354   6.259
15262TIP3    H145663   2.932   6.290   6.330
15262TIP3    H245664   2.961   6.436   6.304
15263TIP3   OH245665   1.959   6.322   6.614
15263TIP3    H145666   1.941   6.229   6.619
15263TIP3    H245667   2.055   6.328   6.608
15264TIP3   OH245668   1.650   5.541   6.397
15264TIP3    H145669   1.613   5.626   6.422
15264TIP3    H245670   1.576   5.494   6.359
15265TIP3   OH245671   1.732   5.856   6.627
15265TIP3    H145672   1.782   5.779   6.653
15265TIP3    H245673   1.798   5.922   6.606
15266TIP3   OH245674   2.583   6.807   6.263
15266TIP3    H145675   2.621   6.737   6.209
15266TIP3    H245676   2.565   6.765   6.347
15267TIP3   OH245677   2.485   6.265   6.594
15267TIP3    H145678   2.533   6.187   6.567
15267TIP3    H245679   2.553   6.324   6.627
15268TIP3   OH245680   3.506   5.602   6.612
15268TIP3    H145681   3.527   5.680   6.662
15268TIP3    H245682   3.506   5.632   6.521
15269TIP3   OH245683   2.885   5.753   6.627
15269TIP3    H145684   2.916   5.667   6.655
15269TIP3    H245685   2.848   5.737   6.539
15270TIP3   OH245686   2.243   5.411   6.582
15270TIP3    H145687   2.220   5.486   6.526
15270TIP3    H245688   2.185   5.341   6.553
15271TIP3   OH245689   2.940   5.517   6.225
15271TIP3    H145690   3.004   5.511   6.296
15271TIP3    H245691   2.989   5.554   6.152
15272TIP3   OH245692   1.870   5.633   6.716
15272TIP3    H145693   1.953   5.613   6.759
15272TIP3    H245694   1.872   5.581   6.636
15273TIP3   OH245695   2.284   5.831   6.533
15273TIP3    H145696   2.379   5.817   6.540
15273TIP3    H245697   2.249   5.749   6.500
15274TIP3   OH245698   3.565   5.812   6.782
15274TIP3    H145699   3.481   5.857   6.772
15274TIP3    H245700   3.604   5.852   6.860
15275TIP3   OH245701   2.224   5.421   7.037
15275TIP3    H145702   2.175   5.457   6.964
15275TIP3    H245703   2.170   5.437   7.114
15276TIP3   OH245704   2.570   6.275   6.025
15276TIP3    H145705   2.531   6.245   5.942
15276TIP3    H245706   2.520   6.352   6.049
15277TIP3   OH245707   2.310   6.196   6.798
15277TIP3    H145708   2.259   6.270   6.831
15277TIP3    H245709   2.362   6.233   6.727
15278TIP3   OH245710   3.099   5.537   6.447
15278TIP3    H145711   3.054   5.515   6.529
15278TIP3    H245712   3.151   5.614   6.468
15279TIP3   OH245713   2.118   5.527   6.804
15279TIP3    H145714   2.172   5.603   6.827
15279TIP3    H245715   2.165   5.484   6.733
15280TIP3   OH245716   2.161   6.403   6.905
15280TIP3    H145717   2.150   6.494   6.877
15280TIP3    H245718   2.083   6.385   6.958
15281TIP3   OH245719   1.544   6.105   6.164
15281TIP3    H145720   1.511   6.124   6.076
15281TIP3    H245721   1.566   6.191   6.200
15282TIP3   OH245722   2.977   6.600   6.395
15282TIP3    H145723   2.892   6.594   6.439
15282TIP3    H245724   2.976   6.685   6.351
15283TIP3   OH245725   3.315   5.466   6.771
15283TIP3    H145726   3.226   5.484   6.739
15283TIP3    H245727   3.373   5.502   6.705
15284TIP3   OH245728   2.564   5.108   6.774
15284TIP3    H145729   2.557   5.016   6.801
15284TIP3    H245730   2.487   5.150   6.812
15285TIP3   OH245731   2.693   6.626   6.083
15285TIP3    H145732   2.741   6.545   6.064
15285TIP3    H245733   2.744   6.695   6.041
15286TIP3   OH245734   2.824   6.394   6.012
15286TIP3    H145735   2.747   6.338   6.016
15286TIP3    H245736   2.873   6.373   6.091
15287TIP3   OH245737   3.204   6.498   6.747
15287TIP3    H145738   3.192   6.423   6.688
15287TIP3    H245739   3.192   6.575   6.691
15288TIP3   OH245740   2.500   5.892   6.015
15288TIP3    H145741   2.417   5.937   5.996
15288TIP3    H245742   2.547   5.894   5.932
15289TIP3   OH245743   2.473   5.703   5.698
15289TIP3    H145744   2.537   5.754   5.747
15289TIP3    H245745   2.524   5.633   5.657
15290TIP3   OH245746   3.388   6.145   6.612
15290TIP3    H145747   3.307   6.195   6.615
15290TIP3    H245748   3.424   6.162   6.525
15291TIP3   OH245749   2.863   5.980   5.974
15291TIP3    H145750   2.808   6.011   6.046
15291TIP3    H245751   2.947   5.961   6.015
15292TIP3   OH245752   3.090   6.009   6.926
15292TIP3    H145753   3.088   6.094   6.970
15292TIP3    H245754   3.009   6.005   6.876
15293TIP3   OH245755   2.088   5.962   6.377
15293TIP3    H145756   2.054   5.900   6.313
15293TIP3    H245757   2.162   5.916   6.418
15294TIP3   OH245758   2.226   6.368   6.527
15294TIP3    H145759   2.206   6.364   6.433
15294TIP3    H245760   2.316   6.336   6.534
15295TIP3   OH245761   2.180   5.960   6.755
15295TIP3    H145762   2.220   5.923   6.676
15295TIP3    H245763   2.227   6.042   6.770
15296TIP3   OH245764   2.749   6.595   6.541
15296TIP3    H145765   2.724   6.679   6.582
15296TIP3    H245766   2.725   6.529   6.606
15297TIP3   OH245767   2.359   6.493   7.079
15297TIP3    H145768   2.297   6.550   7.125
15297TIP3    H245769   2.304   6.444   7.018
15298TIP3   OH245770   2.688   5.850   5.804
15298TIP3    H145771   2.749   5.907   5.851
15298TIP3    H245772   2.720   5.850   5.714
15299TIP3   OH245773   2.112   6.037   7.227
15299TIP3    H145774   2.117   6.131   7.243
15299TIP3    H245775   2.018   6.019   7.220
15300TIP3   OH245776   2.440   6.517   6.060
15300TIP3    H145777   2.523   6.562   6.077
15300TIP3    H245778   2.387   6.582   6.015
15301TIP3   OH245779   2.150   6.653   7.163
15301TIP3    H145780   2.129   6.668   7.071
15301TIP3    H245781   2.065   6.641   7.206
15302TIP3   OH245782   3.216   5.071   5.877
15302TIP3    H145783   3.134   5.098   5.920
15302TIP3    H245784   3.224   5.130   5.803
15303TIP3   OH245785   1.962   5.801   6.179
15303TIP3    H145786   1.886   5.851   6.151
15303TIP3    H245787   1.928   5.714   6.199
15304TIP3   OH245788   3.027   6.445   5.420
15304TIP3    H145789   3.018   6.539   5.404
15304TIP3    H245790   3.116   6.424   5.394
15305TIP3   OH245791   1.747   6.211   7.113
15305TIP3    H145792   1.678   6.192   7.050
15305TIP3    H245793   1.781   6.125   7.138
15306TIP3   OH245794   1.598   6.398   6.762
15306TIP3    H145795   1.691   6.416   6.772
15306TIP3    H245796   1.555   6.477   6.796
15307TIP3   OH245797   3.435   6.902   6.806
15307TIP3    H145798   3.486   6.825   6.830
15307TIP3    H245799   3.355   6.896   6.858
15308TIP3   OH245800   2.546   6.642   6.943
15308TIP3    H145801   2.536   6.733   6.971
15308TIP3    H245802   2.478   6.594   6.990
15309TIP3   OH245803   2.337   6.735   5.899
15309TIP3    H145804   2.294   6.721   5.815
15309TIP3    H245805   2.299   6.817   5.932
15310TIP3   OH245806   1.762   6.593   6.270
15310TIP3    H145807   1.807   6.583   6.354
15310TIP3    H245808   1.715   6.510   6.257
15311TIP3   OH245809   2.530   6.672   5.521
15311TIP3    H145810   2.581   6.598   5.486
15311TIP3    H245811   2.566   6.687   5.608
15312TIP3   OH245812   2.593   6.721   5.786
15312TIP3    H145813   2.514   6.715   5.840
15312TIP3    H245814   2.665   6.719   5.850
15313TIP3   OH245815   3.335   5.963   7.087
15313TIP3    H145816   3.251   5.976   7.043
15313TIP3    H245817   3.351   5.869   7.079
15314TIP3   OH245818   1.946   6.400   7.079
15314TIP3    H145819   1.998   6.385   7.159
15314TIP3    H245820   1.874   6.337   7.086
15315TIP3   OH245821   2.327   5.202   6.897
15315TIP3    H145822   2.243   5.168   6.866
15315TIP3    H245823   2.305   5.283   6.942
15316TIP3   OH245824   2.868   5.325   7.100
15316TIP3    H145825   2.936   5.302   7.163
15316TIP3    H245826   2.786   5.311   7.147
15317TIP3   OH245827   3.091   5.742   7.014
15317TIP3    H145828   3.051   5.737   7.101
15317TIP3    H245829   3.076   5.832   6.986
15318TIP3   OH245830   2.769   5.809   5.543
15318TIP3    H145831   2.726   5.815   5.458
15318TIP3    H245832   2.851   5.857   5.532
15319TIP3   OH245833   2.464   5.253   5.867
15319TIP3    H145834   2.428   5.250   5.956
15319TIP3    H245835   2.448   5.165   5.832
15320TIP3   OH245836   2.266   5.740   6.902
15320TIP3    H145837   2.222   5.746   6.987
15320TIP3    H245838   2.244   5.821   6.857
15321TIP3   OH245839   2.145   5.615   6.427
15321TIP3    H145840   2.056   5.592   6.453
15321TIP3    H245841   2.153   5.584   6.337
15322TIP3   OH245842   2.619   5.689   6.155
15322TIP3    H145843   2.573   5.763   6.116
15322TIP3    H245844   2.682   5.662   6.087
15323TIP3   OH245845   2.812   5.953   7.225
15323TIP3    H145846   2.786   5.886   7.288
15323TIP3    H245847   2.904   5.970   7.244
15324TIP3   OH245848   2.790   5.701   6.376
15324TIP3    H145849   2.721   5.722   6.313
15324TIP3    H245850   2.838   5.629   6.334
15325TIP3   OH245851   2.107   5.754   7.126
15325TIP3    H145852   2.118   5.819   7.195
15325TIP3    H245853   2.089   5.672   7.173
15326TIP3   OH245854   2.144   5.225   5.856
15326TIP3    H145855   2.135   5.237   5.950
15326TIP3    H245856   2.067   5.269   5.818
15327TIP3   OH245857   1.697   5.273   6.702
15327TIP3    H145858   1.769   5.308   6.755
15327TIP3    H245859   1.737   5.254   6.617
15328TIP3   OH245860   1.598   5.246   6.207
15328TIP3    H145861   1.643   5.281   6.130
15328TIP3    H245862   1.535   5.315   6.231
15329TIP3   OH245863   2.842   5.956   6.801
15329TIP3    H145864   2.864   5.888   6.737
15329TIP3    H245865   2.795   5.909   6.870
15330TIP3   OH245866   2.510   5.396   6.474
15330TIP3    H145867   2.431   5.399   6.528
15330TIP3    H245868   2.582   5.391   6.536
15331TIP3   OH245869   1.906   5.491   6.485
15331TIP3    H145870   1.819   5.496   6.447
15331TIP3    H245871   1.933   5.400   6.470
15332TIP3   OH245872   2.159   5.496   6.180
15332TIP3    H145873   2.253   5.507   6.171
15332TIP3    H245874   2.124   5.513   6.093
15333TIP3   OH245875   2.954   5.490   6.683
15333TIP3    H145876   2.937   5.507   6.775
15333TIP3    H245877   2.884   5.430   6.657
15334TIP3   OH245878   2.052   5.514   5.929
15334TIP3    H145879   1.987   5.467   5.876
15334TIP3    H245880   2.105   5.562   5.866
15335TIP3   OH245881   3.157   7.196   6.898
15335TIP3    H145882   3.152   7.213   6.804
15335TIP3    H245883   3.238   7.240   6.926
15336TIP3   OH245884   2.096   6.306   7.312
15336TIP3    H145885   2.177   6.326   7.359
15336TIP3    H245886   2.027   6.317   7.378
15337TIP3   OH245887   2.557   5.777   6.583
15337TIP3    H145888   2.626   5.730   6.537
15337TIP3    H245889   2.555   5.738   6.670
15338TIP3   OH245890   2.044   5.241   6.469
15338TIP3    H145891   2.019   5.165   6.523
15338TIP3    H245892   2.058   5.205   6.382
15339TIP3   OH245893   2.532   5.682   6.847
15339TIP3    H145894   2.446   5.715   6.871
15339TIP3    H245895   2.593   5.734   6.900
15340TIP3   OH245896   2.262   6.024   5.960
15340TIP3    H145897   2.186   5.973   5.934
15340TIP3    H245898   2.234   6.069   6.040
15341TIP3   OH245899   3.158   6.291   6.567
15341TIP3    H145900   3.196   6.341   6.495
15341TIP3    H245901   3.079   6.252   6.531
15342TIP3   OH245902   2.716   5.367   5.881
15342TIP3    H145903   2.622   5.349   5.876
15342TIP3    H245904   2.722   5.461   5.894
15343TIP3   OH245905   2.670   6.371   6.991
15343TIP3    H145906   2.726   6.363   7.068
15343TIP3    H245907   2.635   6.460   6.996
15344TIP3   OH245908   2.789   5.627   5.943
15344TIP3    H145909   2.884   5.629   5.952
15344TIP3    H245910   2.768   5.704   5.890
15345TIP3   OH245911   1.950   6.036   6.605
15345TIP3    H145912   1.989   6.021   6.519
15345TIP3    H245913   2.018   6.010   6.667
15346TIP3   OH245914   2.415   6.188   5.804
15346TIP3    H145915   2.367   6.270   5.801
15346TIP3    H245916   2.360   6.130   5.858
15347TIP3   OH245917   1.837   5.976   7.244
15347TIP3    H145918   1.838   5.949   7.336
15347TIP3    H245919   1.762   5.930   7.207
15348TIP3   OH245920   2.581   6.111   7.267
15348TIP3    H145921   2.511   6.052   7.239
15348TIP3    H245922   2.662   6.069   7.236
15349TIP3   OH245923   2.816   6.659   6.872
15349TIP3    H145924   2.720   6.650   6.876
15349TIP3    H245925   2.839   6.698   6.957
15350TIP3   OH245926   3.195   5.701   5.751
15350TIP3    H145927   3.139   5.655   5.689
15350TIP3    H245928   3.202   5.790   5.717
15351TIP3   OH245929   3.455   6.536   6.854
15351TIP3    H145930   3.362   6.547   6.838
15351TIP3    H245931   3.493   6.522   6.768
15352TIP3   OH245932   2.947   6.520   5.690
15352TIP3    H145933   2.916   6.457   5.755
15352TIP3    H245934   2.962   6.468   5.611
15353TIP3   OH245935   2.930   6.154   6.462
15353TIP3    H145936   2.840   6.135   6.489
15353TIP3    H245937   2.961   6.072   6.423
15354TIP3   OH245938   2.087   6.390   6.282
15354TIP3    H145939   2.086   6.464   6.221
15354TIP3    H245940   2.000   6.391   6.323
15355TIP3   OH245941   1.649   5.672   5.994
15355TIP3    H145942   1.691   5.756   6.014
15355TIP3    H245943   1.569   5.672   6.045
15356TIP3   OH245944   2.155   6.145   6.176
15356TIP3    H145945   2.144   6.235   6.209
15356TIP3    H245946   2.133   6.090   6.251
15357TIP3   OH245947   2.367   6.716   6.729
15357TIP3    H145948   2.396   6.789   6.674
15357TIP3    H245949   2.445   6.690   6.777
15358TIP3   OH245950   1.999   6.607   6.127
15358TIP3    H145951   1.912   6.618   6.166
15358TIP3    H245952   2.039   6.694   6.132
15359TIP3   OH245953   2.710   6.377   6.717
15359TIP3    H145954   2.694   6.372   6.812
15359TIP3    H245955   2.799   6.344   6.706
15360TIP3   OH245956   2.712   6.251   5.571
15360TIP3    H145957   2.764   6.219   5.645
15360TIP3    H245958   2.627   6.207   5.580
15361TIP3   OH245959   2.965   6.868   6.744
15361TIP3    H145960   2.894   6.807   6.763
15361TIP3    H245961   2.933   6.922   6.672
15362TIP3   OH245962   3.019   6.719   5.383
15362TIP3    H145963   3.045   6.783   5.318
15362TIP3    H245964   2.947   6.760   5.430
15363TIP3   OH245965   2.053   5.499   7.243
15363TIP3    H145966   1.958   5.509   7.247
15363TIP3    H245967   2.076   5.449   7.321
15364TIP3   OH245968   2.889   6.150   5.755
15364TIP3    H145969   2.875   6.104   5.837
15364TIP3    H245970   2.984   6.165   5.752
15365TIP3   OH245971   1.790   6.617   6.897
15365TIP3    H145972   1.844   6.561   6.952
15365TIP3    H245973   1.805   6.706   6.929
15366TIP3   OH245974   2.063   6.217   5.593
15366TIP3    H145975   2.074   6.126   5.567
15366TIP3    H245976   2.051   6.214   5.688
15367TIP3   OH245977   2.004   6.233   5.866
15367TIP3    H145978   2.064   6.210   5.937
15367TIP3    H245979   2.001   6.329   5.867
15368TIP3   OH245980   1.738   5.925   6.073
15368TIP3    H145981   1.674   5.975   6.125
15368TIP3    H245982   1.758   5.983   5.999
15369TIP3   OH245983   2.902   5.551   6.944
15369TIP3    H145984   2.977   5.599   6.978
15369TIP3    H245985   2.892   5.476   7.004
15370TIP3   OH245986   2.791   5.299   6.139
15370TIP3    H145987   2.766   5.320   6.049
15370TIP3    H245988   2.835   5.377   6.171
15371TIP3   OH245989   2.268   6.414   5.795
15371TIP3    H145990   2.184   6.441   5.833
15371TIP3    H245991   2.299   6.492   5.749
15372TIP3   OH245992   2.437   5.494   6.222
15372TIP3    H145993   2.498   5.564   6.197
15372TIP3    H245994   2.461   5.474   6.313
15373TIP3   OH245995   2.738   5.793   6.999
15373TIP3    H145996   2.762   5.840   7.080
15373TIP3    H245997   2.788   5.712   7.003
15374TIP3   OH245998   2.604   5.190   6.310
15374TIP3    H145999   2.579   5.266   6.363
15374TIP3    H246000   2.674   5.222   6.253
15375TIP3   OH246001   2.019   6.505   5.874
15375TIP3    H146002   2.002   6.578   5.814
15375TIP3    H246003   2.011   6.544   5.961
15376TIP3   OH246004   2.112   5.224   6.136
15376TIP3    H146005   2.103   5.316   6.161
15376TIP3    H246006   2.206   5.207   6.142
15377TIP3   OH246007   3.357   5.694   6.990
15377TIP3    H146008   3.262   5.693   7.003
15377TIP3    H246009   3.368   5.681   6.896
15378TIP3   OH246010   3.016   5.892   6.373
15378TIP3    H146011   2.937   5.838   6.385
15378TIP3    H246012   3.081   5.853   6.432
15379TIP3   OH246013   1.763   6.099   5.855
15379TIP3    H146014   1.835   6.161   5.864
15379TIP3    H246015   1.792   6.037   5.789
15380TIP3   OH246016   1.664   5.394   5.984
15380TIP3    H146017   1.681   5.487   5.996
15380TIP3    H246018   1.601   5.390   5.913
15381TIP3   OH246019   3.001   6.866   6.315
15381TIP3    H146020   2.960   6.912   6.242
15381TIP3    H246021   3.095   6.882   6.304
15382TIP3   OH246022   2.067   5.114   6.855
15382TIP3    H146023   2.037   5.082   6.771
15382TIP3    H246024   2.059   5.039   6.914
15383TIP3   OH246025   1.585   6.372   6.249
15383TIP3    H146026   1.548   6.408   6.329
15383TIP3    H246027   1.538   6.417   6.178
15384TIP3   OH246028   1.794   6.910   7.307
15384TIP3    H146029   1.876   6.916   7.355
15384TIP3    H246030   1.780   6.816   7.295
15385TIP3   OH246031   2.260   6.808   7.362
15385TIP3    H146032   2.352   6.781   7.370
15385TIP3    H246033   2.226   6.757   7.289
15386TIP3   OH246034   2.213   6.421   5.479
15386TIP3    H146035   2.168   6.351   5.527
15386TIP3    H246036   2.289   6.378   5.439
15387TIP3   OH246037   2.871   6.758   7.123
15387TIP3    H146038   2.891   6.687   7.185
15387TIP3    H246039   2.944   6.819   7.133
15388TIP3   OH246040   2.658   6.460   5.402
15388TIP3    H146041   2.692   6.396   5.464
15388TIP3    H246042   2.717   6.455   5.327
15389TIP3   OH246043   1.892   6.311   7.504
15389TIP3    H146044   1.912   6.218   7.516
15389TIP3    H246045   1.806   6.312   7.464
15390TIP3   OH246046   1.882   5.909   5.698
15390TIP3    H146047   1.932   5.885   5.776
15390TIP3    H246048   1.948   5.925   5.631
15391TIP3   OH246049   2.514   6.389   7.283
15391TIP3    H146050   2.470   6.411   7.200
15391TIP3    H246051   2.551   6.302   7.267
15392TIP3   OH246052   2.458   6.131   5.540
15392TIP3    H146053   2.434   6.143   5.632
15392TIP3    H246054   2.435   6.040   5.520
15393TIP3   OH246055   2.980   6.433   6.893
15393TIP3    H146056   3.059   6.462   6.847
15393TIP3    H246057   2.919   6.506   6.883
15394TIP3   OH246058   2.006   6.056   7.514
15394TIP3    H146059   2.080   6.038   7.457
15394TIP3    H246060   2.045   6.073   7.600
15395TIP3   OH246061   2.051   5.850   5.912
15395TIP3    H146062   2.032   5.821   6.001
15395TIP3    H246063   2.103   5.779   5.874
15396TIP3   OH246064   2.374   5.939   7.171
15396TIP3    H146065   2.288   5.978   7.182
15396TIP3    H246066   2.404   5.969   7.085
15397TIP3   OH246067   2.202   5.669   5.761
15397TIP3    H146068   2.170   5.676   5.670
15397TIP3    H246069   2.297   5.680   5.754
15398TIP3   OH246070   2.865   6.310   7.243
15398TIP3    H146071   2.934   6.272   7.188
15398TIP3    H246072   2.863   6.254   7.321
15399TIP3   OH246073   2.986   5.952   5.442
15399TIP3    H146074   2.977   5.912   5.355
15399TIP3    H246075   2.963   6.044   5.428
15400TIP3   OH246076   2.475   5.706   7.278
15400TIP3    H146077   2.477   5.636   7.212
15400TIP3    H246078   2.441   5.782   7.230
15401TIP3   OH246079   2.483   5.508   7.073
15401TIP3    H146080   2.510   5.546   6.990
15401TIP3    H246081   2.392   5.480   7.059
15402TIP3   OH246082   2.484   6.041   6.944
15402TIP3    H146083   2.570   6.084   6.938
15402TIP3    H246084   2.426   6.097   6.892
15403TIP3   OH246085   3.079   5.997   7.322
15403TIP3    H146086   3.133   5.918   7.327
15403TIP3    H246087   3.142   6.069   7.317
15404TIP3   OH246088   3.107   6.258   7.058
15404TIP3    H146089   3.053   6.318   7.007
15404TIP3    H246090   3.196   6.274   7.029
15405TIP3   OH246091   2.361   5.783   7.523
15405TIP3    H146092   2.291   5.721   7.543
15405TIP3    H246093   2.389   5.760   7.434
15406TIP3   OH246094   2.603   5.277   7.179
15406TIP3    H146095   2.563   5.358   7.145
15406TIP3    H246096   2.536   5.210   7.167
15407TIP3   OH246097   2.730   5.743   7.382
15407TIP3    H146098   2.719   5.730   7.476
15407TIP3    H246099   2.644   5.723   7.345
15408TIP3   OH246100   2.976   5.697   7.254
15408TIP3    H146101   2.897   5.698   7.308
15408TIP3    H246102   3.047   5.678   7.315
15409TIP3   OH246103   3.214   5.668   7.403
15409TIP3    H146104   3.226   5.574   7.410
15409TIP3    H246105   3.208   5.698   7.494
15410TIP3   OH246106   2.191   5.565   7.585
15410TIP3    H146107   2.196   5.477   7.549
15410TIP3    H246108   2.229   5.559   7.672
15411TIP3   OH246109   2.667   5.250   7.445
15411TIP3    H146110   2.734   5.183   7.438
15411TIP3    H246111   2.637   5.264   7.355
15412TIP3   OH246112   2.767   5.463   7.589
15412TIP3    H146113   2.734   5.391   7.535
15412TIP3    H246114   2.695   5.526   7.592
15413TIP3   OH246115   2.019   6.714   5.692
15413TIP3    H146116   2.110   6.695   5.670
15413TIP3    H246117   1.985   6.760   5.616
15414TIP3   OH246118   1.490   6.104   5.873
15414TIP3    H146119   1.585   6.114   5.870
15414TIP3    H246120   1.474   6.017   5.835
15415TIP3   OH246121   1.393   6.672   6.332
15415TIP3    H146122   1.329   6.616   6.288
15415TIP3    H246123   1.440   6.612   6.391
15416TIP3   OH246124   1.535   6.506   6.501
15416TIP3    H146125   1.530   6.437   6.567
15416TIP3    H246126   1.588   6.575   6.541
15417TIP3   OH246127   3.271   6.922   6.305
15417TIP3    H146128   3.286   6.949   6.395
15417TIP3    H246129   3.330   6.976   6.253
15418TIP3   OH246130   3.277   6.955   6.581
15418TIP3    H146131   3.235   6.869   6.581
15418TIP3    H246132   3.346   6.947   6.647
15419TIP3   OH246133   3.348   6.645   7.174
15419TIP3    H146134   3.276   6.660   7.235
15419TIP3    H246135   3.393   6.729   7.170
15420TIP3   OH246136   3.170   6.165   5.766
15420TIP3    H146137   3.224   6.239   5.738
15420TIP3    H246138   3.216   6.129   5.842
15421TIP3   OH246139   3.302   6.025   5.969
15421TIP3    H146140   3.234   5.991   6.027
15421TIP3    H246141   3.367   6.063   6.027
15422TIP3   OH246142   3.340   6.428   6.407
15422TIP3    H146143   3.391   6.363   6.360
15422TIP3    H246144   3.345   6.507   6.352
15423TIP3   OH246145   3.140   6.714   6.592
15423TIP3    H146146   3.073   6.759   6.642
15423TIP3    H246147   3.093   6.673   6.519
15424TIP3   OH246148   3.199   5.938   5.614
15424TIP3    H146149   3.126   5.938   5.553
15424TIP3    H246150   3.187   6.018   5.666
15425TIP3   OH246151   3.050   5.574   5.555
15425TIP3    H146152   3.001   5.602   5.477
15425TIP3    H246153   3.052   5.479   5.549
15426TIP3   OH246154   3.094   5.891   6.107
15426TIP3    H146155   3.096   5.796   6.092
15426TIP3    H246156   3.072   5.900   6.199
15427TIP3   OH246157   1.707   5.949   6.883
15427TIP3    H146158   1.698   5.916   6.793
15427TIP3    H246159   1.801   5.943   6.901
15428TIP3   OH246160   3.369   6.299   6.977
15428TIP3    H146161   3.435   6.233   6.955
15428TIP3    H246162   3.396   6.377   6.929
15429TIP3   OH246163   3.543   6.086   6.957
15429TIP3    H146164   3.471   6.045   7.005
15429TIP3    H246165   3.620   6.036   6.983
15430TIP3   OH246166   3.044   5.298   5.534
15430TIP3    H146167   3.120   5.266   5.583
15430TIP3    H246168   2.970   5.250   5.572
15431TIP3   OH246169   3.079   5.614   5.996
15431TIP3    H146170   3.126   5.531   6.008
15431TIP3    H246171   3.118   5.652   5.917
15432TIP3   OH246172   3.230   5.772   6.519
15432TIP3    H146173   3.311   5.790   6.471
15432TIP3    H246174   3.243   5.815   6.604
15433TIP3   OH246175   3.305   5.921   6.749
15433TIP3    H146176   3.233   5.949   6.805
15433TIP3    H246177   3.334   6.000   6.705
15434TIP3   OH246178   1.928   5.624   7.520
15434TIP3    H146179   2.022   5.622   7.540
15434TIP3    H246180   1.893   5.544   7.558
15435TIP3   OH246181   3.779   5.514   7.284
15435TIP3    H146182   3.845   5.461   7.239
15435TIP3    H246183   3.738   5.567   7.215
15436TIP3   OH246184   3.199   5.365   6.045
15436TIP3    H146185   3.242   5.347   6.129
15436TIP3    H246186   3.136   5.293   6.035
15437TIP3   OH246187   1.909   5.343   6.867
15437TIP3    H146188   1.961   5.263   6.876
15437TIP3    H246189   1.973   5.412   6.850
15438TIP3   OH246190   1.689   5.604   6.933
15438TIP3    H146191   1.739   5.596   6.851
15438TIP3    H246192   1.722   5.683   6.974
15439TIP3   OH246193   3.620   5.643   7.104
15439TIP3    H146194   3.552   5.685   7.157
15439TIP3    H246195   3.571   5.594   7.037
15440TIP3   OH246196   3.284   5.251   5.674
15440TIP3    H146197   3.368   5.206   5.684
15440TIP3    H246198   3.307   5.344   5.674
15441TIP3   OH246199   1.672   5.115   6.435
15441TIP3    H146200   1.587   5.102   6.478
15441TIP3    H246201   1.652   5.169   6.359
15442TIP3   OH246202   2.823   6.811   5.937
15442TIP3    H146203   2.889   6.810   5.868
15442TIP3    H246204   2.851   6.882   5.995
15443TIP3   OH246205   1.894   5.160   7.256
15443TIP3    H146206   1.845   5.156   7.338
15443TIP3    H246207   1.839   5.213   7.198
15444TIP3   OH246208   1.922   6.633   7.323
15444TIP3    H146209   1.830   6.608   7.320
15444TIP3    H246210   1.946   6.623   7.416
15445TIP3   OH246211   2.142   6.681   6.883
15445TIP3    H146212   2.091   6.755   6.851
15445TIP3    H246213   2.227   6.689   6.840
15446TIP3   OH246214   2.530   6.908   7.021
15446TIP3    H146215   2.569   6.902   7.108
15446TIP3    H246216   2.592   6.962   6.971
15447TIP3   OH246217   2.719   7.065   6.895
15447TIP3    H146218   2.780   7.020   6.836
15447TIP3    H246219   2.774   7.124   6.946
15448TIP3   OH246220   3.518   5.405   6.961
15448TIP3    H146221   3.438   5.430   6.915
15448TIP3    H246222   3.515   5.310   6.965
15449TIP3   OH246223   1.799   6.901   6.936
15449TIP3    H146224   1.709   6.923   6.912
15449TIP3    H246225   1.824   6.970   6.997
15450TIP3   OH246226   2.027   6.907   6.780
15450TIP3    H146227   1.943   6.909   6.826
15450TIP3    H246228   2.005   6.931   6.690
15451TIP3   OH246229   2.430   6.921   6.553
15451TIP3    H146230   2.361   6.927   6.487
15451TIP3    H246231   2.441   7.010   6.586
15452TIP3   OH246232   2.691   6.855   6.618
15452TIP3    H146233   2.601   6.880   6.594
15452TIP3    H246234   2.746   6.919   6.574
15453TIP3   OH246235   2.895   7.018   6.520
15453TIP3    H146236   2.899   7.108   6.489
15453TIP3    H246237   2.929   6.965   6.448
15454TIP3   OH246238   1.706   6.688   6.643
15454TIP3    H146239   1.735   6.670   6.732
15454TIP3    H246240   1.776   6.655   6.587
15455TIP3   OH246241   1.904   6.564   6.504
15455TIP3    H146242   1.913   6.479   6.546
15455TIP3    H246243   1.990   6.606   6.514
15456TIP3   OH246244   2.166   6.640   6.551
15456TIP3    H146245   2.191   6.548   6.539
15456TIP3    H246246   2.229   6.673   6.615
15457TIP3   OH246247   2.737   5.310   6.617
15457TIP3    H146248   2.699   5.239   6.669
15457TIP3    H246249   2.807   5.267   6.567
15458TIP3   OH246250   3.234   5.242   6.517
15458TIP3    H146251   3.268   5.288   6.440
15458TIP3    H246252   3.140   5.254   6.512
15459TIP3   OH246253   3.352   5.295   6.270
15459TIP3    H146254   3.422   5.238   6.238
15459TIP3    H246255   3.386   5.383   6.260
15460TIP3   OH246256   1.981   5.011   6.614
15460TIP3    H146257   1.892   4.977   6.626
15460TIP3    H246258   2.035   4.933   6.604
15461TIP3   OH246259   1.811   4.929   6.277
15461TIP3    H146260   1.827   4.981   6.198
15461TIP3    H246261   1.769   4.990   6.338
15462TIP3   OH246262   2.466   5.043   6.512
15462TIP3    H146263   2.512   5.095   6.446
15462TIP3    H246264   2.501   5.073   6.596
15463TIP3   OH246265   2.952   5.194   6.487
15463TIP3    H146266   2.959   5.160   6.397
15463TIP3    H246267   2.961   5.116   6.542
15464TIP3   OH246268   3.016   5.155   6.053
15464TIP3    H146269   2.934   5.201   6.075
15464TIP3    H246270   3.005   5.068   6.092
15465TIP3   OH246271   1.459   6.497   6.039
15465TIP3    H146272   1.381   6.464   5.994
15465TIP3    H246273   1.471   6.585   6.005
15466TIP3   OH246274   1.892   5.072   6.043
15466TIP3    H146275   1.937   5.011   5.985
15466TIP3    H246276   1.962   5.127   6.079
15467TIP3   OH246277   2.389   5.240   6.133
15467TIP3    H146278   2.452   5.193   6.188
15467TIP3    H246279   2.400   5.332   6.156
15468TIP3   OH246280   2.277   6.643   5.628
15468TIP3    H146281   2.361   6.670   5.590
15468TIP3    H246282   2.247   6.572   5.571
15469TIP3   OH246283   2.989   6.788   5.716
15469TIP3    H146284   2.980   6.693   5.710
15469TIP3    H246285   2.941   6.822   5.641
15470TIP3   OH246286   2.206   5.295   7.497
15470TIP3    H146287   2.172   5.228   7.557
15470TIP3    H246288   2.298   5.304   7.522
15471TIP3   OH246289   2.453   5.303   7.622
15471TIP3    H146290   2.530   5.280   7.570
15471TIP3    H246291   2.446   5.234   7.688
15472TIP3   OH246292   1.588   6.482   5.679
15472TIP3    H146293   1.593   6.499   5.773
15472TIP3    H246294   1.669   6.436   5.658
15473TIP3   OH246295   3.278   5.396   7.405
15473TIP3    H146296   3.294   5.366   7.495
15473TIP3    H246297   3.363   5.391   7.362
15474TIP3   OH246298   3.180   6.921   6.916
15474TIP3    H146299   3.108   6.891   6.860
15474TIP3    H246300   3.173   7.016   6.915
15475TIP3   OH246301   4.474   6.313   5.647
15475TIP3    H146302   4.443   6.400   5.622
15475TIP3    H246303   4.403   6.254   5.623
15476TIP3   OH246304   4.477   6.305   6.073
15476TIP3    H146305   4.528   6.287   6.152
15476TIP3    H246306   4.428   6.224   6.057
15477TIP3   OH246307   3.764   6.171   6.423
15477TIP3    H146308   3.801   6.118   6.493
15477TIP3    H246309   3.839   6.214   6.383
15478TIP3   OH246310   4.742   6.614   5.749
15478TIP3    H146311   4.728   6.547   5.817
15478TIP3    H246312   4.761   6.694   5.797
15479TIP3   OH246313   3.764   6.580   6.081
15479TIP3    H146314   3.744   6.488   6.102
15479TIP3    H246315   3.859   6.586   6.090
15480TIP3   OH246316   3.441   5.793   5.888
15480TIP3    H146317   3.407   5.879   5.913
15480TIP3    H246318   3.367   5.748   5.848
15481TIP3   OH246319   3.528   6.109   6.112
15481TIP3    H146320   3.578   6.032   6.141
15481TIP3    H246321   3.594   6.175   6.093
15482TIP3   OH246322   4.393   7.046   5.757
15482TIP3    H146323   4.422   6.979   5.695
15482TIP3    H246324   4.384   6.999   5.840
15483TIP3   OH246325   4.284   6.527   6.074
15483TIP3    H146326   4.330   6.448   6.047
15483TIP3    H246327   4.352   6.584   6.110
15484TIP3   OH246328   5.318   5.843   6.098
15484TIP3    H146329   5.330   5.929   6.138
15484TIP3    H246330   5.339   5.857   6.005
15485TIP3   OH246331   4.682   6.009   6.114
15485TIP3    H146332   4.717   5.924   6.141
15485TIP3    H246333   4.647   5.994   6.026
15486TIP3   OH246334   4.049   5.666   6.071
15486TIP3    H146335   4.027   5.743   6.018
15486TIP3    H246336   3.990   5.597   6.039
15487TIP3   OH246337   4.734   5.775   5.709
15487TIP3    H146338   4.798   5.770   5.780
15487TIP3    H246339   4.784   5.811   5.635
15488TIP3   OH246340   3.664   5.887   6.211
15488TIP3    H146341   3.749   5.873   6.254
15488TIP3    H246342   3.669   5.836   6.130
15489TIP3   OH246343   4.087   6.088   6.008
15489TIP3    H146344   4.182   6.072   6.016
15489TIP3    H246345   4.052   6.004   5.977
15490TIP3   OH246346   5.365   6.069   6.259
15490TIP3    H146347   5.275   6.101   6.253
15490TIP3    H246348   5.399   6.106   6.340
15491TIP3   OH246349   4.013   5.667   6.541
15491TIP3    H146350   3.969   5.695   6.461
15491TIP3    H246351   3.954   5.696   6.611
15492TIP3   OH246352   4.372   6.530   5.509
15492TIP3    H146353   4.331   6.499   5.429
15492TIP3    H246354   4.319   6.606   5.535
15493TIP3   OH246355   4.114   6.448   6.281
15493TIP3    H146356   4.057   6.515   6.318
15493TIP3    H246357   4.161   6.492   6.210
15494TIP3   OH246358   4.892   5.799   5.930
15494TIP3    H146359   4.852   5.773   6.014
15494TIP3    H246360   4.948   5.872   5.951
15495TIP3   OH246361   3.920   5.772   6.297
15495TIP3    H146362   3.969   5.850   6.323
15495TIP3    H246363   3.969   5.736   6.223
15496TIP3   OH246364   3.948   6.634   6.395
15496TIP3    H146365   3.943   6.726   6.368
15496TIP3    H246366   3.868   6.620   6.446
15497TIP3   OH246367   3.335   6.362   5.650
15497TIP3    H146368   3.298   6.386   5.565
15497TIP3    H246369   3.358   6.445   5.691
15498TIP3   OH246370   4.778   6.862   5.888
15498TIP3    H146371   4.692   6.852   5.930
15498TIP3    H246372   4.773   6.946   5.843
15499TIP3   OH246373   5.117   5.734   6.265
15499TIP3    H146374   5.032   5.744   6.221
15499TIP3    H246375   5.182   5.760   6.200
15500TIP3   OH246376   4.386   5.367   6.236
15500TIP3    H146377   4.371   5.280   6.272
15500TIP3    H246378   4.311   5.418   6.267
15501TIP3   OH246379   4.483   6.893   5.541
15501TIP3    H146380   4.536   6.814   5.532
15501TIP3    H246381   4.541   6.964   5.514
15502TIP3   OH246382   4.621   6.661   5.505
15502TIP3    H146383   4.547   6.600   5.504
15502TIP3    H246384   4.671   6.637   5.583
15503TIP3   OH246385   5.014   6.745   6.233
15503TIP3    H146386   4.992   6.672   6.175
15503TIP3    H246387   4.998   6.823   6.180
15504TIP3   OH246388   4.298   6.150   5.503
15504TIP3    H146389   4.214   6.193   5.486
15504TIP3    H246390   4.343   6.152   5.419
15505TIP3   OH246391   4.264   5.966   5.187
15505TIP3    H146392   4.330   6.014   5.237
15505TIP3    H246393   4.314   5.899   5.140
15506TIP3   OH246394   5.184   6.410   6.097
15506TIP3    H146395   5.099   6.454   6.095
15506TIP3    H246396   5.220   6.423   6.009
15507TIP3   OH246397   4.659   6.241   5.459
15507TIP3    H146398   4.604   6.270   5.532
15507TIP3    H246399   4.742   6.217   5.499
15508TIP3   OH246400   4.888   6.268   6.412
15508TIP3    H146401   4.882   6.352   6.458
15508TIP3    H246402   4.807   6.263   6.361
15509TIP3   OH246403   3.885   6.220   5.863
15509TIP3    H146404   3.849   6.158   5.799
15509TIP3    H246405   3.960   6.174   5.901
15510TIP3   OH246406   4.033   6.645   6.008
15510TIP3    H146407   4.008   6.631   5.916
15510TIP3    H246408   4.120   6.607   6.015
15511TIP3   OH246409   3.986   6.212   6.234
15511TIP3    H146410   4.024   6.177   6.154
15511TIP3    H246411   4.033   6.294   6.249
15512TIP3   OH246412   4.545   6.852   6.026
15512TIP3    H146413   4.525   6.935   6.070
15512TIP3    H246414   4.523   6.785   6.090
15513TIP3   OH246415   4.134   6.756   6.564
15513TIP3    H146416   4.074   6.826   6.591
15513TIP3    H246417   4.081   6.700   6.507
15514TIP3   OH246418   4.487   6.103   5.292
15514TIP3    H146419   4.547   6.161   5.339
15514TIP3    H246420   4.517   6.106   5.201
15515TIP3   OH246421   3.907   6.283   6.691
15515TIP3    H146422   3.920   6.368   6.732
15515TIP3    H246423   3.813   6.270   6.690
15516TIP3   OH246424   4.237   6.769   5.548
15516TIP3    H146425   4.318   6.821   5.553
15516TIP3    H246426   4.175   6.827   5.503
15517TIP3   OH246427   5.026   5.370   5.360
15517TIP3    H146428   4.942   5.372   5.406
15517TIP3    H246429   5.023   5.446   5.302
15518TIP3   OH246430   3.757   6.060   5.665
15518TIP3    H146431   3.680   6.111   5.638
15518TIP3    H246432   3.722   5.973   5.686
15519TIP3   OH246433   4.825   6.703   4.913
15519TIP3    H146434   4.816   6.796   4.891
15519TIP3    H246435   4.915   6.681   4.889
15520TIP3   OH246436   3.537   6.463   6.605
15520TIP3    H146437   3.467   6.448   6.541
15520TIP3    H246438   3.572   6.376   6.624
15521TIP3   OH246439   3.386   6.669   6.267
15521TIP3    H146440   3.472   6.702   6.292
15521TIP3    H246441   3.326   6.741   6.285
15522TIP3   OH246442   5.244   7.124   6.304
15522TIP3    H146443   5.250   7.029   6.313
15522TIP3    H246444   5.164   7.148   6.350
15523TIP3   OH246445   4.337   6.886   6.427
15523TIP3    H146446   4.332   6.978   6.454
15523TIP3    H246447   4.263   6.844   6.471
15524TIP3   OH246448   4.126   6.994   5.379
15524TIP3    H146449   4.077   6.973   5.300
15524TIP3    H246450   4.086   7.075   5.411
15525TIP3   OH246451   3.559   6.848   5.755
15525TIP3    H146452   3.603   6.840   5.840
15525TIP3    H246453   3.510   6.766   5.747
15526TIP3   OH246454   4.327   6.930   5.006
15526TIP3    H146455   4.377   6.856   4.971
15526TIP3    H246456   4.361   6.942   5.095
15527TIP3   OH246457   4.380   6.970   5.277
15527TIP3    H146458   4.292   6.974   5.316
15527TIP3    H246459   4.435   6.932   5.345
15528TIP3   OH246460   5.136   6.215   6.559
15528TIP3    H146461   5.050   6.230   6.519
15528TIP3    H246462   5.150   6.121   6.550
15529TIP3   OH246463   3.721   6.659   6.550
15529TIP3    H146464   3.735   6.702   6.634
15529TIP3    H246465   3.655   6.592   6.568
15530TIP3   OH246466   4.684   5.586   6.581
15530TIP3    H146467   4.753   5.561   6.643
15530TIP3    H246468   4.603   5.581   6.633
15531TIP3   OH246469   4.885   6.004   6.504
15531TIP3    H146470   4.845   5.999   6.591
15531TIP3    H246471   4.870   6.095   6.477
15532TIP3   OH246472   4.565   6.072   5.029
15532TIP3    H146473   4.519   6.080   4.946
15532TIP3    H246474   4.648   6.118   5.016
15533TIP3   OH246475   4.271   5.489   5.340
15533TIP3    H146476   4.235   5.498   5.429
15533TIP3    H246477   4.234   5.407   5.308
15534TIP3   OH246478   4.057   5.994   6.388
15534TIP3    H146479   4.011   6.002   6.471
15534TIP3    H246480   4.032   6.073   6.339
15535TIP3   OH246481   3.946   5.867   5.916
15535TIP3    H146482   3.856   5.847   5.942
15535TIP3    H246483   3.952   5.836   5.826
15536TIP3   OH246484   4.420   5.946   5.640
15536TIP3    H146485   4.373   6.020   5.601
15536TIP3    H246486   4.479   5.915   5.571
15537TIP3   OH246487   4.606   6.210   6.711
15537TIP3    H146488   4.579   6.143   6.774
15537TIP3    H246489   4.697   6.227   6.732
15538TIP3   OH246490   4.588   5.958   5.863
15538TIP3    H146491   4.519   5.980   5.800
15538TIP3    H246492   4.636   5.886   5.822
15539TIP3   OH246493   3.900   6.008   6.611
15539TIP3    H146494   3.907   6.081   6.674
15539TIP3    H246495   3.880   5.932   6.666
15540TIP3   OH246496   3.943   5.473   5.332
15540TIP3    H146497   3.936   5.481   5.427
15540TIP3    H246498   3.868   5.522   5.298
15541TIP3   OH246499   3.473   5.523   6.195
15541TIP3    H146500   3.552   5.559   6.236
15541TIP3    H246501   3.498   5.509   6.104
15542TIP3   OH246502   3.386   5.510   5.690
15542TIP3    H146503   3.428   5.544   5.611
15542TIP3    H246504   3.321   5.576   5.713
15543TIP3   OH246505   4.640   6.213   6.287
15543TIP3    H146506   4.662   6.145   6.224
15543TIP3    H246507   4.592   6.167   6.356
15544TIP3   OH246508   4.313   5.655   5.957
15544TIP3    H146509   4.236   5.658   6.013
15544TIP3    H246510   4.387   5.652   6.018
15545TIP3   OH246511   3.701   5.750   5.976
15545TIP3    H146512   3.614   5.754   5.938
15545TIP3    H246513   3.730   5.660   5.960
15546TIP3   OH246514   3.957   5.751   5.667
15546TIP3    H146515   4.052   5.762   5.658
15546TIP3    H246516   3.922   5.769   5.580
15547TIP3   OH246517   4.755   5.746   6.168
15547TIP3    H146518   4.736   5.764   6.260
15547TIP3    H246519   4.686   5.684   6.142
15548TIP3   OH246520   3.851   5.771   5.417
15548TIP3    H146521   3.788   5.723   5.363
15548TIP3    H246522   3.903   5.821   5.354
15549TIP3   OH246523   4.948   7.457   6.388
15549TIP3    H146524   4.947   7.468   6.293
15549TIP3    H246525   5.026   7.505   6.417
15550TIP3   OH246526   3.912   6.514   6.844
15550TIP3    H146527   3.989   6.549   6.889
15550TIP3    H246528   3.854   6.589   6.833
15551TIP3   OH246529   4.358   6.035   6.068
15551TIP3    H146530   4.430   5.989   6.024
15551TIP3    H246531   4.354   5.995   6.155
15552TIP3   OH246532   3.849   5.504   5.954
15552TIP3    H146533   3.819   5.429   6.005
15552TIP3    H246534   3.862   5.470   5.866
15553TIP3   OH246535   4.324   5.939   6.334
15553TIP3    H146536   4.237   5.975   6.355
15553TIP3    H246537   4.385   5.992   6.386
15554TIP3   OH246538   4.059   6.281   5.451
15554TIP3    H146539   3.983   6.230   5.423
15554TIP3    H246540   4.030   6.327   5.529
15555TIP3   OH246541   4.950   6.547   6.052
15555TIP3    H146542   4.985   6.596   5.978
15555TIP3    H246543   4.871   6.505   6.018
15556TIP3   OH246544   4.519   5.610   5.356
15556TIP3    H146545   4.426   5.588   5.348
15556TIP3    H246546   4.520   5.705   5.367
15557TIP3   OH246547   4.468   6.629   6.473
15557TIP3    H146548   4.513   6.624   6.557
15557TIP3    H246549   4.423   6.714   6.476
15558TIP3   OH246550   4.583   5.874   5.424
15558TIP3    H146551   4.678   5.878   5.433
15558TIP3    H246552   4.561   5.952   5.372
15559TIP3   OH246553   3.749   6.285   6.096
15559TIP3    H146554   3.788   6.274   6.009
15559TIP3    H246555   3.818   6.257   6.157
15560TIP3   OH246556   4.211   6.444   5.293
15560TIP3    H146557   4.163   6.528   5.290
15560TIP3    H246558   4.155   6.388   5.347
15561TIP3   OH246559   3.634   6.224   6.726
15561TIP3    H146560   3.638   6.203   6.819
15561TIP3    H246561   3.555   6.181   6.694
15562TIP3   OH246562   4.375   6.372   6.751
15562TIP3    H146563   4.304   6.313   6.725
15562TIP3    H246564   4.455   6.328   6.721
15563TIP3   OH246565   4.611   6.919   6.355
15563TIP3    H146566   4.517   6.901   6.359
15563TIP3    H246567   4.632   6.953   6.442
15564TIP3   OH246568   4.998   5.960   5.239
15564TIP3    H146569   4.943   5.912   5.177
15564TIP3    H246570   5.001   6.049   5.204
15565TIP3   OH246571   5.258   6.847   6.317
15565TIP3    H146572   5.165   6.824   6.317
15565TIP3    H246573   5.291   6.812   6.234
15566TIP3   OH246574   4.743   6.774   5.178
15566TIP3    H146575   4.713   6.706   5.238
15566TIP3    H246576   4.762   6.728   5.097
15567TIP3   OH246577   4.725   6.409   5.948
15567TIP3    H146578   4.636   6.388   5.975
15567TIP3    H246579   4.757   6.328   5.909
15568TIP3   OH246580   3.877   6.649   5.771
15568TIP3    H146581   3.867   6.722   5.710
15568TIP3    H246582   3.801   6.653   5.828
15569TIP3   OH246583   3.443   5.927   5.485
15569TIP3    H146584   3.484   6.011   5.506
15569TIP3    H246585   3.360   5.927   5.533
15570TIP3   OH246586   3.948   6.406   5.663
15570TIP3    H146587   3.932   6.494   5.696
15570TIP3    H246588   3.926   6.349   5.737
15571TIP3   OH246589   4.154   6.984   6.210
15571TIP3    H146590   4.198   7.058   6.167
15571TIP3    H246591   4.220   6.948   6.269
15572TIP3   OH246592   3.794   6.866   5.613
15572TIP3    H146593   3.707   6.872   5.652
15572TIP3    H246594   3.830   6.954   5.621
15573TIP3   OH246595   4.510   6.633   6.200
15573TIP3    H146596   4.494   6.630   6.294
15573TIP3    H246597   4.590   6.583   6.188
15574TIP3   OH246598   4.508   6.510   5.056
15574TIP3    H146599   4.559   6.481   5.132
15574TIP3    H246600   4.425   6.464   5.064
15575TIP3   OH246601   4.766   7.125   6.237
15575TIP3    H146602   4.697   7.062   6.257
15575TIP3    H246603   4.730   7.178   6.165
15576TIP3   OH246604   4.812   6.975   4.864
15576TIP3    H146605   4.819   7.030   4.786
15576TIP3    H246606   4.745   7.017   4.917
15577TIP3   OH246607   3.843   5.758   6.740
15577TIP3    H146608   3.748   5.769   6.748
15577TIP3    H246609   3.870   5.722   6.824
15578TIP3   OH246610   4.683   6.420   5.247
15578TIP3    H146611   4.668   6.368   5.326
15578TIP3    H246612   4.778   6.429   5.242
15579TIP3   OH246613   3.595   6.836   6.366
15579TIP3    H146614   3.648   6.781   6.423
15579TIP3    H246615   3.618   6.925   6.390
15580TIP3   OH246616   3.858   6.472   5.081
15580TIP3    H146617   3.869   6.381   5.054
15580TIP3    H246618   3.845   6.469   5.175
15581TIP3   OH246619   3.798   6.491   5.353
15581TIP3    H146620   3.851   6.467   5.429
15581TIP3    H246621   3.795   6.587   5.354
15582TIP3   OH246622   3.530   6.182   5.561
15582TIP3    H146623   3.466   6.231   5.612
15582TIP3    H246624   3.549   6.239   5.486
15583TIP3   OH246625   4.701   5.813   6.428
15583TIP3    H146626   4.775   5.865   6.459
15583TIP3    H246627   4.698   5.738   6.487
15584TIP3   OH246628   4.586   5.558   5.620
15584TIP3    H146629   4.564   5.577   5.529
15584TIP3    H246630   4.630   5.636   5.652
15585TIP3   OH246631   4.068   6.675   5.284
15585TIP3    H146632   3.983   6.698   5.321
15585TIP3    H246633   4.091   6.750   5.229
15586TIP3   OH246634   4.236   5.753   5.708
15586TIP3    H146635   4.296   5.823   5.682
15586TIP3    H246636   4.261   5.731   5.798
15587TIP3   OH246637   4.533   6.050   6.483
15587TIP3    H146638   4.556   6.095   6.565
15587TIP3    H246639   4.584   5.969   6.486
15588TIP3   OH246640   4.399   5.449   5.790
15588TIP3    H146641   4.375   5.524   5.844
15588TIP3    H246642   4.469   5.481   5.734
15589TIP3   OH246643   3.818   6.764   5.360
15589TIP3    H146644   3.799   6.837   5.301
15589TIP3    H246645   3.808   6.801   5.448
15590TIP3   OH246646   3.916   5.479   5.616
15590TIP3    H146647   3.907   5.572   5.640
15590TIP3    H246648   4.011   5.464   5.617
15591TIP3   OH246649   5.146   5.938   6.469
15591TIP3    H146650   5.052   5.952   6.485
15591TIP3    H246651   5.148   5.875   6.397
15592TIP3   OH246652   4.814   6.148   5.860
15592TIP3    H146653   4.736   6.093   5.872
15592TIP3    H246654   4.880   6.109   5.916
15593TIP3   OH246655   3.555   6.354   5.342
15593TIP3    H146656   3.626   6.418   5.351
15593TIP3    H246657   3.587   6.293   5.275
15594TIP3   OH246658   3.451   5.647   5.461
15594TIP3    H146659   3.473   5.739   5.477
15594TIP3    H246660   3.382   5.651   5.394
15595TIP3   OH246661   4.793   7.130   5.806
15595TIP3    H146662   4.750   7.182   5.738
15595TIP3    H246663   4.886   7.142   5.790
15596TIP3   OH246664   3.380   6.628   5.738
15596TIP3    H146665   3.342   6.666   5.816
15596TIP3    H246666   3.336   6.672   5.665
15597TIP3   OH246667   3.550   7.152   6.756
15597TIP3    H146668   3.638   7.129   6.728
15597TIP3    H246669   3.508   7.068   6.773
15598TIP3   OH246670   4.014   7.040   6.864
15598TIP3    H146671   4.102   7.018   6.832
15598TIP3    H246672   3.960   7.045   6.785
15599TIP3   OH246673   4.009   6.674   4.964
15599TIP3    H146674   3.962   6.604   5.012
15599TIP3    H246675   4.084   6.629   4.925
15600TIP3   OH246676   4.672   7.012   6.606
15600TIP3    H146677   4.689   6.943   6.670
15600TIP3    H246678   4.745   7.073   6.618
15601TIP3   OH246679   4.453   6.718   4.888
15601TIP3    H146680   4.487   6.653   4.949
15601TIP3    H246681   4.511   6.711   4.811
15602TIP3   OH246682   3.666   6.558   7.032
15602TIP3    H146683   3.700   6.468   7.022
15602TIP3    H246684   3.588   6.560   6.977
15603TIP3   OH246685   3.677   6.166   5.184
15603TIP3    H146686   3.727   6.143   5.263
15603TIP3    H246687   3.744   6.180   5.117
15604TIP3   OH246688   4.300   6.649   6.762
15604TIP3    H146689   4.247   6.669   6.684
15604TIP3    H246690   4.332   6.560   6.746
15605TIP3   OH246691   4.259   6.387   5.029
15605TIP3    H146692   4.233   6.398   5.121
15605TIP3    H246693   4.235   6.296   5.008
15606TIP3   OH246694   4.784   6.695   6.384
15606TIP3    H146695   4.861   6.724   6.335
15606TIP3    H246696   4.719   6.764   6.370
15607TIP3   OH246697   3.807   6.306   7.005
15607TIP3    H146698   3.856   6.359   6.943
15607TIP3    H246699   3.842   6.329   7.091
15608TIP3   OH246700   3.847   6.109   5.398
15608TIP3    H146701   3.827   6.080   5.487
15608TIP3    H246702   3.897   6.038   5.360
15609TIP3   OH246703   4.173   6.196   6.655
15609TIP3    H146704   4.084   6.231   6.662
15609TIP3    H246705   4.203   6.225   6.568
15610TIP3   OH246706   3.995   5.929   5.246
15610TIP3    H146707   3.965   5.932   5.156
15610TIP3    H246708   4.090   5.940   5.240
15611TIP3   OH246709   4.662   6.569   6.735
15611TIP3    H146710   4.727   6.528   6.679
15611TIP3    H246711   4.658   6.513   6.812
15612TIP3   OH246712   4.782   6.211   4.925
15612TIP3    H146713   4.771   6.171   4.839
15612TIP3    H246714   4.761   6.303   4.912
15613TIP3   OH246715   4.269   5.963   6.762
15613TIP3    H146716   4.267   5.894   6.695
15613TIP3    H246717   4.236   6.041   6.717
15614TIP3   OH246718   4.270   5.765   6.557
15614TIP3    H146719   4.288   5.808   6.474
15614TIP3    H246720   4.180   5.733   6.549
15615TIP3   OH246721   4.286   6.293   6.427
15615TIP3    H146722   4.370   6.340   6.424
15615TIP3    H246723   4.227   6.347   6.375
15616TIP3   OH246724   4.874   6.254   6.809
15616TIP3    H146725   4.926   6.174   6.815
15616TIP3    H246726   4.940   6.324   6.805
15617TIP3   OH246727   4.902   6.514   6.549
15617TIP3    H146728   4.849   6.577   6.500
15617TIP3    H246729   4.991   6.529   6.518
15618TIP3   OH246730   4.161   6.041   7.011
15618TIP3    H146731   4.087   5.983   7.030
15618TIP3    H246732   4.184   6.021   6.920
15619TIP3   OH246733   4.418   5.560   6.666
15619TIP3    H146734   4.375   5.640   6.637
15619TIP3    H246735   4.366   5.489   6.628
15620TIP3   OH246736   4.523   5.999   6.869
15620TIP3    H146737   4.511   5.987   6.963
15620TIP3    H246738   4.438   5.981   6.830
15621TIP3   OH246739   4.771   5.955   6.744
15621TIP3    H146740   4.692   5.957   6.798
15621TIP3    H246741   4.842   5.935   6.805
15622TIP3   OH246742   5.011   5.926   6.890
15622TIP3    H146743   5.024   5.831   6.897
15622TIP3    H246744   5.006   5.956   6.980
15623TIP3   OH246745   3.984   5.832   7.077
15623TIP3    H146746   3.990   5.743   7.041
15623TIP3    H246747   4.023   5.825   7.164
15624TIP3   OH246748   4.464   5.509   6.933
15624TIP3    H146749   4.533   5.444   6.925
15624TIP3    H246750   4.442   5.533   6.843
15625TIP3   OH246751   4.565   5.721   7.080
15625TIP3    H146752   4.531   5.649   7.026
15625TIP3    H246753   4.493   5.784   7.082
15626TIP3   OH246754   3.821   6.977   5.181
15626TIP3    H146755   3.909   6.953   5.152
15626TIP3    H246756   3.782   7.021   5.106
15627TIP3   OH246757   3.281   6.363   5.346
15627TIP3    H146758   3.377   6.371   5.350
15627TIP3    H246759   3.266   6.275   5.311
15628TIP3   OH246760   3.190   6.939   5.823
15628TIP3    H146761   3.126   6.886   5.777
15628TIP3    H246762   3.232   6.878   5.884
15629TIP3   OH246763   3.333   6.766   5.989
15629TIP3    H146764   3.326   6.698   6.056
15629TIP3    H246765   3.385   6.835   6.030
15630TIP3   OH246766   5.065   7.176   5.797
15630TIP3    H146767   5.086   7.201   5.888
15630TIP3    H246768   5.122   7.230   5.744
15631TIP3   OH246769   5.092   7.203   6.076
15631TIP3    H146770   5.042   7.121   6.075
15631TIP3    H246771   5.160   7.188   6.143
15632TIP3   OH246772   5.155   6.914   6.651
15632TIP3    H146773   5.079   6.922   6.709
15632TIP3    H246774   5.197   7.000   6.654
15633TIP3   OH246775   4.963   6.425   5.252
15633TIP3    H146776   5.019   6.497   5.224
15633TIP3    H246777   5.007   6.388   5.329
15634TIP3   OH246778   5.089   6.286   5.458
15634TIP3    H146779   5.021   6.247   5.513
15634TIP3    H246780   5.153   6.321   5.519
15635TIP3   OH246781   5.137   6.685   5.895
15635TIP3    H146782   5.188   6.617   5.851
15635TIP3    H246783   5.138   6.759   5.834
15636TIP3   OH246784   4.942   6.969   6.087
15636TIP3    H146785   4.875   7.014   6.137
15636TIP3    H246786   4.895   6.929   6.014
15637TIP3   OH246787   4.992   6.198   5.102
15637TIP3    H146788   4.920   6.197   5.039
15637TIP3    H246789   4.979   6.278   5.153
15638TIP3   OH246790   4.844   5.846   5.041
15638TIP3    H146791   4.803   5.885   4.964
15638TIP3    H246792   4.834   5.752   5.030
15639TIP3   OH246793   4.886   6.145   5.592
15639TIP3    H146794   4.887   6.050   5.575
15639TIP3    H246795   4.865   6.152   5.685
15640TIP3   OH246796   3.499   6.196   6.370
15640TIP3    H146797   3.492   6.169   6.278
15640TIP3    H246798   3.593   6.196   6.387
15641TIP3   OH246799   5.159   6.557   6.452
15641TIP3    H146800   5.229   6.493   6.436
15641TIP3    H246801   5.158   6.611   6.374
15642TIP3   OH246802   5.344   6.349   6.444
15642TIP3    H146803   5.270   6.305   6.486
15642TIP3    H246804   5.420   6.296   6.467
15643TIP3   OH246805   4.803   5.573   5.010
15643TIP3    H146806   4.870   5.560   5.077
15643TIP3    H246807   4.727   5.525   5.043
15644TIP3   OH246808   4.875   5.872   5.480
15644TIP3    H146809   4.922   5.790   5.495
15644TIP3    H246810   4.915   5.908   5.401
15645TIP3   OH246811   5.030   6.029   6.004
15645TIP3    H146812   5.111   6.046   5.956
15645TIP3    H246813   5.044   6.069   6.089
15646TIP3   OH246814   5.104   6.180   6.230
15646TIP3    H146815   5.032   6.207   6.287
15646TIP3    H246816   5.133   6.260   6.187
15647TIP3   OH246817   3.722   5.881   7.007
15647TIP3    H146818   3.815   5.884   7.031
15647TIP3    H246819   3.689   5.802   7.050
15648TIP3   OH246820   5.570   5.776   6.771
15648TIP3    H146821   5.635   5.720   6.729
15648TIP3    H246822   5.532   5.826   6.698
15649TIP3   OH246823   4.994   5.628   5.543
15649TIP3    H146824   5.036   5.606   5.626
15649TIP3    H246825   4.933   5.555   5.527
15650TIP3   OH246826   3.710   5.586   6.323
15650TIP3    H146827   3.764   5.508   6.311
15650TIP3    H246828   3.772   5.659   6.320
15651TIP3   OH246829   3.480   5.852   6.424
15651TIP3    H146830   3.533   5.847   6.345
15651TIP3    H246831   3.491   5.942   6.455
15652TIP3   OH246832   5.417   5.904   6.583
15652TIP3    H146833   5.347   5.942   6.636
15652TIP3    H246834   5.371   5.844   6.523
15653TIP3   OH246835   5.026   5.576   5.181
15653TIP3    H146836   5.063   5.517   5.116
15653TIP3    H246837   5.088   5.650   5.184
15654TIP3   OH246838   3.461   5.400   5.930
15654TIP3    H146839   3.374   5.380   5.965
15654TIP3    H246840   3.444   5.447   5.848
15655TIP3   OH246841   4.630   7.095   5.440
15655TIP3    H146842   4.684   7.082   5.363
15655TIP3    H246843   4.671   7.167   5.487
15656TIP3   OH246844   3.675   5.413   6.719
15656TIP3    H146845   3.640   5.419   6.808
15656TIP3    H246846   3.625   5.476   6.669
15657TIP3   OH246847   3.770   6.788   6.792
15657TIP3    H146848   3.779   6.865   6.737
15657TIP3    H246849   3.779   6.821   6.882
15658TIP3   OH246850   3.933   6.904   6.382
15658TIP3    H146851   3.891   6.953   6.452
15658TIP3    H246852   3.968   6.970   6.323
15659TIP3   OH246853   4.338   7.153   6.497
15659TIP3    H146854   4.370   7.150   6.587
15659TIP3    H246855   4.398   7.211   6.451
15660TIP3   OH246856   4.526   7.319   6.380
15660TIP3    H146857   4.592   7.265   6.336
15660TIP3    H246858   4.578   7.378   6.436
15661TIP3   OH246859   5.326   5.648   6.467
15661TIP3    H146860   5.242   5.648   6.422
15661TIP3    H246861   5.357   5.558   6.462
15662TIP3   OH246862   3.617   7.117   6.384
15662TIP3    H146863   3.537   7.169   6.396
15662TIP3    H246864   3.660   7.120   6.470
15663TIP3   OH246865   3.857   7.166   6.245
15663TIP3    H146866   3.780   7.144   6.298
15663TIP3    H246867   3.820   7.189   6.159
15664TIP3   OH246868   4.244   7.193   6.049
15664TIP3    H146869   4.164   7.198   5.997
15664TIP3    H246870   4.250   7.278   6.093
15665TIP3   OH246871   4.504   7.119   6.097
15665TIP3    H146872   4.413   7.139   6.080
15665TIP3    H246873   4.553   7.188   6.053
15666TIP3   OH246874   4.715   7.296   6.012
15666TIP3    H146875   4.705   7.380   5.967
15666TIP3    H246876   4.740   7.235   5.943
15667TIP3   OH246877   3.506   6.947   6.123
15667TIP3    H146878   3.530   6.927   6.213
15667TIP3    H246879   3.577   6.912   6.070
15668TIP3   OH246880   3.709   6.828   5.985
15668TIP3    H146881   3.718   6.743   6.029
15668TIP3    H246882   3.793   6.871   5.996
15669TIP3   OH246883   3.971   6.921   6.015
15669TIP3    H146884   3.996   6.829   6.005
15669TIP3    H246885   4.019   6.950   6.092
15670TIP3   OH246886   4.550   5.561   6.093
15670TIP3    H146887   4.506   5.487   6.136
15670TIP3    H246888   4.618   5.521   6.039
15671TIP3   OH246889   5.032   5.505   6.020
15671TIP3    H146890   5.069   5.537   5.938
15671TIP3    H246891   4.938   5.504   6.005
15672TIP3   OH246892   5.144   5.536   5.765
15672TIP3    H146893   5.210   5.478   5.727
15672TIP3    H246894   5.182   5.624   5.758
15673TIP3   OH246895   3.774   5.278   6.093
15673TIP3    H146896   3.686   5.246   6.110
15673TIP3    H246897   3.829   5.200   6.098
15674TIP3   OH246898   3.553   5.196   5.755
15674TIP3    H146899   3.606   5.239   5.688
15674TIP3    H246900   3.541   5.263   5.823
15675TIP3   OH246901   4.261   5.298   5.988
15675TIP3    H146902   4.298   5.343   5.913
15675TIP3    H246903   4.316   5.323   6.062
15676TIP3   OH246904   4.760   5.427   5.971
15676TIP3    H146905   4.786   5.388   5.887
15676TIP3    H246906   4.764   5.355   6.034
15677TIP3   OH246907   4.812   5.415   5.533
15677TIP3    H146908   4.731   5.459   5.559
15677TIP3    H246909   4.802   5.326   5.567
15678TIP3   OH246910   3.265   6.747   5.517
15678TIP3    H146911   3.180   6.714   5.489
15678TIP3    H246912   3.270   6.836   5.483
15679TIP3   OH246913   3.704   5.312   5.551
15679TIP3    H146914   3.742   5.257   5.482
15679TIP3    H246915   3.775   5.371   5.577
15680TIP3   OH246916   4.190   5.503   5.606
15680TIP3    H146917   4.251   5.452   5.658
15680TIP3    H246918   4.204   5.593   5.634
15681TIP3   OH246919   4.073   6.896   5.109
15681TIP3    H146920   4.156   6.924   5.071
15681TIP3    H246921   4.042   6.825   5.052
15682TIP3   OH246922   4.778   7.043   5.211
15682TIP3    H146923   4.770   6.948   5.204
15682TIP3    H246924   4.733   7.076   5.133
15683TIP3   OH246925   4.000   5.570   6.983
15683TIP3    H146926   3.965   5.494   7.028
15683TIP3    H246927   4.093   5.573   7.010
15684TIP3   OH246928   4.248   5.561   7.108
15684TIP3    H146929   4.326   5.538   7.056
15684TIP3    H246930   4.241   5.492   7.173
15685TIP3   OH246931   3.382   6.741   5.167
15685TIP3    H146932   3.381   6.750   5.262
15685TIP3    H246933   3.463   6.693   5.148
15686TIP3   OH246934   5.076   5.655   6.894
15686TIP3    H146935   5.092   5.625   6.984
15686TIP3    H246936   5.161   5.649   6.851
15687TIP3   OH246937   4.990   7.184   6.396
15687TIP3    H146938   4.914   7.153   6.346
15687TIP3    H246939   4.976   7.278   6.405
15688TIP3   OH246940   6.266   6.567   5.139
15688TIP3    H146941   6.231   6.654   5.118
15688TIP3    H246942   6.197   6.506   5.111
15689TIP3   OH246943   6.271   6.560   5.563
15689TIP3    H146944   6.318   6.536   5.643
15689TIP3    H246945   6.224   6.480   5.538
15690TIP3   OH246946   5.562   6.419   5.902
15690TIP3    H146947   5.599   6.364   5.972
15690TIP3    H246948   5.638   6.444   5.850
15691TIP3   OH246949   6.546   6.866   5.235
15691TIP3    H146950   6.525   6.801   5.302
15691TIP3    H246951   6.560   6.947   5.283
15692TIP3   OH246952   5.562   6.852   5.589
15692TIP3    H146953   5.542   6.758   5.596
15692TIP3    H246954   5.657   6.855   5.577
15693TIP3   OH246955   5.235   6.058   5.381
15693TIP3    H146956   5.198   6.143   5.403
15693TIP3    H246957   5.162   6.010   5.341
15694TIP3   OH246958   5.319   6.365   5.600
15694TIP3    H146959   5.369   6.288   5.625
15694TIP3    H246960   5.385   6.429   5.572
15695TIP3   OH246961   6.200   7.290   5.248
15695TIP3    H146962   6.220   7.229   5.177
15695TIP3    H246963   6.207   7.237   5.327
15696TIP3   OH246964   6.072   6.780   5.562
15696TIP3    H146965   6.117   6.701   5.531
15696TIP3    H246966   6.143   6.839   5.589
15697TIP3   OH246967   7.107   6.100   5.577
15697TIP3    H146968   7.123   6.187   5.614
15697TIP3    H246969   7.139   6.106   5.487
15698TIP3   OH246970   6.475   6.262   5.605
15698TIP3    H146971   6.510   6.176   5.628
15698TIP3    H246972   6.441   6.251   5.516
15699TIP3   OH246973   5.837   5.923   5.555
15699TIP3    H146974   5.813   5.997   5.500
15699TIP3    H246975   5.780   5.851   5.526
15700TIP3   OH246976   6.530   6.031   5.196
15700TIP3    H146977   6.595   6.026   5.267
15700TIP3    H246978   6.580   6.063   5.121
15701TIP3   OH246979   5.459   6.142   5.691
15701TIP3    H146980   5.542   6.123   5.733
15701TIP3    H246981   5.461   6.091   5.610
15702TIP3   OH246982   5.877   6.345   5.508
15702TIP3    H146983   5.972   6.329   5.509
15702TIP3    H246984   5.840   6.262   5.476
15703TIP3   OH246985   7.165   6.323   5.740
15703TIP3    H146986   7.075   6.357   5.736
15703TIP3    H246987   7.197   6.352   5.825
15704TIP3   OH246988   5.812   5.931   6.012
15704TIP3    H146989   5.763   5.965   5.937
15704TIP3    H246990   5.755   5.947   6.087
15705TIP3   OH246991   6.128   6.776   5.025
15705TIP3    H146992   6.103   6.756   4.935
15705TIP3    H246993   6.088   6.861   5.043
15706TIP3   OH246994   5.913   6.708   5.778
15706TIP3    H146995   5.858   6.780   5.808
15706TIP3    H246996   5.960   6.744   5.702
15707TIP3   OH246997   6.686   6.056   5.418
15707TIP3    H146998   6.648   6.030   5.502
15707TIP3    H246999   6.745   6.128   5.439
15708TIP3   OH247000   5.707   6.035   5.777
15708TIP3    H147001   5.762   6.111   5.799
15708TIP3    H247002   5.754   5.993   5.705
15709TIP3   OH247003   5.755   6.912   5.880
15709TIP3    H147004   5.739   7.001   5.848
15709TIP3    H247005   5.677   6.890   5.930
15710TIP3   OH247006   5.133   6.617   5.136
15710TIP3    H147007   5.098   6.634   5.049
15710TIP3    H247008   5.155   6.703   5.171
15711TIP3   OH247009   6.571   7.116   5.377
15711TIP3    H147010   6.482   7.110   5.412
15711TIP3    H247011   6.572   7.197   5.326
15712TIP3   OH247012   6.900   6.005   5.747
15712TIP3    H147013   6.819   6.009   5.696
15712TIP3    H247014   6.969   6.025   5.683
15713TIP3   OH247015   6.160   5.625   5.747
15713TIP3    H147016   6.154   5.533   5.771
15713TIP3    H247017   6.082   5.665   5.785
15714TIP3   OH247018   6.276   7.143   5.024
15714TIP3    H147019   6.328   7.063   5.015
15714TIP3    H247020   6.334   7.214   4.997
15715TIP3   OH247021   6.436   6.928   4.986
15715TIP3    H147022   6.443   6.854   4.925
15715TIP3    H247023   6.476   6.897   5.067
15716TIP3   OH247024   6.804   6.996   5.724
15716TIP3    H147025   6.785   6.924   5.663
15716TIP3    H247026   6.787   7.075   5.672
15717TIP3   OH247027   6.093   6.405   4.990
15717TIP3    H147028   6.010   6.450   4.973
15717TIP3    H247029   6.138   6.405   4.905
15718TIP3   OH247030   6.066   6.217   4.671
15718TIP3    H147031   6.131   6.266   4.721
15718TIP3    H247032   6.115   6.150   4.624
15719TIP3   OH247033   6.986   6.668   5.587
15719TIP3    H147034   6.902   6.713   5.578
15719TIP3    H247035   7.027   6.676   5.501
15720TIP3   OH247036   6.449   6.506   4.945
15720TIP3    H147037   6.394   6.531   5.019
15720TIP3    H247038   6.530   6.474   4.985
15721TIP3   OH247039   6.676   6.505   5.866
15721TIP3    H147040   6.674   6.591   5.909
15721TIP3    H247041   6.590   6.497   5.825
15722TIP3   OH247042   5.676   6.474   5.354
15722TIP3    H147043   5.639   6.414   5.289
15722TIP3    H247044   5.750   6.426   5.392
15723TIP3   OH247045   5.823   6.901   5.493
15723TIP3    H147046   5.797   6.888   5.401
15723TIP3    H247047   5.910   6.861   5.499
15724TIP3   OH247048   5.779   6.472   5.732
15724TIP3    H147049   5.816   6.437   5.651
15724TIP3    H247050   5.828   6.553   5.747
15725TIP3   OH247051   6.328   7.116   5.500
15725TIP3    H147052   6.314   7.193   5.554
15725TIP3    H247053   6.315   7.042   5.560
15726TIP3   OH247054   5.943   7.015   6.055
15726TIP3    H147055   5.881   7.073   6.099
15726TIP3    H247056   5.890   6.965   5.994
15727TIP3   OH247057   6.283   6.359   4.780
15727TIP3    H147058   6.341   6.419   4.827
15727TIP3    H247059   6.312   6.363   4.689
15728TIP3   OH247060   5.700   6.555   6.204
15728TIP3    H147061   5.702   6.650   6.221
15728TIP3    H247062   5.607   6.535   6.195
15729TIP3   OH247063   6.023   7.034   5.042
15729TIP3    H147064   6.110   7.074   5.041
15729TIP3    H247065   5.969   7.093   4.990
15730TIP3   OH247066   5.738   7.172   6.146
15730TIP3    H147067   5.708   7.181   6.056
15730TIP3    H247068   5.659   7.156   6.197
15731TIP3   OH247069   6.793   5.583   4.839
15731TIP3    H147070   6.717   5.607   4.891
15731TIP3    H247071   6.806   5.657   4.780
15732TIP3   OH247072   5.552   6.315   5.154
15732TIP3    H147073   5.474   6.362   5.125
15732TIP3    H247074   5.523   6.225   5.166
15733TIP3   OH247075   6.622   6.965   4.392
15733TIP3    H147076   6.618   7.059   4.370
15733TIP3    H247077   6.711   6.939   4.371
15734TIP3   OH247078   5.340   6.726   6.086
15734TIP3    H147079   5.269   6.708   6.025
15734TIP3    H247080   5.372   6.639   6.112
15735TIP3   OH247081   5.176   6.923   5.747
15735TIP3    H147082   5.264   6.952   5.772
15735TIP3    H247083   5.119   6.996   5.770
15736TIP3   OH247084   7.032   7.371   5.790
15736TIP3    H147085   7.037   7.276   5.801
15736TIP3    H247086   6.953   7.396   5.837
15737TIP3   OH247087   6.136   7.152   5.912
15737TIP3    H147088   6.133   7.245   5.936
15737TIP3    H247089   6.064   7.112   5.962
15738TIP3   OH247090   5.921   7.248   4.867
15738TIP3    H147091   5.876   7.226   4.785
15738TIP3    H247092   5.881   7.331   4.894
15739TIP3   OH247093   5.355   7.107   5.243
15739TIP3    H147094   5.398   7.098   5.328
15739TIP3    H247095   5.304   7.027   5.233
15740TIP3   OH247096   6.122   7.185   4.491
15740TIP3    H147097   6.172   7.111   4.457
15740TIP3    H247098   6.158   7.199   4.579
15741TIP3   OH247099   6.175   7.226   4.762
15741TIP3    H147100   6.088   7.230   4.803
15741TIP3    H247101   6.231   7.186   4.828
15742TIP3   OH247102   6.906   6.492   6.047
15742TIP3    H147103   6.847   6.473   5.974
15742TIP3    H247104   6.933   6.407   6.079
15743TIP3   OH247105   5.538   6.915   6.051
15743TIP3    H147106   5.586   6.906   6.133
15743TIP3    H247107   5.466   6.851   6.058
15744TIP3   OH247108   5.919   5.713   5.872
15744TIP3    H147109   5.837   5.679   5.837
15744TIP3    H247110   5.894   5.793   5.918
15745TIP3   OH247111   6.459   5.842   6.074
15745TIP3    H147112   6.529   5.812   6.133
15745TIP3    H247113   6.378   5.822   6.122
15746TIP3   OH247114   6.678   6.258   6.004
15746TIP3    H147115   6.642   6.279   6.090
15746TIP3    H247116   6.664   6.338   5.952
15747TIP3   OH247117   6.363   6.345   4.520
15747TIP3    H147118   6.314   6.345   4.438
15747TIP3    H247119   6.446   6.387   4.499
15748TIP3   OH247120   6.067   5.751   4.837
15748TIP3    H147121   6.031   5.759   4.925
15748TIP3    H247122   6.032   5.668   4.804
15749TIP3   OH247123   5.858   6.247   5.874
15749TIP3    H147124   5.814   6.253   5.959
15749TIP3    H247125   5.835   6.328   5.829
15750TIP3   OH247126   5.736   6.130   5.406
15750TIP3    H147127   5.646   6.104   5.429
15750TIP3    H247128   5.746   6.101   5.315
15751TIP3   OH247129   6.218   6.206   5.129
15751TIP3    H147130   6.169   6.277   5.088
15751TIP3    H247131   6.276   6.173   5.060
15752TIP3   OH247132   6.387   6.218   5.349
15752TIP3    H147133   6.320   6.239   5.285
15752TIP3    H247134   6.434   6.144   5.310
15753TIP3   OH247135   5.689   6.257   6.093
15753TIP3    H147136   5.709   6.320   6.163
15753TIP3    H247137   5.669   6.176   6.139
15754TIP3   OH247138   5.742   5.723   4.815
15754TIP3    H147139   5.735   5.728   4.911
15754TIP3    H247140   5.668   5.774   4.783
15755TIP3   OH247141   5.276   5.763   5.700
15755TIP3    H147142   5.350   5.807   5.741
15755TIP3    H247143   5.302   5.752   5.608
15756TIP3   OH247144   5.208   5.783   5.195
15756TIP3    H147145   5.250   5.809   5.114
15756TIP3    H247146   5.141   5.850   5.211
15757TIP3   OH247147   6.414   6.454   5.784
15757TIP3    H147148   6.437   6.389   5.718
15757TIP3    H247149   6.374   6.404   5.854
15758TIP3   OH247150   6.107   5.916   5.452
15758TIP3    H147151   6.028   5.914   5.505
15758TIP3    H247152   6.178   5.906   5.515
15759TIP3   OH247153   5.496   6.003   5.458
15759TIP3    H147154   5.407   6.009   5.421
15759TIP3    H247155   5.521   5.912   5.443
15760TIP3   OH247156   5.758   6.020   5.157
15760TIP3    H147157   5.853   6.027   5.148
15760TIP3    H247158   5.724   6.035   5.069
15761TIP3   OH247159   6.552   6.002   5.659
15761TIP3    H147160   6.533   6.018   5.752
15761TIP3    H247161   6.484   5.939   5.632
15762TIP3   OH247162   5.653   6.036   4.906
15762TIP3    H147163   5.592   5.984   4.855
15762TIP3    H247164   5.706   6.083   4.841
15763TIP3   OH247165   6.748   7.709   5.876
15763TIP3    H147166   6.743   7.725   5.782
15763TIP3    H247167   6.827   7.755   5.904
15764TIP3   OH247168   5.696   6.825   6.290
15764TIP3    H147169   5.774   6.849   6.340
15764TIP3    H247170   5.624   6.835   6.352
15765TIP3   OH247171   6.152   6.293   5.550
15765TIP3    H147172   6.216   6.243   5.499
15765TIP3    H247173   6.148   6.248   5.634
15766TIP3   OH247174   5.637   5.751   5.446
15766TIP3    H147175   5.606   5.676   5.497
15766TIP3    H247176   5.651   5.715   5.358
15767TIP3   OH247177   6.119   6.186   5.809
15767TIP3    H147178   6.031   6.214   5.834
15767TIP3    H247179   6.177   6.233   5.869
15768TIP3   OH247180   5.855   6.539   4.935
15768TIP3    H147181   5.779   6.487   4.910
15768TIP3    H247182   5.828   6.582   5.016
15769TIP3   OH247183   6.749   6.801   5.537
15769TIP3    H147184   6.786   6.848   5.462
15769TIP3    H247185   6.670   6.759   5.502
15770TIP3   OH247186   6.316   5.864   4.854
15770TIP3    H147187   6.224   5.842   4.844
15770TIP3    H247188   6.317   5.960   4.862
15771TIP3   OH247189   6.247   6.896   5.936
15771TIP3    H147190   6.254   6.884   6.030
15771TIP3    H247191   6.208   6.983   5.925
15772TIP3   OH247192   6.378   6.131   4.912
15772TIP3    H147193   6.474   6.133   4.918
15772TIP3    H247194   6.356   6.207   4.858
15773TIP3   OH247195   5.548   6.563   5.583
15773TIP3    H147196   5.585   6.542   5.497
15773TIP3    H247197   5.614   6.531   5.645
15774TIP3   OH247198   6.008   6.701   4.778
15774TIP3    H147199   5.960   6.784   4.774
15774TIP3    H247200   5.953   6.643   4.831
15775TIP3   OH247201   5.425   6.488   6.215
15775TIP3    H147202   5.424   6.458   6.306
15775TIP3    H247203   5.351   6.444   6.174
15776TIP3   OH247204   6.415   7.169   5.845
15776TIP3    H147205   6.320   7.161   5.845
15776TIP3    H247206   6.436   7.205   5.931
15777TIP3   OH247207   6.788   6.213   4.723
15777TIP3    H147208   6.732   6.167   4.661
15777TIP3    H247209   6.794   6.302   4.688
15778TIP3   OH247210   7.048   7.092   5.810
15778TIP3    H147211   6.954   7.073   5.805
15778TIP3    H247212   7.083   7.063   5.726
15779TIP3   OH247213   6.537   7.026   4.654
15779TIP3    H147214   6.507   6.949   4.703
15779TIP3    H247215   6.560   6.991   4.567
15780TIP3   OH247216   6.520   6.663   5.438
15780TIP3    H147217   6.430   6.641   5.462
15780TIP3    H247218   6.554   6.583   5.398
15781TIP3   OH247219   5.675   6.903   5.254
15781TIP3    H147220   5.673   6.977   5.195
15781TIP3    H247221   5.585   6.893   5.285
15782TIP3   OH247222   5.232   6.178   4.967
15782TIP3    H147223   5.276   6.261   4.989
15782TIP3    H247224   5.150   6.180   5.017
15783TIP3   OH247225   5.750   6.656   5.155
15783TIP3    H147226   5.737   6.746   5.186
15783TIP3    H247227   5.724   6.601   5.228
15784TIP3   OH247228   5.954   7.227   5.705
15784TIP3    H147229   5.989   7.301   5.655
15784TIP3    H247230   6.030   7.193   5.752
15785TIP3   OH247231   5.592   7.124   5.103
15785TIP3    H147232   5.504   7.130   5.140
15785TIP3    H247233   5.627   7.212   5.108
15786TIP3   OH247234   6.307   6.891   5.667
15786TIP3    H147235   6.292   6.887   5.762
15786TIP3    H247236   6.378   6.829   5.651
15787TIP3   OH247237   6.312   6.771   4.555
15787TIP3    H147238   6.349   6.755   4.641
15787TIP3    H247239   6.228   6.723   4.556
15788TIP3   OH247240   6.565   7.381   5.721
15788TIP3    H147241   6.495   7.320   5.741
15788TIP3    H247242   6.531   7.433   5.647
15789TIP3   OH247243   6.625   7.239   4.359
15789TIP3    H147244   6.668   7.312   4.315
15789TIP3    H247245   6.546   7.278   4.398
15790TIP3   OH247246   5.637   6.007   6.216
15790TIP3    H147247   5.542   6.020   6.221
15790TIP3    H247248   5.658   5.955   6.294
15791TIP3   OH247249   6.477   6.728   4.781
15791TIP3    H147250   6.457   6.651   4.835
15791TIP3    H247251   6.569   6.718   4.759
15792TIP3   OH247252   5.386   7.111   5.870
15792TIP3    H147253   5.439   7.051   5.921
15792TIP3    H247254   5.396   7.195   5.914
15793TIP3   OH247255   5.653   6.729   4.565
15793TIP3    H147256   5.664   6.637   4.538
15793TIP3    H247257   5.640   6.724   4.660
15794TIP3   OH247258   5.595   6.748   4.837
15794TIP3    H147259   5.656   6.722   4.906
15794TIP3    H247260   5.593   6.843   4.840
15795TIP3   OH247261   5.325   6.433   5.046
15795TIP3    H147262   5.261   6.483   5.097
15795TIP3    H247263   5.346   6.490   4.971
15796TIP3   OH247264   6.495   6.066   5.922
15796TIP3    H147265   6.572   6.111   5.957
15796TIP3    H247266   6.486   5.988   5.976
15797TIP3   OH247267   6.385   5.809   5.116
15797TIP3    H147268   6.360   5.828   5.025
15797TIP3    H247269   6.428   5.889   5.146
15798TIP3   OH247270   5.865   6.930   4.772
15798TIP3    H147271   5.781   6.955   4.810
15798TIP3    H247272   5.888   7.004   4.715
15799TIP3   OH247273   6.036   6.013   5.200
15799TIP3    H147274   6.097   6.081   5.174
15799TIP3    H247275   6.060   5.991   5.290
15800TIP3   OH247276   6.322   6.278   5.977
15800TIP3    H147277   6.322   6.281   6.073
15800TIP3    H247278   6.374   6.201   5.956
15801TIP3   OH247279   6.197   5.705   5.288
15801TIP3    H147280   6.173   5.782   5.339
15801TIP3    H247281   6.267   5.734   5.231
15802TIP3   OH247282   5.616   7.021   4.850
15802TIP3    H147283   5.597   7.094   4.790
15802TIP3    H247284   5.606   7.058   4.937
15803TIP3   OH247285   5.714   5.749   5.098
15803TIP3    H147286   5.704   5.840   5.124
15803TIP3    H247287   5.808   5.732   5.104
15804TIP3   OH247288   6.941   6.189   5.965
15804TIP3    H147289   6.849   6.203   5.987
15804TIP3    H247290   6.939   6.130   5.890
15805TIP3   OH247291   6.610   6.405   5.348
15805TIP3    H147292   6.534   6.347   5.357
15805TIP3    H247293   6.678   6.364   5.402
15806TIP3   OH247294   5.353   6.610   4.829
15806TIP3    H147295   5.425   6.673   4.838
15806TIP3    H247296   5.383   6.548   4.763
15807TIP3   OH247297   5.259   5.898   4.953
15807TIP3    H147298   5.258   5.994   4.953
15807TIP3    H247299   5.191   5.875   4.888
15808TIP3   OH247300   6.591   7.380   5.284
15808TIP3    H147301   6.551   7.434   5.216
15808TIP3    H247302   6.685   7.392   5.272
15809TIP3   OH247303   5.658   5.627   5.825
15809TIP3    H147304   5.625   5.596   5.741
15809TIP3    H247305   5.649   5.553   5.884
15810TIP3   OH247306   5.177   6.889   5.216
15810TIP3    H147307   5.132   6.923   5.294
15810TIP3    H247308   5.132   6.930   5.142
15811TIP3   OH247309   5.386   7.438   6.307
15811TIP3    H147310   5.463   7.442   6.364
15811TIP3    H247311   5.357   7.347   6.312
15812TIP3   OH247312   5.849   7.349   6.327
15812TIP3    H147313   5.939   7.320   6.340
15812TIP3    H247314   5.813   7.289   6.262
15813TIP3   OH247315   5.804   6.931   4.453
15813TIP3    H147316   5.757   6.861   4.498
15813TIP3    H247317   5.879   6.887   4.412
15814TIP3   OH247318   6.467   7.260   6.099
15814TIP3    H147319   6.477   7.187   6.160
15814TIP3    H247320   6.544   7.315   6.115
15815TIP3   OH247321   6.248   6.971   4.376
15815TIP3    H147322   6.286   6.909   4.438
15815TIP3    H247323   6.304   6.966   4.299
15816TIP3   OH247324   5.486   6.824   6.473
15816TIP3    H147325   5.501   6.730   6.486
15816TIP3    H247326   5.399   6.829   6.433
15817TIP3   OH247327   5.473   6.422   4.671
15817TIP3    H147328   5.523   6.398   4.749
15817TIP3    H247329   5.539   6.436   4.603
15818TIP3   OH247330   6.112   6.900   6.232
15818TIP3    H147331   6.054   6.939   6.167
15818TIP3    H247332   6.110   6.806   6.212
15819TIP3   OH247333   6.065   6.643   4.516
15819TIP3    H147334   6.036   6.653   4.607
15819TIP3    H247335   6.042   6.553   4.494
15820TIP3   OH247336   6.584   6.937   5.888
15820TIP3    H147337   6.659   6.966   5.835
15820TIP3    H247338   6.516   7.003   5.872
15821TIP3   OH247339   5.597   6.569   6.491
15821TIP3    H147340   5.672   6.548   6.436
15821TIP3    H247341   5.635   6.588   6.577
15822TIP3   OH247342   5.644   6.366   4.885
15822TIP3    H147343   5.624   6.333   4.973
15822TIP3    H247344   5.695   6.296   4.844
15823TIP3   OH247345   5.940   6.430   6.131
15823TIP3    H147346   5.862   6.481   6.152
15823TIP3    H247347   5.989   6.485   6.071
15824TIP3   OH247348   5.796   6.190   4.731
15824TIP3    H147349   5.764   6.192   4.641
15824TIP3    H247350   5.891   6.198   4.723
15825TIP3   OH247351   6.584   6.469   4.408
15825TIP3    H147352   6.571   6.429   4.323
15825TIP3    H247353   6.562   6.561   4.395
15826TIP3   OH247354   6.077   6.220   6.234
15826TIP3    H147355   6.074   6.145   6.175
15826TIP3    H247356   6.028   6.289   6.189
15827TIP3   OH247357   6.072   6.014   6.041
15827TIP3    H147358   6.096   6.045   5.954
15827TIP3    H247359   5.981   5.987   6.033
15828TIP3   OH247360   6.084   6.586   5.957
15828TIP3    H147361   6.169   6.592   5.914
15828TIP3    H247362   6.024   6.630   5.897
15829TIP3   OH247363   6.748   6.514   6.302
15829TIP3    H147364   6.682   6.446   6.290
15829TIP3    H247365   6.814   6.474   6.359
15830TIP3   OH247366   6.717   6.738   6.025
15830TIP3    H147367   6.650   6.799   5.994
15830TIP3    H247368   6.798   6.768   5.982
15831TIP3   OH247369   5.952   6.292   6.479
15831TIP3    H147370   5.884   6.228   6.501
15831TIP3    H247371   5.980   6.268   6.390
15832TIP3   OH247372   6.195   5.788   6.153
15832TIP3    H147373   6.153   5.866   6.117
15832TIP3    H247374   6.130   5.718   6.141
15833TIP3   OH247375   6.316   6.291   6.352
15833TIP3    H147376   6.306   6.261   6.442
15833TIP3    H247377   6.235   6.264   6.308
15834TIP3   OH247378   6.579   6.303   6.256
15834TIP3    H147379   6.493   6.295   6.297
15834TIP3    H247380   6.634   6.240   6.303
15835TIP3   OH247381   6.798   6.170   6.372
15835TIP3    H147382   6.812   6.075   6.376
15835TIP3    H247383   6.797   6.198   6.464
15836TIP3   OH247384   5.785   6.079   6.556
15836TIP3    H147385   5.788   5.990   6.520
15836TIP3    H247386   5.825   6.071   6.643
15837TIP3   OH247387   6.263   5.769   6.419
15837TIP3    H147388   6.330   5.701   6.413
15837TIP3    H247389   6.232   5.779   6.329
15838TIP3   OH247390   6.359   5.987   6.559
15838TIP3    H147391   6.327   5.913   6.507
15838TIP3    H247392   6.286   6.049   6.558
15839TIP3   OH247393   5.618   7.235   4.672
15839TIP3    H147394   5.706   7.211   4.642
15839TIP3    H247395   5.578   7.278   4.596
15840TIP3   OH247396   5.080   6.618   4.847
15840TIP3    H147397   5.175   6.626   4.843
15840TIP3    H247398   5.061   6.534   4.805
15841TIP3   OH247399   4.981   7.197   5.310
15841TIP3    H147400   4.917   7.143   5.263
15841TIP3    H247401   5.026   7.135   5.368
15842TIP3   OH247402   5.127   7.027   5.474
15842TIP3    H147403   5.118   6.956   5.538
15842TIP3    H247404   5.179   7.093   5.519
15843TIP3   OH247405   6.862   7.427   5.281
15843TIP3    H147406   6.883   7.462   5.368
15843TIP3    H247407   6.921   7.474   5.222
15844TIP3   OH247408   6.873   7.465   5.565
15844TIP3    H147409   6.830   7.380   5.559
15844TIP3    H247410   6.945   7.451   5.626
15845TIP3   OH247411   6.932   7.161   6.145
15845TIP3    H147412   6.860   7.172   6.207
15845TIP3    H247413   6.979   7.245   6.148
15846TIP3   OH247414   6.749   6.684   4.744
15846TIP3    H147415   6.807   6.753   4.712
15846TIP3    H247416   6.795   6.645   4.818
15847TIP3   OH247417   6.869   6.539   4.949
15847TIP3    H147418   6.798   6.496   4.996
15847TIP3    H247419   6.930   6.567   5.017
15848TIP3   OH247420   6.944   6.932   5.378
15848TIP3    H147421   6.991   6.868   5.325
15848TIP3    H247422   6.940   7.010   5.323
15849TIP3   OH247423   6.738   7.219   5.575
15849TIP3    H147424   6.672   7.267   5.625
15849TIP3    H247425   6.691   7.181   5.502
15850TIP3   OH247426   6.787   6.455   4.593
15850TIP3    H147427   6.718   6.453   4.526
15850TIP3    H247428   6.770   6.535   4.642
15851TIP3   OH247429   6.637   6.099   4.527
15851TIP3    H147430   6.597   6.131   4.446
15851TIP3    H247431   6.631   6.004   4.520
15852TIP3   OH247432   6.669   6.394   5.076
15852TIP3    H147433   6.675   6.300   5.060
15852TIP3    H247434   6.653   6.402   5.170
15853TIP3   OH247435   5.298   6.460   5.855
15853TIP3    H147436   5.288   6.429   5.765
15853TIP3    H247437   5.393   6.455   5.871
15854TIP3   OH247438   6.961   6.814   5.935
15854TIP3    H147439   7.031   6.750   5.918
15854TIP3    H247440   6.965   6.873   5.859
15855TIP3   OH247441   7.138   6.603   5.941
15855TIP3    H147442   7.059   6.560   5.974
15855TIP3    H247443   7.209   6.542   5.959
15856TIP3   OH247444   6.611   5.826   4.514
15856TIP3    H147445   6.674   5.800   4.581
15856TIP3    H247446   6.527   5.791   4.544
15857TIP3   OH247447   6.673   6.122   4.967
15857TIP3    H147448   6.719   6.039   4.981
15857TIP3    H247449   6.712   6.158   4.887
15858TIP3   OH247450   6.827   6.285   5.488
15858TIP3    H147451   6.906   6.303   5.437
15858TIP3    H247452   6.846   6.321   5.575
15859TIP3   OH247453   6.907   6.436   5.715
15859TIP3    H147454   6.823   6.460   5.755
15859TIP3    H247455   6.936   6.515   5.670
15860TIP3   OH247456   5.522   6.142   6.493
15860TIP3    H147457   5.616   6.136   6.511
15860TIP3    H247458   5.484   6.063   6.532
15861TIP3   OH247459   7.357   6.037   6.250
15861TIP3    H147460   7.425   5.981   6.212
15861TIP3    H247461   7.318   6.081   6.174
15862TIP3   OH247462   6.789   5.873   5.024
15862TIP3    H147463   6.833   5.857   5.107
15862TIP3    H247464   6.727   5.801   5.014
15863TIP3   OH247465   5.497   5.853   5.845
15863TIP3    H147466   5.551   5.774   5.848
15863TIP3    H247467   5.559   5.923   5.823
15864TIP3   OH247468   5.274   6.116   5.906
15864TIP3    H147469   5.327   6.107   5.826
15864TIP3    H247470   5.297   6.202   5.939
15865TIP3   OH247471   7.201   6.137   6.043
15865TIP3    H147472   7.111   6.170   6.039
15865TIP3    H247473   7.198   6.054   5.995
15866TIP3   OH247474   6.845   5.778   4.655
15866TIP3    H147475   6.891   5.724   4.591
15866TIP3    H247476   6.896   5.859   4.659
15867TIP3   OH247477   5.262   5.650   5.429
15867TIP3    H147478   5.173   5.634   5.459
15867TIP3    H247479   5.252   5.702   5.349
15868TIP3   OH247480   6.419   7.350   4.928
15868TIP3    H147481   6.474   7.336   4.850
15868TIP3    H247482   6.464   7.418   4.977
15869TIP3   OH247483   5.489   5.672   6.233
15869TIP3    H147484   5.442   5.675   6.317
15869TIP3    H247485   5.436   5.726   6.174
15870TIP3   OH247486   5.521   7.137   6.315
15870TIP3    H147487   5.427   7.128   6.300
15870TIP3    H247488   5.530   7.131   6.410
15871TIP3   OH247489   5.730   7.190   5.859
15871TIP3    H147490   5.677   7.264   5.829
15871TIP3    H247491   5.813   7.199   5.813
15872TIP3   OH247492   6.134   7.417   5.985
15872TIP3    H147493   6.171   7.411   6.073
15872TIP3    H247494   6.196   7.472   5.937
15873TIP3   OH247495   6.318   7.579   5.862
15873TIP3    H147496   6.378   7.530   5.805
15873TIP3    H247497   6.376   7.632   5.917
15874TIP3   OH247498   7.130   5.878   5.954
15874TIP3    H147499   7.041   5.858   5.925
15874TIP3    H247500   7.176   5.794   5.947
15875TIP3   OH247501   5.391   7.431   5.909
15875TIP3    H147502   5.299   7.448   5.887
15875TIP3    H247503   5.413   7.495   5.976
15876TIP3   OH247504   5.620   7.422   5.757
15876TIP3    H147505   5.538   7.426   5.805
15876TIP3    H247506   5.597   7.445   5.667
15877TIP3   OH247507   6.031   7.440   5.546
15877TIP3    H147508   5.959   7.447   5.482
15877TIP3    H247509   6.041   7.528   5.581
15878TIP3   OH247510   6.291   7.370   5.603
15878TIP3    H147511   6.201   7.391   5.579
15878TIP3    H247512   6.345   7.431   5.551
15879TIP3   OH247513   6.492   7.529   5.493
15879TIP3    H147514   6.501   7.618   5.458
15879TIP3    H247515   6.523   7.472   5.421
15880TIP3   OH247516   5.301   7.204   5.620
15880TIP3    H147517   5.326   7.178   5.709
15880TIP3    H247518   5.371   7.172   5.564
15881TIP3   OH247519   5.502   7.092   5.477
15881TIP3    H147520   5.515   7.008   5.520
15881TIP3    H247521   5.589   7.133   5.480
15882TIP3   OH247522   5.770   7.177   5.502
15882TIP3    H147523   5.791   7.085   5.484
15882TIP3    H247524   5.824   7.200   5.578
15883TIP3   OH247525   6.334   5.821   5.594
15883TIP3    H147526   6.292   5.750   5.643
15883TIP3    H247527   6.401   5.777   5.541
15884TIP3   OH247528   6.825   5.760   5.495
15884TIP3    H147529   6.861   5.802   5.417
15884TIP3    H247530   6.730   5.765   5.483
15885TIP3   OH247531   6.943   5.815   5.249
15885TIP3    H147532   7.010   5.753   5.222
15885TIP3    H247533   6.983   5.901   5.237
15886TIP3   OH247534   5.557   5.523   5.590
15886TIP3    H147535   5.468   5.486   5.594
15886TIP3    H247536   5.614   5.446   5.579
15887TIP3   OH247537   5.408   5.458   5.276
15887TIP3    H147538   5.339   5.452   5.210
15887TIP3    H247539   5.372   5.517   5.343
15888TIP3   OH247540   6.057   5.558   5.486
15888TIP3    H147541   6.103   5.607   5.417
15888TIP3    H247542   6.097   5.589   5.567
15889TIP3   OH247543   6.546   5.698   5.462
15889TIP3    H147544   6.563   5.662   5.375
15889TIP3    H247545   6.554   5.623   5.521
15890TIP3   OH247546   6.605   5.661   5.026
15890TIP3    H147547   6.525   5.707   5.052
15890TIP3    H247548   6.597   5.575   5.066
15891TIP3   OH247549   5.058   7.008   4.998
15891TIP3    H147550   4.974   6.977   4.963
15891TIP3    H247551   5.064   7.099   4.969
15892TIP3   OH247552   5.506   5.591   5.008
15892TIP3    H147553   5.512   5.520   5.072
15892TIP3    H247554   5.569   5.656   5.038
15893TIP3   OH247555   5.989   5.761   5.102
15893TIP3    H147556   6.047   5.710   5.158
15893TIP3    H247557   6.004   5.852   5.129
15894TIP3   OH247558   5.869   7.153   4.598
15894TIP3    H147559   5.952   7.181   4.558
15894TIP3    H247560   5.838   7.083   4.541
15895TIP3   OH247561   6.567   7.295   4.699
15895TIP3    H147562   6.562   7.199   4.691
15895TIP3    H247563   6.526   7.328   4.620
15896TIP3   OH247564   5.800   5.807   6.470
15896TIP3    H147565   5.766   5.741   6.530
15896TIP3    H247566   5.892   5.816   6.495
15897TIP3   OH247567   6.047   5.815   6.595
15897TIP3    H147568   6.125   5.793   6.544
15897TIP3    H247569   6.041   5.745   6.660
15898TIP3   OH247570   5.181   6.998   4.654
15898TIP3    H147571   5.181   7.004   4.750
15898TIP3    H247572   5.261   6.950   4.633
15899TIP3   OH247573   6.867   5.900   6.378
15899TIP3    H147574   6.884   5.872   6.468
15899TIP3    H247575   6.952   5.897   6.335
15900TIP3   OH247576   6.781   7.436   5.891
15900TIP3    H147577   6.709   7.406   5.836
15900TIP3    H247578   6.772   7.531   5.894
15901TIP3   OH247579   7.915   6.783   4.715
15901TIP3    H147580   7.921   6.878   4.701
15901TIP3    H247581   7.888   6.749   4.630
15902TIP3   OH247582   8.056   6.817   5.023
15902TIP3    H147583   8.094   6.798   5.109
15902TIP3    H247584   8.118   6.778   4.961
15903TIP3   OH247585   7.391   6.718   5.403
15903TIP3    H147586   7.407   6.634   5.445
15903TIP3    H247587   7.428   6.783   5.463
15904TIP3   OH247588   8.354   7.114   4.700
15904TIP3    H147589   8.346   7.044   4.764
15904TIP3    H247590   8.365   7.194   4.752
15905TIP3   OH247591   7.364   7.113   5.083
15905TIP3    H147592   7.352   7.022   5.112
15905TIP3    H247593   7.459   7.121   5.069
15906TIP3   OH247594   7.019   6.312   4.864
15906TIP3    H147595   6.976   6.395   4.887
15906TIP3    H247596   6.951   6.263   4.818
15907TIP3   OH247597   7.103   6.598   5.091
15907TIP3    H147598   7.154   6.521   5.118
15907TIP3    H247599   7.143   6.625   5.009
15908TIP3   OH247600   7.995   7.546   4.717
15908TIP3    H147601   8.023   7.482   4.651
15908TIP3    H247602   7.947   7.494   4.781
15909TIP3   OH247603   7.871   7.028   5.056
15909TIP3    H147604   7.911   6.946   5.025
15909TIP3    H247605   7.943   7.078   5.093
15910TIP3   OH247606   8.924   6.366   5.063
15910TIP3    H147607   8.926   6.457   5.094
15910TIP3    H247608   8.936   6.373   4.968
15911TIP3   OH247609   8.309   6.564   5.083
15911TIP3    H147610   8.315   6.468   5.089
15911TIP3    H247611   8.305   6.582   4.989
15912TIP3   OH247612   7.621   6.189   5.045
15912TIP3    H147613   7.594   6.263   4.990
15912TIP3    H247614   7.569   6.115   5.013
15913TIP3   OH247615   7.257   6.389   5.180
15913TIP3    H147616   7.344   6.374   5.218
15913TIP3    H247617   7.256   6.335   5.101
15914TIP3   OH247618   8.953   6.592   5.230
15914TIP3    H147619   8.861   6.619   5.228
15914TIP3    H247620   8.984   6.622   5.316
15915TIP3   OH247621   7.615   6.190   5.493
15915TIP3    H147622   7.570   6.229   5.418
15915TIP3    H247623   7.556   6.203   5.567
15916TIP3   OH247624   7.921   7.014   4.537
15916TIP3    H147625   7.904   6.997   4.444
15916TIP3    H247626   7.893   7.104   4.551
15917TIP3   OH247627   7.708   6.965   5.278
15917TIP3    H147628   7.648   7.035   5.302
15917TIP3    H247629   7.749   6.995   5.197
15918TIP3   OH247630   8.542   6.262   4.993
15918TIP3    H147631   8.453   6.279   5.025
15918TIP3    H247632   8.575   6.348   4.968
15919TIP3   OH247633   7.508   6.305   5.268
15919TIP3    H147634   7.560   6.384   5.281
15919TIP3    H247635   7.550   6.260   5.195
15920TIP3   OH247636   7.545   7.171   5.368
15920TIP3    H147637   7.534   7.261   5.335
15920TIP3    H247638   7.466   7.155   5.419
15921TIP3   OH247639   6.921   6.871   4.627
15921TIP3    H147640   6.890   6.891   4.539
15921TIP3    H247641   6.946   6.957   4.663
15922TIP3   OH247642   8.368   7.350   4.846
15922TIP3    H147643   8.291   7.339   4.902
15922TIP3    H247644   8.344   7.420   4.786
15923TIP3   OH247645   8.707   6.288   5.216
15923TIP3    H147646   8.633   6.289   5.155
15923TIP3    H247647   8.783   6.309   5.163
15924TIP3   OH247648   7.954   5.875   5.234
15924TIP3    H147649   7.949   5.784   5.263
15924TIP3    H247650   7.877   5.916   5.274
15925TIP3   OH247651   8.093   7.408   4.493
15925TIP3    H147652   8.138   7.324   4.482
15925TIP3    H247653   8.162   7.474   4.485
15926TIP3   OH247654   8.235   7.180   4.460
15926TIP3    H147655   8.234   7.104   4.402
15926TIP3    H247656   8.277   7.150   4.540
15927TIP3   OH247657   8.596   7.276   5.202
15927TIP3    H147658   8.583   7.195   5.152
15927TIP3    H247659   8.586   7.346   5.138
15928TIP3   OH247660   7.878   6.664   4.469
15928TIP3    H147661   7.800   6.708   4.435
15928TIP3    H247662   7.934   6.653   4.392
15929TIP3   OH247663   7.873   6.468   4.168
15929TIP3    H147664   7.941   6.509   4.221
15929TIP3    H247665   7.919   6.405   4.113
15930TIP3   OH247666   8.786   6.921   5.074
15930TIP3    H147667   8.702   6.967   5.074
15930TIP3    H247668   8.817   6.927   4.984
15931TIP3   OH247669   8.201   6.769   4.489
15931TIP3    H147670   8.135   6.825   4.530
15931TIP3    H247671   8.245   6.726   4.563
15932TIP3   OH247672   8.465   6.780   5.383
15932TIP3    H147673   8.462   6.863   5.431
15932TIP3    H247674   8.385   6.781   5.330
15933TIP3   OH247675   7.624   7.152   4.982
15933TIP3    H147676   7.601   7.136   4.890
15933TIP3    H247677   7.710   7.110   4.992
15934TIP3   OH247678   8.160   7.347   5.015
15934TIP3    H147679   8.127   7.431   5.047
15934TIP3    H247680   8.125   7.283   5.076
15935TIP3   OH247681   7.746   7.263   5.537
15935TIP3    H147682   7.684   7.320   5.583
15935TIP3    H247683   7.692   7.212   5.476
15936TIP3   OH247684   8.089   6.601   4.294
15936TIP3    H147685   8.139   6.659   4.351
15936TIP3    H247686   8.120   6.621   4.206
15937TIP3   OH247687   7.484   6.833   5.647
15937TIP3    H147688   7.491   6.922   5.679
15937TIP3    H247689   7.396   6.805   5.673
15938TIP3   OH247690   7.844   7.287   4.534
15938TIP3    H147691   7.925   7.333   4.515
15938TIP3    H247692   7.778   7.331   4.480
15939TIP3   OH247693   7.537   7.421   5.625
15939TIP3    H147694   7.515   7.436   5.533
15939TIP3    H247695   7.452   7.409   5.668
15940TIP3   OH247696   8.596   5.845   4.342
15940TIP3    H147697   8.517   5.863   4.393
15940TIP3    H247698   8.606   5.921   4.285
15941TIP3   OH247699   7.349   6.577   4.612
15941TIP3    H147700   7.264   6.617   4.593
15941TIP3    H247701   7.328   6.489   4.643
15942TIP3   OH247702   8.418   7.221   3.884
15942TIP3    H147703   8.411   7.312   3.856
15942TIP3    H247704   8.507   7.195   3.860
15943TIP3   OH247705   7.134   6.980   5.578
15943TIP3    H147706   7.067   6.962   5.512
15943TIP3    H247707   7.165   6.893   5.605
15944TIP3   OH247708   6.975   7.174   5.238
15944TIP3    H147709   7.065   7.203   5.253
15944TIP3    H247710   6.921   7.250   5.260
15945TIP3   OH247711   8.829   7.626   5.280
15945TIP3    H147712   8.836   7.532   5.296
15945TIP3    H247713   8.748   7.652   5.323
15946TIP3   OH247714   7.936   7.411   5.404
15946TIP3    H147715   7.923   7.501   5.434
15946TIP3    H247716   7.867   7.361   5.448
15947TIP3   OH247717   7.721   7.519   4.347
15947TIP3    H147718   7.669   7.494   4.271
15947TIP3    H247719   7.681   7.600   4.378
15948TIP3   OH247720   7.152   7.366   4.726
15948TIP3    H147721   7.195   7.359   4.811
15948TIP3    H247722   7.104   7.284   4.717
15949TIP3   OH247723   7.923   7.440   3.979
15949TIP3    H147724   7.970   7.364   3.945
15949TIP3    H247725   7.958   7.453   4.067
15950TIP3   OH247726   7.975   7.487   4.251
15950TIP3    H147727   7.885   7.494   4.283
15950TIP3    H247728   8.023   7.447   4.323
15951TIP3   OH247729   8.711   6.735   5.539
15951TIP3    H147730   8.633   6.739   5.484
15951TIP3    H247731   8.734   6.642   5.541
15952TIP3   OH247732   7.329   7.173   5.540
15952TIP3    H147733   7.379   7.163   5.621
15952TIP3    H247734   7.257   7.110   5.548
15953TIP3   OH247735   7.716   5.967   5.356
15953TIP3    H147736   7.632   5.933   5.325
15953TIP3    H247737   7.694   6.050   5.399
15954TIP3   OH247738   8.250   6.105   5.556
15954TIP3    H147739   8.316   6.083   5.621
15954TIP3    H247740   8.166   6.089   5.600
15955TIP3   OH247741   8.474   6.515   5.479
15955TIP3    H147742   8.438   6.517   5.568
15955TIP3    H247743   8.456   6.603   5.444
15956TIP3   OH247744   8.168   6.651   4.040
15956TIP3    H147745   8.115   6.635   3.962
15956TIP3    H247746   8.253   6.680   4.006
15957TIP3   OH247747   7.828   6.032   4.317
15957TIP3    H147748   7.804   6.041   4.409
15957TIP3    H247749   7.806   5.941   4.296
15958TIP3   OH247750   7.650   6.532   5.349
15958TIP3    H147751   7.602   6.527   5.432
15958TIP3    H247752   7.658   6.625   5.331
15959TIP3   OH247753   7.506   6.382   4.893
15959TIP3    H147754   7.418   6.349   4.911
15959TIP3    H247755   7.523   6.358   4.801
15960TIP3   OH247756   7.985   6.503   4.662
15960TIP3    H147757   7.947   6.545   4.585
15960TIP3    H247758   8.077   6.488   4.639
15961TIP3   OH247759   8.189   6.725   5.680
15961TIP3    H147760   8.168   6.656   5.742
15961TIP3    H247761   8.280   6.748   5.699
15962TIP3   OH247762   7.489   6.512   5.573
15962TIP3    H147763   7.519   6.564   5.648
15962TIP3    H247764   7.467   6.427   5.610
15963TIP3   OH247765   7.503   5.975   4.300
15963TIP3    H147766   7.503   5.991   4.395
15963TIP3    H247767   7.442   6.039   4.265
15964TIP3   OH247768   7.081   6.034   5.174
15964TIP3    H147769   7.156   6.071   5.221
15964TIP3    H247770   7.115   6.014   5.087
15965TIP3   OH247771   6.983   6.019   4.674
15965TIP3    H147772   7.027   6.052   4.596
15965TIP3    H247773   6.916   6.085   4.694
15966TIP3   OH247774   8.204   6.742   5.252
15966TIP3    H147775   8.245   6.681   5.191
15966TIP3    H247776   8.167   6.686   5.320
15967TIP3   OH247777   7.883   6.244   4.959
15967TIP3    H147778   7.802   6.219   5.003
15967TIP3    H247779   7.949   6.186   4.996
15968TIP3   OH247780   7.274   6.246   4.950
15968TIP3    H147781   7.188   6.251   4.909
15968TIP3    H247782   7.306   6.158   4.928
15969TIP3   OH247783   7.542   6.270   4.643
15969TIP3    H147784   7.637   6.278   4.639
15969TIP3    H247785   7.512   6.287   4.554
15970TIP3   OH247786   8.307   6.289   5.131
15970TIP3    H147787   8.287   6.303   5.223
15970TIP3    H247788   8.265   6.205   5.111
15971TIP3   OH247789   7.446   6.290   4.389
15971TIP3    H147790   7.380   6.248   4.333
15971TIP3    H247791   7.503   6.337   4.328
15972TIP3   OH247792   8.546   7.961   5.367
15972TIP3    H147793   8.536   7.985   5.275
15972TIP3    H247794   8.619   8.015   5.397
15973TIP3   OH247795   7.484   7.081   5.775
15973TIP3    H147796   7.566   7.100   5.820
15973TIP3    H247797   7.416   7.092   5.841
15974TIP3   OH247798   7.947   6.516   4.965
15974TIP3    H147799   7.925   6.424   4.952
15974TIP3    H247800   7.956   6.526   5.060
15975TIP3   OH247801   7.433   6.007   4.932
15975TIP3    H147802   7.406   5.931   4.983
15975TIP3    H247803   7.460   5.971   4.848
15976TIP3   OH247804   7.912   6.440   5.312
15976TIP3    H147805   7.827   6.483   5.320
15976TIP3    H247806   7.973   6.501   5.353
15977TIP3   OH247807   7.648   6.806   4.407
15977TIP3    H147808   7.575   6.750   4.380
15977TIP3    H247809   7.622   6.840   4.492
15978TIP3   OH247810   8.555   7.063   5.034
15978TIP3    H147811   8.595   7.110   4.960
15978TIP3    H247812   8.480   7.018   4.996
15979TIP3   OH247813   8.094   6.101   4.300
15979TIP3    H147814   7.999   6.091   4.301
15979TIP3    H247815   8.109   6.193   4.320
15980TIP3   OH247816   8.059   7.146   5.457
15980TIP3    H147817   8.109   7.136   5.538
15980TIP3    H247818   8.022   7.235   5.463
15981TIP3   OH247819   8.173   6.349   4.399
15981TIP3    H147820   8.269   6.350   4.399
15981TIP3    H247821   8.148   6.432   4.359
15982TIP3   OH247822   7.364   6.841   5.151
15982TIP3    H147823   7.405   6.779   5.091
15982TIP3    H247824   7.381   6.804   5.238
15983TIP3   OH247825   7.815   6.970   4.270
15983TIP3    H147826   7.770   7.054   4.268
15983TIP3    H247827   7.754   6.911   4.314
15984TIP3   OH247828   7.225   6.747   5.711
15984TIP3    H147829   7.231   6.717   5.801
15984TIP3    H247830   7.151   6.699   5.673
15985TIP3   OH247831   7.961   6.880   5.725
15985TIP3    H147832   7.891   6.822   5.696
15985TIP3    H247833   8.041   6.838   5.694
15986TIP3   OH247834   8.209   7.435   5.333
15986TIP3    H147835   8.114   7.422   5.336
15986TIP3    H247836   8.231   7.470   5.420
15987TIP3   OH247837   8.605   6.474   4.193
15987TIP3    H147838   8.550   6.429   4.130
15987TIP3    H247839   8.606   6.565   4.163
15988TIP3   OH247840   8.842   7.342   5.303
15988TIP3    H147841   8.748   7.332   5.293
15988TIP3    H247842   8.879   7.312   5.220
15989TIP3   OH247843   8.365   7.274   4.151
15989TIP3    H147844   8.318   7.203   4.195
15989TIP3    H247845   8.376   7.242   4.061
15990TIP3   OH247846   8.336   6.942   4.919
15990TIP3    H147847   8.250   6.953   4.962
15990TIP3    H247848   8.330   6.856   4.877
15991TIP3   OH247849   7.472   7.146   4.741
15991TIP3    H147850   7.473   7.222   4.682
15991TIP3    H247851   7.386   7.149   4.782
15992TIP3   OH247852   7.026   6.436   4.453
15992TIP3    H147853   7.068   6.520   4.472
15992TIP3    H247854   6.945   6.437   4.504
15993TIP3   OH247855   7.547   6.900   4.639
15993TIP3    H147856   7.530   6.987   4.674
15993TIP3    H247857   7.503   6.840   4.699
15994TIP3   OH247858   7.753   7.481   5.193
15994TIP3    H147859   7.786   7.557   5.144
15994TIP3    H247860   7.828   7.451   5.243
15995TIP3   OH247861   7.396   7.376   4.595
15995TIP3    H147862   7.306   7.385   4.627
15995TIP3    H247863   7.432   7.465   4.599
15996TIP3   OH247864   8.105   7.130   5.187
15996TIP3    H147865   8.074   7.128   5.278
15996TIP3    H247866   8.198   7.108   5.193
15997TIP3   OH247867   8.113   7.024   4.052
15997TIP3    H147868   8.148   6.998   4.138
15997TIP3    H247869   8.029   6.979   4.046
15998TIP3   OH247870   8.362   7.619   5.181
15998TIP3    H147871   8.301   7.558   5.224
15998TIP3    H247872   8.308   7.663   5.116
15999TIP3   OH247873   8.401   7.491   3.835
15999TIP3    H147874   8.399   7.540   3.753
15999TIP3    H247875   8.336   7.535   3.890
16000TIP3   OH247876   7.434   6.261   5.694
16000TIP3    H147877   7.340   6.274   5.698
16000TIP3    H247878   7.452   6.193   5.759
16001TIP3   OH247879   8.264   6.960   4.288
16001TIP3    H147880   8.245   6.888   4.349
16001TIP3    H247881   8.357   6.949   4.267
16002TIP3   OH247882   7.181   7.382   5.358
16002TIP3    H147883   7.237   7.327   5.413
16002TIP3    H247884   7.196   7.471   5.390
16003TIP3   OH247885   7.451   6.985   4.047
16003TIP3    H147886   7.460   6.894   4.020
16003TIP3    H247887   7.434   6.980   4.141
16004TIP3   OH247888   7.392   7.001   4.319
16004TIP3    H147889   7.460   6.974   4.379
16004TIP3    H247890   7.390   7.097   4.326
16005TIP3   OH247891   7.111   6.692   4.529
16005TIP3    H147892   7.047   6.742   4.579
16005TIP3    H247893   7.134   6.749   4.455
16006TIP3   OH247894   8.273   6.336   5.405
16006TIP3    H147895   8.358   6.375   5.428
16006TIP3    H247896   8.268   6.257   5.458
16007TIP3   OH247897   8.169   6.076   4.565
16007TIP3    H147898   8.142   6.062   4.474
16007TIP3    H247899   8.192   6.169   4.569
16008TIP3   OH247900   7.668   7.199   4.269
16008TIP3    H147901   7.580   7.217   4.302
16008TIP3    H247902   7.684   7.268   4.204
16009TIP3   OH247903   7.822   6.277   4.692
16009TIP3    H147904   7.876   6.353   4.669
16009TIP3    H247905   7.839   6.262   4.785
16010TIP3   OH247906   8.121   6.570   5.447
16010TIP3    H147907   8.147   6.608   5.531
16010TIP3    H247908   8.169   6.488   5.442
16011TIP3   OH247909   8.005   5.965   4.765
16011TIP3    H147910   8.026   6.019   4.840
16011TIP3    H247911   8.063   5.996   4.695
16012TIP3   OH247912   7.412   7.273   4.339
16012TIP3    H147913   7.392   7.343   4.277
16012TIP3    H247914   7.402   7.314   4.425
16013TIP3   OH247915   7.499   5.998   4.583
16013TIP3    H147916   7.489   6.089   4.609
16013TIP3    H247917   7.593   5.982   4.586
16014TIP3   OH247918   8.737   6.453   5.445
16014TIP3    H147919   8.643   6.466   5.463
16014TIP3    H247920   8.739   6.401   5.365
16015TIP3   OH247921   7.148   6.867   4.314
16015TIP3    H147922   7.220   6.930   4.322
16015TIP3    H247923   7.177   6.805   4.247
16016TIP3   OH247924   7.048   6.156   4.448
16016TIP3    H147925   7.057   6.252   4.449
16016TIP3    H247926   6.996   6.139   4.370
16017TIP3   OH247927   8.413   7.588   4.700
16017TIP3    H147928   8.376   7.577   4.613
16017TIP3    H247929   8.369   7.664   4.736
16018TIP3   OH247930   7.451   5.883   5.321
16018TIP3    H147931   7.422   5.850   5.236
16018TIP3    H247932   7.441   5.808   5.380
16019TIP3   OH247933   6.980   7.136   4.718
16019TIP3    H147934   6.942   7.176   4.796
16019TIP3    H247935   6.935   7.180   4.645
16020TIP3   OH247936   7.183   7.680   5.775
16020TIP3    H147937   7.265   7.686   5.826
16020TIP3    H247938   7.173   7.587   5.757
16021TIP3   OH247939   7.644   7.579   5.824
16021TIP3    H147940   7.737   7.557   5.829
16021TIP3    H247941   7.611   7.527   5.751
16022TIP3   OH247942   7.610   7.180   3.935
16022TIP3    H147943   7.561   7.112   3.980
16022TIP3    H247944   7.683   7.134   3.893
16023TIP3   OH247945   8.265   7.524   5.586
16023TIP3    H147946   8.285   7.457   5.651
16023TIP3    H247947   8.335   7.588   5.596
16024TIP3   OH247948   8.045   7.222   3.866
16024TIP3    H147949   8.083   7.159   3.928
16024TIP3    H247950   8.100   7.215   3.788
16025TIP3   OH247951   7.279   7.079   5.965
16025TIP3    H147952   7.299   6.986   5.973
16025TIP3    H247953   7.193   7.081   5.923
16026TIP3   OH247954   7.265   6.681   4.153
16026TIP3    H147955   7.318   6.657   4.229
16026TIP3    H247956   7.330   6.695   4.083
16027TIP3   OH247957   7.899   7.156   5.740
16027TIP3    H147958   7.855   7.179   5.659
16027TIP3    H247959   7.933   7.068   5.726
16028TIP3   OH247960   7.861   6.908   4.005
16028TIP3    H147961   7.836   6.921   4.096
16028TIP3    H247962   7.841   6.816   3.987
16029TIP3   OH247963   8.369   7.201   5.344
16029TIP3    H147964   8.448   7.234   5.302
16029TIP3    H247965   8.307   7.275   5.341
16030TIP3   OH247966   7.404   6.827   5.971
16030TIP3    H147967   7.486   6.817   5.923
16030TIP3    H247968   7.431   6.844   6.061
16031TIP3   OH247969   7.444   6.628   4.358
16031TIP3    H147970   7.421   6.601   4.447
16031TIP3    H247971   7.496   6.556   4.323
16032TIP3   OH247972   7.739   6.709   5.632
16032TIP3    H147973   7.657   6.758   5.633
16032TIP3    H247974   7.778   6.729   5.546
16033TIP3   OH247975   7.599   6.443   4.221
16033TIP3    H147976   7.567   6.447   4.131
16033TIP3    H247977   7.694   6.448   4.213
16034TIP3   OH247978   8.258   7.084   5.706
16034TIP3    H147979   8.326   7.047   5.649
16034TIP3    H247980   8.257   7.026   5.783
16035TIP3   OH247981   8.387   6.733   3.888
16035TIP3    H147982   8.364   6.688   3.807
16035TIP3    H247983   8.361   6.824   3.873
16036TIP3   OH247984   7.858   6.481   5.737
16036TIP3    H147985   7.863   6.410   5.674
16036TIP3    H247986   7.820   6.554   5.688
16037TIP3   OH247987   7.870   6.281   5.539
16037TIP3    H147988   7.898   6.319   5.456
16037TIP3    H247989   7.781   6.248   5.522
16038TIP3   OH247990   7.859   6.777   5.400
16038TIP3    H147991   7.951   6.798   5.381
16038TIP3    H247992   7.809   6.845   5.356
16039TIP3   OH247993   8.458   6.764   5.776
16039TIP3    H147994   8.459   6.668   5.769
16039TIP3    H247995   8.548   6.790   5.757
16040TIP3   OH247996   8.487   7.030   5.523
16040TIP3    H147997   8.436   7.089   5.467
16040TIP3    H247998   8.578   7.042   5.493
16041TIP3   OH247999   7.743   6.553   5.982
16041TIP3    H148000   7.679   6.484   5.999
16041TIP3    H248001   7.775   6.535   5.894
16042TIP3   OH248002   7.990   6.051   5.645
16042TIP3    H148003   7.949   6.131   5.610
16042TIP3    H248004   7.925   5.983   5.630
16043TIP3   OH248005   8.117   6.512   5.839
16043TIP3    H148006   8.106   6.497   5.933
16043TIP3    H248007   8.031   6.493   5.801
16044TIP3   OH248008   8.381   6.499   5.734
16044TIP3    H148009   8.299   6.481   5.779
16044TIP3    H248010   8.447   6.454   5.786
16045TIP3   OH248011   8.602   6.418   5.875
16045TIP3    H148012   8.616   6.324   5.880
16045TIP3    H248013   8.599   6.447   5.967
16046TIP3   OH248014   7.572   6.341   6.048
16046TIP3    H148015   7.578   6.255   6.006
16046TIP3    H248016   7.613   6.328   6.134
16047TIP3   OH248017   8.061   6.018   5.909
16047TIP3    H148018   8.128   5.951   5.903
16047TIP3    H248019   8.031   6.030   5.818
16048TIP3   OH248020   8.154   6.231   6.056
16048TIP3    H148021   8.126   6.158   6.001
16048TIP3    H248022   8.081   6.292   6.053
16049TIP3   OH248023   7.410   7.474   4.150
16049TIP3    H148024   7.499   7.457   4.119
16049TIP3    H248025   7.370   7.525   4.080
16050TIP3   OH248026   6.875   6.870   4.337
16050TIP3    H148027   6.969   6.881   4.330
16050TIP3    H248028   6.857   6.786   4.295
16051TIP3   OH248029   6.768   7.451   4.804
16051TIP3    H148030   6.707   7.397   4.754
16051TIP3    H248031   6.817   7.388   4.857
16052TIP3   OH248032   6.922   7.277   4.961
16052TIP3    H148033   6.913   7.210   5.029
16052TIP3    H248034   6.975   7.345   5.002
16053TIP3   OH248035   8.672   7.732   4.734
16053TIP3    H148036   8.671   7.813   4.784
16053TIP3    H248037   8.745   7.743   4.672
16054TIP3   OH248038   8.665   7.722   5.056
16054TIP3    H148039   8.627   7.635   5.043
16054TIP3    H248040   8.737   7.709   5.117
16055TIP3   OH248041   8.740   7.424   5.620
16055TIP3    H148042   8.669   7.435   5.683
16055TIP3    H248043   8.785   7.509   5.620
16056TIP3   OH248044   8.538   6.933   4.246
16056TIP3    H148045   8.598   6.998   4.209
16056TIP3    H248046   8.589   6.893   4.317
16057TIP3   OH248047   8.680   6.800   4.447
16057TIP3    H148048   8.627   6.766   4.519
16057TIP3    H248049   8.757   6.836   4.490
16058TIP3   OH248050   8.732   7.199   4.871
16058TIP3    H148051   8.782   7.126   4.834
16058TIP3    H248052   8.740   7.269   4.807
16059TIP3   OH248053   8.533   7.482   5.016
16059TIP3    H148054   8.474   7.525   5.077
16059TIP3    H248055   8.478   7.422   4.966
16060TIP3   OH248056   8.588   6.722   4.074
16060TIP3    H148057   8.521   6.718   4.006
16060TIP3    H248058   8.562   6.794   4.130
16061TIP3   OH248059   8.456   6.371   3.992
16061TIP3    H148060   8.405   6.404   3.917
16061TIP3    H248061   8.437   6.277   3.993
16062TIP3   OH248062   7.116   6.695   5.347
16062TIP3    H148063   7.105   6.671   5.256
16062TIP3    H248064   7.210   6.712   5.356
16063TIP3   OH248065   8.747   7.073   5.430
16063TIP3    H148066   8.813   7.005   5.416
16063TIP3    H248067   8.771   7.142   5.368
16064TIP3   OH248068   8.926   6.865   5.428
16064TIP3    H148069   8.849   6.820   5.463
16064TIP3    H248070   9.000   6.808   5.449
16065TIP3   OH248071   8.398   6.106   4.002
16065TIP3    H148072   8.459   6.073   4.068
16065TIP3    H248073   8.317   6.058   4.017
16066TIP3   OH248074   8.448   6.348   4.399
16066TIP3    H148075   8.502   6.279   4.437
16066TIP3    H248076   8.507   6.394   4.339
16067TIP3   OH248077   8.649   6.514   4.995
16067TIP3    H148078   8.721   6.548   4.941
16067TIP3    H248079   8.647   6.571   5.072
16068TIP3   OH248080   8.693   6.697   5.209
16068TIP3    H148081   8.612   6.723   5.253
16068TIP3    H248082   8.724   6.775   5.164
16069TIP3   OH248083   7.303   6.388   5.986
16069TIP3    H148084   7.397   6.387   6.004
16069TIP3    H248085   7.272   6.303   6.017
16070TIP3   OH248086   9.152   6.294   5.729
16070TIP3    H148087   9.212   6.234   5.686
16070TIP3    H248088   9.111   6.344   5.658
16071TIP3   OH248089   8.592   6.128   4.503
16071TIP3    H148090   8.633   6.116   4.588
16071TIP3    H248091   8.526   6.059   4.498
16072TIP3   OH248092   7.295   6.112   5.340
16072TIP3    H148093   7.347   6.032   5.343
16072TIP3    H248094   7.358   6.181   5.319
16073TIP3   OH248095   7.066   6.383   5.387
16073TIP3    H148096   7.124   6.358   5.315
16073TIP3    H248097   7.083   6.476   5.400
16074TIP3   OH248098   8.994   6.399   5.531
16074TIP3    H148099   8.904   6.432   5.529
16074TIP3    H248100   8.990   6.318   5.481
16075TIP3   OH248101   8.628   6.047   4.159
16075TIP3    H148102   8.667   5.987   4.095
16075TIP3    H248103   8.686   6.123   4.158
16076TIP3   OH248104   7.056   5.890   4.904
16076TIP3    H148105   6.969   5.878   4.943
16076TIP3    H248106   7.040   5.942   4.825
16077TIP3   OH248107   8.295   7.592   4.451
16077TIP3    H148108   8.317   7.566   4.362
16077TIP3    H248109   8.298   7.688   4.450
16078TIP3   OH248110   7.292   5.974   5.742
16078TIP3    H148111   7.234   5.937   5.807
16078TIP3    H248112   7.234   6.007   5.673
16079TIP3   OH248113   7.308   7.400   5.787
16079TIP3    H148114   7.214   7.379   5.782
16079TIP3    H248115   7.329   7.396   5.880
16080TIP3   OH248116   7.526   7.450   5.344
16080TIP3    H148117   7.475   7.524   5.312
16080TIP3    H248118   7.610   7.456   5.299
16081TIP3   OH248119   7.910   7.673   5.486
16081TIP3    H148120   7.951   7.669   5.572
16081TIP3    H248121   7.970   7.725   5.433
16082TIP3   OH248122   8.097   7.812   5.344
16082TIP3    H148123   8.152   7.763   5.284
16082TIP3    H248124   8.159   7.860   5.399
16083TIP3   OH248125   8.916   6.138   5.445
16083TIP3    H148126   8.826   6.120   5.418
16083TIP3    H248127   8.960   6.052   5.441
16084TIP3   OH248128   7.188   7.671   5.396
16084TIP3    H148129   7.097   7.690   5.371
16084TIP3    H248130   7.211   7.741   5.456
16085TIP3   OH248131   7.415   7.678   5.238
16085TIP3    H148132   7.331   7.680   5.284
16085TIP3    H248133   7.394   7.702   5.148
16086TIP3   OH248134   7.834   7.694   5.037
16086TIP3    H148135   7.758   7.705   4.979
16086TIP3    H248136   7.848   7.781   5.075
16087TIP3   OH248137   8.096   7.616   5.063
16087TIP3    H148138   8.003   7.638   5.053
16087TIP3    H248139   8.140   7.671   4.998
16088TIP3   OH248140   8.263   7.778   4.913
16088TIP3    H148141   8.296   7.866   4.930
16088TIP3    H248142   8.233   7.781   4.822
16089TIP3   OH248143   7.093   7.457   5.107
16089TIP3    H148144   7.123   7.435   5.195
16089TIP3    H248145   7.163   7.427   5.049
16090TIP3   OH248146   7.295   7.347   4.962
16090TIP3    H148147   7.309   7.264   5.007
16090TIP3    H248148   7.381   7.390   4.964
16091TIP3   OH248149   7.561   7.423   4.993
16091TIP3    H148150   7.587   7.332   4.983
16091TIP3    H248151   7.617   7.456   5.063
16092TIP3   OH248152   8.062   6.053   5.044
16092TIP3    H148153   8.036   5.998   5.118
16092TIP3    H248154   8.153   6.027   5.027
16093TIP3   OH248155   8.630   6.009   4.946
16093TIP3    H148156   8.682   6.033   4.870
16093TIP3    H248157   8.594   6.092   4.977
16094TIP3   OH248158   8.756   6.074   4.719
16094TIP3    H148159   8.828   6.018   4.692
16094TIP3    H248160   8.788   6.163   4.707
16095TIP3   OH248161   7.361   5.781   5.080
16095TIP3    H148162   7.272   5.746   5.090
16095TIP3    H248163   7.417   5.704   5.071
16096TIP3   OH248164   7.158   5.681   4.736
16096TIP3    H148165   7.190   5.731   4.661
16096TIP3    H248166   7.130   5.748   4.799
16097TIP3   OH248167   7.850   5.825   4.965
16097TIP3    H148168   7.897   5.871   4.896
16097TIP3    H248169   7.891   5.853   5.047
16098TIP3   OH248170   8.320   5.979   5.000
16098TIP3    H148171   8.397   5.989   4.945
16098TIP3    H248172   8.325   5.889   5.033
16099TIP3   OH248173   8.402   5.926   4.521
16099TIP3    H148174   8.321   5.974   4.539
16099TIP3    H248175   8.387   5.839   4.559
16100TIP3   OH248176   6.859   7.260   4.509
16100TIP3    H148177   6.776   7.225   4.476
16100TIP3    H248178   6.866   7.347   4.469
16101TIP3   OH248179   7.294   5.818   4.515
16101TIP3    H148180   7.353   5.746   4.493
16101TIP3    H248181   7.352   5.889   4.543
16102TIP3   OH248182   7.776   6.026   4.591
16102TIP3    H148183   7.835   5.969   4.639
16102TIP3    H248184   7.795   6.114   4.623
16103TIP3   OH248185   7.667   7.405   4.079
16103TIP3    H148186   7.749   7.436   4.040
16103TIP3    H248187   7.640   7.334   4.021
16104TIP3   OH248188   8.360   7.542   4.190
16104TIP3    H148189   8.359   7.448   4.175
16104TIP3    H248190   8.315   7.579   4.114
16105TIP3   OH248191   7.598   6.071   5.961
16105TIP3    H148192   7.565   6.004   6.020
16105TIP3    H248193   7.691   6.080   5.984
16106TIP3   OH248194   7.846   6.075   6.083
16106TIP3    H148195   7.922   6.050   6.030
16106TIP3    H248196   7.840   6.005   6.148
16107TIP3   OH248197   6.974   7.259   4.138
16107TIP3    H148198   6.981   7.280   4.231
16107TIP3    H248199   7.054   7.210   4.119
16108TIP3   OH248200   8.665   6.150   5.864
16108TIP3    H148201   8.684   6.123   5.953
16108TIP3    H248202   8.750   6.149   5.819
16109TIP3   OH248203   8.572   7.688   5.366
16109TIP3    H148204   8.501   7.661   5.308
16109TIP3    H248205   8.562   7.783   5.373
16110TIP3   OH248206   9.783   7.129   4.168
16110TIP3    H148207   9.805   7.210   4.123
16110TIP3    H248208   9.727   7.081   4.106
16111TIP3   OH248209   9.146   6.946   4.888
16111TIP3    H148210   9.184   6.896   4.960
16111TIP3    H248211   9.222   6.977   4.838
16112TIP3   OH248212   9.128   7.358   4.565
16112TIP3    H148213   9.116   7.263   4.572
16112TIP3    H248214   9.223   7.369   4.557
16113TIP3   OH248215   8.823   6.574   4.345
16113TIP3    H148216   8.778   6.654   4.374
16113TIP3    H248217   8.756   6.525   4.298
16114TIP3   OH248218   8.914   6.883   4.570
16114TIP3    H148219   8.962   6.803   4.594
16114TIP3    H248220   8.983   6.946   4.550
16115TIP3   OH248221   9.730   7.870   4.230
16115TIP3    H148222   9.735   7.775   4.220
16115TIP3    H248223   9.700   7.883   4.320
16116TIP3   OH248224   0.218   6.953   4.557
16116TIP3    H148225   0.301   6.907   4.571
16116TIP3    H248226   0.171   6.898   4.493
16117TIP3   OH248227   9.378   6.439   4.540
16117TIP3    H148228   9.358   6.511   4.480
16117TIP3    H248229   9.329   6.364   4.504
16118TIP3   OH248230   0.365   6.406   4.125
16118TIP3    H148231   0.391   6.364   4.207
16118TIP3    H248232   0.359   6.499   4.146
16119TIP3   OH248233   9.044   6.658   4.661
16119TIP3    H148234   9.125   6.634   4.707
16119TIP3    H248235   9.042   6.601   4.584
16120TIP3   OH248236   9.440   6.848   4.498
16120TIP3    H148237   9.527   6.814   4.520
16120TIP3    H248238   9.395   6.773   4.458
16121TIP3   OH248239   9.381   6.456   5.002
16121TIP3    H148240   9.333   6.499   4.931
16121TIP3    H248241   9.327   6.471   5.080
16122TIP3   OH248242   9.781   7.308   3.935
16122TIP3    H148243   9.721   7.279   3.866
16122TIP3    H248244   9.738   7.386   3.972
16123TIP3   OH248245   9.509   7.223   4.780
16123TIP3    H148246   9.445   7.291   4.802
16123TIP3    H248247   9.593   7.269   4.780
16124TIP3   OH248248   9.285   6.558   4.765
16124TIP3    H148249   9.340   6.634   4.783
16124TIP3    H248250   9.326   6.514   4.691
16125TIP3   OH248251   9.332   7.420   4.855
16125TIP3    H148252   9.324   7.512   4.827
16125TIP3    H248253   9.252   7.403   4.904
16126TIP3   OH248254   8.711   7.110   4.111
16126TIP3    H148255   8.680   7.118   4.021
16126TIP3    H248256   8.737   7.199   4.135
16127TIP3   OH248257   9.670   6.150   4.696
16127TIP3    H148258   9.668   6.065   4.740
16127TIP3    H248259   9.601   6.201   4.738
16128TIP3   OH248260   0.082   7.688   3.982
16128TIP3    H148261   0.163   7.645   4.012
16128TIP3    H248262   0.097   7.781   3.999
16129TIP3   OH248263   9.638   6.982   3.987
16129TIP3    H148264   9.559   7.019   3.948
16129TIP3    H248265   9.658   6.905   3.934
16130TIP3   OH248266   9.604   6.739   3.640
16130TIP3    H148267   9.637   6.739   3.729
16130TIP3    H248268   9.664   6.682   3.592
16131TIP3   OH248269   9.256   6.987   4.334
16131TIP3    H148270   9.221   6.927   4.268
16131TIP3    H248271   9.328   6.938   4.374
16132TIP3   OH248272   9.384   7.413   4.455
16132TIP3    H148273   9.344   7.407   4.368
16132TIP3    H248274   9.470   7.371   4.445
16133TIP3   OH248275   9.362   7.003   4.715
16133TIP3    H148276   9.398   6.963   4.636
16133TIP3    H248277   9.418   7.079   4.730
16134TIP3   OH248278   0.119   7.634   4.508
16134TIP3    H148279   0.110   7.728   4.492
16134TIP3    H248280   0.142   7.627   4.600
16135TIP3   OH248281   9.524   7.514   5.029
16135TIP3    H148282   9.468   7.577   5.074
16135TIP3    H248283   9.465   7.466   4.971
16136TIP3   OH248284   0.153   6.854   3.767
16136TIP3    H148285   0.166   6.931   3.823
16136TIP3    H248286   0.125   6.890   3.683
16137TIP3   OH248287   9.289   7.075   5.164
16137TIP3    H148288   9.294   7.168   5.186
16137TIP3    H248289   9.196   7.054   5.168
16138TIP3   OH248290   9.647   7.546   4.009
16138TIP3    H148291   9.726   7.600   4.005
16138TIP3    H248292   9.582   7.595   3.959
16139TIP3   OH248293   9.334   7.689   5.118
16139TIP3    H148294   9.308   7.702   5.027
16139TIP3    H248295   9.251   7.673   5.164
16140TIP3   OH248296   9.140   6.823   4.135
16140TIP3    H148297   9.063   6.870   4.104
16140TIP3    H248298   9.111   6.732   4.142
16141TIP3   OH248299   8.930   7.232   5.070
16141TIP3    H148300   8.862   7.211   5.006
16141TIP3    H248301   8.966   7.147   5.096
16142TIP3   OH248302   8.765   7.456   4.726
16142TIP3    H148303   8.811   7.424   4.649
16142TIP3    H248304   8.833   7.501   4.777
16143TIP3   OH248305   9.726   7.634   4.887
16143TIP3    H148306   9.732   7.726   4.910
16143TIP3    H248307   9.652   7.601   4.938
16144TIP3   OH248308   9.506   7.766   3.836
16144TIP3    H148309   9.462   7.745   3.753
16144TIP3    H248310   9.455   7.838   3.872
16145TIP3   OH248311   8.905   7.614   4.223
16145TIP3    H148312   8.962   7.605   4.300
16145TIP3    H248313   8.865   7.527   4.214
16146TIP3   OH248314   9.738   7.700   3.469
16146TIP3    H148315   9.815   7.643   3.460
16146TIP3    H248316   9.737   7.725   3.561
16147TIP3   OH248317   9.760   7.720   3.739
16147TIP3    H148318   9.673   7.738   3.774
16147TIP3    H248319   9.813   7.702   3.817
16148TIP3   OH248320   9.115   7.430   5.027
16148TIP3    H148321   9.168   7.427   5.107
16148TIP3    H248322   9.050   7.362   5.039
16149TIP3   OH248323   9.462   6.252   4.837
16149TIP3    H148324   9.378   6.211   4.815
16149TIP3    H248325   9.438   6.328   4.891
16150TIP3   OH248326   0.398   6.339   5.033
16150TIP3    H148327   0.459   6.265   5.030
16150TIP3    H248328   0.331   6.313   5.096
16151TIP3   OH248329   9.627   6.207   3.834
16151TIP3    H148330   9.616   6.234   3.925
16151TIP3    H248331   9.560   6.140   3.821
16152TIP3   OH248332   9.423   6.776   4.859
16152TIP3    H148333   9.373   6.781   4.941
16152TIP3    H248334   9.398   6.856   4.812
16153TIP3   OH248335   9.300   6.646   4.377
16153TIP3    H148336   9.211   6.617   4.400
16153TIP3    H248337   9.313   6.613   4.288
16154TIP3   OH248338   9.729   6.782   4.167
16154TIP3    H148339   9.701   6.874   4.169
16154TIP3    H248340   9.744   6.764   4.074
16155TIP3   OH248341   0.155   7.010   5.202
16155TIP3    H148342   0.142   6.934   5.259
16155TIP3    H248343   0.245   7.037   5.218
16156TIP3   OH248344   0.083   6.774   4.402
16156TIP3    H148345   0.048   6.810   4.320
16156TIP3    H248346   0.099   6.682   4.384
16157TIP3   OH248347   9.269   6.782   5.086
16157TIP3    H148348   9.276   6.847   5.156
16157TIP3    H248349   9.253   6.699   5.131
16158TIP3   OH248350   9.314   6.265   3.791
16158TIP3    H148351   9.307   6.267   3.887
16158TIP3    H248352   9.235   6.309   3.760
16159TIP3   OH248353   8.866   6.308   4.650
16159TIP3    H148354   8.945   6.340   4.693
16159TIP3    H248355   8.895   6.286   4.561
16160TIP3   OH248356   8.792   6.273   4.162
16160TIP3    H148357   8.846   6.305   4.089
16160TIP3    H248358   8.727   6.341   4.175
16161TIP3   OH248359   0.080   7.083   4.762
16161TIP3    H148360   0.122   7.047   4.684
16161TIP3    H248361   0.040   7.008   4.805
16162TIP3   OH248362   9.639   6.471   4.470
16162TIP3    H148363   9.556   6.447   4.511
16162TIP3    H248364   9.669   6.548   4.519
16163TIP3   OH248365   9.072   6.506   4.435
16163TIP3    H148366   8.986   6.516   4.395
16163TIP3    H248367   9.099   6.417   4.412
16164TIP3   OH248368   9.317   6.520   4.134
16164TIP3    H148369   9.411   6.536   4.123
16164TIP3    H248370   9.279   6.538   4.048
16165TIP3   OH248371   0.145   6.520   4.665
16165TIP3    H148372   0.216   6.489   4.722
16165TIP3    H248373   0.107   6.440   4.629
16166TIP3   OH248374   9.204   6.553   3.890
16166TIP3    H148375   9.138   6.501   3.844
16166TIP3    H248376   9.254   6.595   3.821
16167TIP3   OH248377   9.279   7.340   5.258
16167TIP3    H148378   9.359   7.358   5.307
16167TIP3    H248379   9.209   7.347   5.323
16168TIP3   OH248380   9.677   6.728   4.580
16168TIP3    H148381   9.756   6.754   4.532
16168TIP3    H248382   9.708   6.708   4.668
16169TIP3   OH248383   9.215   6.259   4.404
16169TIP3    H148384   9.188   6.185   4.457
16169TIP3    H248385   9.233   6.222   4.318
16170TIP3   OH248386   9.676   6.685   4.857
16170TIP3    H148387   9.586   6.717   4.850
16170TIP3    H248388   9.723   6.755   4.902
16171TIP3   OH248389   9.400   7.090   3.893
16171TIP3    H148390   9.336   7.021   3.878
16171TIP3    H248391   9.386   7.117   3.984
16172TIP3   OH248392   0.258   6.405   3.787
16172TIP3    H148393   0.234   6.337   3.851
16172TIP3    H248394   0.269   6.484   3.839
16173TIP3   OH248395   0.046   7.365   4.954
16173TIP3    H148396   0.074   7.364   5.045
16173TIP3    H248397   0.008   7.452   4.942
16174TIP3   OH248398   0.255   6.647   3.910
16174TIP3    H148399   0.341   6.667   3.947
16174TIP3    H248400   0.226   6.729   3.870
16175TIP3   OH248401   9.131   7.074   4.562
16175TIP3    H148402   9.168   7.053   4.477
16175TIP3    H248403   9.199   7.049   4.625
16176TIP3   OH248404   9.589   7.225   3.750
16176TIP3    H148405   9.549   7.312   3.746
16176TIP3    H248406   9.525   7.172   3.797
16177TIP3   OH248407   9.023   6.999   5.198
16177TIP3    H148408   9.023   6.974   5.290
16177TIP3    H248409   8.949   6.952   5.160
16178TIP3   OH248410   9.723   7.152   5.206
16178TIP3    H148411   9.658   7.089   5.173
16178TIP3    H248412   9.808   7.112   5.187
16179TIP3   OH248413   0.180   7.623   4.782
16179TIP3    H148414   0.092   7.634   4.816
16179TIP3    H248415   0.237   7.662   4.849
16180TIP3   OH248416   9.242   7.410   4.220
16180TIP3    H148417   9.240   7.489   4.166
16180TIP3    H248418   9.151   7.383   4.228
16181TIP3   OH248419   8.830   6.700   3.945
16181TIP3    H148420   8.872   6.784   3.965
16181TIP3    H248421   8.746   6.703   3.991
16182TIP3   OH248422   9.348   7.167   4.144
16182TIP3    H148423   9.325   7.256   4.170
16182TIP3    H248424   9.318   7.112   4.216
16183TIP3   OH248425   9.548   7.733   4.673
16183TIP3    H148426   9.586   7.799   4.615
16183TIP3    H248427   9.623   7.697   4.720
16184TIP3   OH248428   9.153   7.633   4.082
16184TIP3    H148429   9.064   7.648   4.114
16184TIP3    H248430   9.194   7.719   4.086
16185TIP3   OH248431   0.172   7.371   4.675
16185TIP3    H148432   0.178   7.461   4.706
16185TIP3    H248433   0.219   7.370   4.593
16186TIP3   OH248434   9.227   6.529   5.215
16186TIP3    H148435   9.132   6.534   5.217
16186TIP3    H248436   9.250   6.469   5.285
16187TIP3   OH248437   8.962   7.608   4.854
16187TIP3    H148438   9.021   7.558   4.910
16187TIP3    H248439   8.969   7.698   4.887
16188TIP3   OH248440   9.252   7.260   3.536
16188TIP3    H148441   9.252   7.168   3.507
16188TIP3    H248442   9.231   7.255   3.630
16189TIP3   OH248443   9.185   7.261   3.804
16189TIP3    H148444   9.265   7.227   3.846
16189TIP3    H248445   9.189   7.355   3.818
16190TIP3   OH248446   8.923   6.950   4.024
16190TIP3    H148447   8.851   6.994   4.072
16190TIP3    H248448   8.942   7.009   3.951
16191TIP3   OH248449   0.313   6.614   4.921
16191TIP3    H148450   0.314   6.666   5.002
16191TIP3    H248451   0.251   6.544   4.939
16192TIP3   OH248452   0.038   6.499   3.987
16192TIP3    H148453   0.065   6.408   3.998
16192TIP3    H248454   0.119   6.547   3.975
16193TIP3   OH248455   9.457   7.459   3.751
16193TIP3    H148456   9.372   7.482   3.788
16193TIP3    H248457   9.476   7.530   3.689
16194TIP3   OH248458   9.589   6.550   4.206
16194TIP3    H148459   9.630   6.636   4.197
16194TIP3    H248460   9.603   6.526   4.298
16195TIP3   OH248461   0.014   6.886   4.990
16195TIP3    H148462   0.065   6.926   5.060
16195TIP3    H248463   0.079   6.848   4.931
16196TIP3   OH248464   9.755   6.285   4.307
16196TIP3    H148465   9.711   6.339   4.373
16196TIP3    H248466   9.834   6.334   4.285
16197TIP3   OH248467   9.206   7.532   3.832
16197TIP3    H148468   9.189   7.602   3.769
16197TIP3    H248469   9.185   7.571   3.917
16198TIP3   OH248470   9.296   6.248   4.073
16198TIP3    H148471   9.288   6.338   4.105
16198TIP3    H248472   9.389   6.227   4.083
16199TIP3   OH248473   8.942   7.129   3.810
16199TIP3    H148474   9.015   7.191   3.813
16199TIP3    H248475   8.967   7.065   3.744
16200TIP3   OH248476   8.871   6.428   3.951
16200TIP3    H148477   8.869   6.523   3.952
16200TIP3    H248478   8.816   6.404   3.876
16201TIP3   OH248479   9.221   6.127   4.808
16201TIP3    H148480   9.200   6.099   4.719
16201TIP3    H248481   9.210   6.049   4.861
16202TIP3   OH248482   8.735   7.388   4.183
16202TIP3    H148483   8.651   7.369   4.225
16202TIP3    H248484   8.712   7.430   4.101
16203TIP3   OH248485   8.951   7.929   5.259
16203TIP3    H148486   9.036   7.936   5.303
16203TIP3    H248487   8.931   7.835   5.258
16204TIP3   OH248488   9.432   7.864   5.312
16204TIP3    H148489   9.503   7.915   5.272
16204TIP3    H248490   9.407   7.800   5.245
16205TIP3   OH248491   9.418   7.442   3.417
16205TIP3    H148492   9.366   7.378   3.464
16205TIP3    H248493   9.485   7.391   3.372
16206TIP3   OH248494   0.310   7.719   5.011
16206TIP3    H148495   0.301   7.672   5.094
16206TIP3    H248496   0.404   7.728   4.999
16207TIP3   OH248497   9.078   7.333   5.451
16207TIP3    H148498   9.099   7.240   5.460
16207TIP3    H248499   8.989   7.333   5.415
16208TIP3   OH248500   9.053   6.937   3.653
16208TIP3    H148501   9.105   6.911   3.729
16208TIP3    H248502   9.116   6.958   3.585
16209TIP3   OH248503   9.686   7.423   5.226
16209TIP3    H148504   9.633   7.445   5.150
16209TIP3    H248505   9.707   7.330   5.215
16210TIP3   OH248506   9.636   7.147   3.492
16210TIP3    H148507   9.620   7.174   3.582
16210TIP3    H248508   9.580   7.070   3.480
16211TIP3   OH248509   9.195   7.078   5.456
16211TIP3    H148510   9.275   7.055   5.409
16211TIP3    H248511   9.224   7.095   5.546
16212TIP3   OH248512   9.225   6.881   3.869
16212TIP3    H148513   9.205   6.847   3.956
16212TIP3    H248514   9.266   6.808   3.823
16213TIP3   OH248515   9.537   6.974   5.100
16213TIP3    H148516   9.451   7.009   5.122
16213TIP3    H248517   9.545   6.986   5.006
16214TIP3   OH248518   9.340   6.695   3.703
16214TIP3    H148519   9.298   6.703   3.617
16214TIP3    H248520   9.434   6.702   3.685
16215TIP3   OH248521   0.204   7.328   5.208
16215TIP3    H148522   0.291   7.315   5.171
16215TIP3    H248523   0.206   7.279   5.290
16216TIP3   OH248524   9.643   6.748   5.231
16216TIP3    H148525   9.640   6.669   5.177
16216TIP3    H248526   9.618   6.818   5.171
16217TIP3   OH248527   9.642   6.511   5.062
16217TIP3    H148528   9.665   6.561   4.984
16217TIP3    H248529   9.550   6.487   5.049
16218TIP3   OH248530   0.495   7.010   5.236
16218TIP3    H148531   0.508   6.958   5.157
16218TIP3    H248532   0.582   7.015   5.276
16219TIP3   OH248533   9.493   6.842   5.449
16219TIP3    H148534   9.441   6.767   5.475
16219TIP3    H248535   9.538   6.814   5.369
16220TIP3   OH248536   9.741   6.275   5.163
16220TIP3    H148537   9.702   6.360   5.143
16220TIP3    H248538   9.679   6.211   5.129
16221TIP3   OH248539   0.101   6.773   5.334
16221TIP3    H148540   0.091   6.776   5.429
16221TIP3    H248541   0.012   6.758   5.301
16222TIP3   OH248542   0.319   6.774   5.143
16222TIP3    H148543   0.250   6.762   5.209
16222TIP3    H248544   0.389   6.714   5.171
16223TIP3   OH248545   0.684   6.610   5.430
16223TIP3    H148546   0.650   6.521   5.434
16223TIP3    H248547   0.609   6.665   5.408
16224TIP3   OH248548   9.357   6.623   5.545
16224TIP3    H148549   9.356   6.535   5.508
16224TIP3    H248550   9.392   6.612   5.633
16225TIP3   OH248551   9.772   6.264   5.434
16225TIP3    H148552   9.777   6.175   5.470
16225TIP3    H248553   9.755   6.251   5.341
16226TIP3   OH248554   0.073   6.498   5.526
16226TIP3    H148555   0.035   6.417   5.492
16226TIP3    H248556   0.001   6.561   5.525
16227TIP3   OH248557   9.209   7.736   3.647
16227TIP3    H148558   9.296   7.721   3.611
16227TIP3    H248559   9.161   7.781   3.578
16228TIP3   OH248560   8.670   7.121   3.831
16228TIP3    H148561   8.764   7.135   3.822
16228TIP3    H248562   8.654   7.038   3.785
16229TIP3   OH248563   8.579   7.687   4.262
16229TIP3    H148564   8.501   7.641   4.230
16229TIP3    H248565   8.653   7.640   4.225
16230TIP3   OH248566   8.886   6.979   4.824
16230TIP3    H148567   8.879   6.942   4.736
16230TIP3    H248568   8.979   6.974   4.845
16231TIP3   OH248569   9.091   6.652   5.474
16231TIP3    H148570   9.185   6.653   5.495
16231TIP3    H248571   9.061   6.567   5.506
16232TIP3   OH248572   9.084   6.368   4.808
16232TIP3    H148573   9.130   6.285   4.818
16232TIP3    H248574   9.153   6.433   4.797
16233TIP3   OH248575   8.877   6.630   4.888
16233TIP3    H148576   8.917   6.622   4.802
16233TIP3    H248577   8.925   6.701   4.931
16234TIP3   OH248578   8.855   6.163   4.402
16234TIP3    H148579   8.767   6.144   4.434
16234TIP3    H248580   8.841   6.207   4.318
16235TIP3   OH248581   9.083   6.246   5.249
16235TIP3    H148582   9.018   6.206   5.307
16235TIP3    H248583   9.032   6.283   5.177
16236TIP3   OH248584   9.108   7.647   5.276
16236TIP3    H148585   9.014   7.632   5.269
16236TIP3    H248586   9.125   7.650   5.370
16237TIP3   OH248587   9.325   7.696   4.832
16237TIP3    H148588   9.269   7.765   4.797
16237TIP3    H248589   9.409   7.708   4.788
16238TIP3   OH248590   9.766   7.899   4.936
16238TIP3    H148591   9.806   7.897   5.022
16238TIP3    H248592   9.827   7.949   4.882
16239TIP3   OH248593   0.141   8.064   4.799
16239TIP3    H148594   0.220   8.036   4.753
16239TIP3    H248595   0.169   8.139   4.852
16240TIP3   OH248596   8.967   7.897   4.875
16240TIP3    H148597   8.878   7.920   4.851
16240TIP3    H248598   8.995   7.965   4.936
16241TIP3   OH248599   9.196   7.907   4.719
16241TIP3    H148600   9.113   7.911   4.767
16241TIP3    H248601   9.175   7.943   4.633
16242TIP3   OH248602   9.612   7.928   4.475
16242TIP3    H148603   9.523   7.942   4.442
16242TIP3    H248604   9.627   8.002   4.535
16243TIP3   OH248605   0.092   7.904   4.521
16243TIP3    H148606   0.000   7.928   4.511
16243TIP3    H248607   0.129   7.972   4.578
16244TIP3   OH248608   8.909   7.734   4.598
16244TIP3    H148609   8.944   7.710   4.683
16244TIP3    H248610   8.966   7.690   4.535
16245TIP3   OH248611   9.080   7.596   4.439
16245TIP3    H148612   9.093   7.512   4.483
16245TIP3    H248613   9.166   7.639   4.444
16246TIP3   OH248614   9.345   7.686   4.483
16246TIP3    H148615   9.365   7.594   4.468
16246TIP3    H248616   9.402   7.711   4.556
16247TIP3   OH248617   0.085   6.266   4.574
16247TIP3    H148618   0.007   6.237   4.621
16247TIP3    H248619   0.097   6.201   4.504
16248TIP3   OH248620   9.152   6.040   4.557
16248TIP3    H148621   9.063   6.007   4.571
16248TIP3    H248622   9.205   5.962   4.540
16249TIP3   OH248623   9.005   5.975   4.254
16249TIP3    H148624   9.012   6.020   4.170
16249TIP3    H248625   8.957   6.037   4.310
16250TIP3   OH248626   9.600   6.082   4.438
16250TIP3    H148627   9.649   6.144   4.384
16250TIP3    H248628   9.618   6.109   4.528
16251TIP3   OH248629   8.641   7.525   3.972
16251TIP3    H148630   8.560   7.499   3.929
16251TIP3    H248631   8.659   7.613   3.938
16252TIP3   OH248632   9.062   6.109   4.007
16252TIP3    H148633   9.094   6.039   3.950
16252TIP3    H248634   9.141   6.157   4.034
16253TIP3   OH248635   9.575   6.302   4.087
16253TIP3    H148636   9.627   6.252   4.150
16253TIP3    H248637   9.581   6.392   4.116
16254TIP3   OH248638   9.464   7.666   3.565
16254TIP3    H148639   9.542   7.704   3.524
16254TIP3    H248640   9.440   7.594   3.507
16255TIP3   OH248641   9.346   6.364   5.453
16255TIP3    H148642   9.309   6.276   5.450
16255TIP3    H248643   9.429   6.353   5.500
16256TIP3   OH248644   9.572   6.338   5.610
16256TIP3    H148645   9.647   6.310   5.557
16256TIP3    H248646   9.559   6.267   5.673
16257TIP3   OH248647   8.770   7.511   3.622
16257TIP3    H148648   8.777   7.535   3.715
16257TIP3    H248649   8.851   7.463   3.604
16258TIP3   OH248650   0.804   7.873   6.360
16258TIP3    H148651   0.814   7.819   6.437
16258TIP3    H248652   0.861   7.948   6.375
16259TIP3   OH248653   1.364   7.139   6.756
16259TIP3    H148654   1.384   7.222   6.800
16259TIP3    H248655   1.402   7.148   6.669
16260TIP3   OH248656   0.777   7.338   6.800
16260TIP3    H148657   0.809   7.251   6.823
16260TIP3    H248658   0.728   7.325   6.719
16261TIP3   OH248659   0.798   7.089   6.388
16261TIP3    H148660   0.866   7.073   6.453
16261TIP3    H248661   0.846   7.119   6.310
16262TIP3   OH248662   1.427   7.354   6.921
16262TIP3    H148663   1.339   7.392   6.914
16262TIP3    H248664   1.468   7.400   6.994
16263TIP3   OH248665   0.982   7.082   6.590
16263TIP3    H148666   0.933   7.081   6.672
16263TIP3    H248667   1.039   7.159   6.596
16264TIP3   OH248668   1.165   7.037   6.927
16264TIP3    H148669   1.080   7.060   6.889
16264TIP3    H248670   1.228   7.063   6.860
16265TIP3   OH248671   0.706   7.955   6.105
16265TIP3    H148672   0.709   7.875   6.053
16265TIP3    H248673   0.731   7.927   6.193
16266TIP3   OH248674   1.042   8.077   6.907
16266TIP3    H148675   1.029   7.999   6.853
16266TIP3    H248676   1.017   8.150   6.850
16267TIP3   OH248677   1.244   7.699   6.766
16267TIP3    H148678   1.168   7.756   6.769
16267TIP3    H248679   1.281   7.712   6.679
16268TIP3   OH248680   0.713   7.543   6.126
16268TIP3    H148681   0.679   7.597   6.198
16268TIP3    H248682   0.796   7.509   6.159
16269TIP3   OH248683   0.966   7.563   7.066
16269TIP3    H148684   0.964   7.652   7.100
16269TIP3    H248685   0.900   7.562   6.996
16270TIP3   OH248686   0.595   7.351   5.961
16270TIP3    H148687   0.629   7.425   6.012
16270TIP3    H248688   0.585   7.385   5.872
16271TIP3   OH248689   1.058   6.633   6.023
16271TIP3    H148690   0.986   6.667   6.076
16271TIP3    H248691   1.084   6.706   5.967
16272TIP3   OH248692   0.871   8.020   5.566
16272TIP3    H148693   0.866   8.115   5.556
16272TIP3    H248694   0.961   7.998   5.542
16273TIP3   OH248695   1.298   8.402   6.948
16273TIP3    H148696   1.299   8.307   6.960
16273TIP3    H248697   1.218   8.431   6.992
16274TIP3   OH248698   1.198   7.502   7.234
16274TIP3    H148699   1.116   7.526   7.190
16274TIP3    H248700   1.209   7.409   7.212
16275TIP3   OH248701   0.737   6.866   7.270
16275TIP3    H148702   0.820   6.834   7.304
16275TIP3    H248703   0.674   6.848   7.340
16276TIP3   OH248704   0.933   7.304   7.179
16276TIP3    H148705   0.911   7.324   7.270
16276TIP3    H248706   0.927   7.388   7.133
16277TIP3   OH248707   0.577   7.413   5.684
16277TIP3    H148708   0.550   7.409   5.592
16277TIP3    H248709   0.662   7.456   5.682
16278TIP3   OH248710   0.671   7.278   6.545
16278TIP3    H148711   0.577   7.274   6.531
16278TIP3    H248712   0.708   7.207   6.492
16279TIP3   OH248713   0.852   7.066   6.827
16279TIP3    H148714   0.855   7.060   6.922
16279TIP3    H248715   0.787   7.000   6.801
16280TIP3   OH248716   1.023   7.864   6.729
16280TIP3    H148717   1.066   7.915   6.661
16280TIP3    H248718   0.955   7.815   6.684
16281TIP3   OH248719   0.483   6.975   5.941
16281TIP3    H148720   0.458   6.908   6.005
16281TIP3    H248721   0.539   7.035   5.991
16282TIP3   OH248722   0.676   7.119   6.077
16282TIP3    H148723   0.769   7.136   6.094
16282TIP3    H248724   0.644   7.200   6.038
16283TIP3   OH248725   1.052   7.262   5.909
16283TIP3    H148726   1.002   7.214   5.843
16283TIP3    H248727   1.054   7.352   5.876
16284TIP3   OH248728   1.300   8.123   6.980
16284TIP3    H148729   1.205   8.114   6.970
16284TIP3    H248730   1.335   8.099   6.894
16285TIP3   OH248731   0.788   8.079   5.866
16285TIP3    H148732   0.756   8.040   5.947
16285TIP3    H248733   0.799   8.005   5.806
16286TIP3   OH248734   0.833   7.713   6.591
16286TIP3    H148735   0.751   7.694   6.636
16286TIP3    H248736   0.865   7.627   6.562
16287TIP3   OH248737   0.864   8.307   5.525
16287TIP3    H148738   0.942   8.362   5.527
16287TIP3    H248739   0.812   8.342   5.452
16288TIP3   OH248740   0.744   7.742   5.936
16288TIP3    H148741   0.728   7.663   5.989
16288TIP3    H248742   0.839   7.741   5.920
16289TIP3   OH248743   0.860   7.049   7.093
16289TIP3    H148744   0.877   7.134   7.135
16289TIP3    H248745   0.815   6.999   7.161
16290TIP3   OH248746   0.654   6.896   6.238
16290TIP3    H148747   0.658   6.968   6.175
16290TIP3    H248748   0.680   6.937   6.321
16291TIP3   OH248749   1.195   7.233   7.139
16291TIP3    H148750   1.101   7.244   7.156
16291TIP3    H248751   1.199   7.172   7.066
16292TIP3   OH248752   0.889   7.450   6.521
16292TIP3    H148753   0.813   7.394   6.536
16292TIP3    H248754   0.960   7.410   6.572
16293TIP3   OH248755   0.898   8.351   6.484
16293TIP3    H148756   0.840   8.359   6.408
16293TIP3    H248757   0.972   8.409   6.464
16294TIP3   OH248758   0.816   7.531   5.610
16294TIP3    H148759   0.823   7.500   5.519
16294TIP3    H248760   0.792   7.623   5.602
16295TIP3   OH248761   1.028   7.548   7.540
16295TIP3    H148762   0.967   7.490   7.495
16295TIP3    H248763   1.012   7.634   7.502
16296TIP3   OH248764   0.983   7.823   7.166
16296TIP3    H148765   0.938   7.901   7.134
16296TIP3    H248766   1.075   7.838   7.146
16297TIP3   OH248767   0.876   7.336   7.445
16297TIP3    H148768   0.788   7.305   7.467
16297TIP3    H248769   0.935   7.284   7.499
16298TIP3   OH248770   1.031   7.187   7.616
16298TIP3    H148771   1.055   7.098   7.591
16298TIP3    H248772   1.030   7.186   7.711
16299TIP3   OH248773   1.107   8.520   6.437
16299TIP3    H148774   1.130   8.588   6.500
16299TIP3    H248775   1.172   8.528   6.368
16300TIP3   OH248776   1.132   8.521   6.749
16300TIP3    H148777   1.086   8.439   6.731
16300TIP3    H248778   1.210   8.494   6.799
16301TIP3   OH248779   1.176   8.222   7.378
16301TIP3    H148780   1.160   8.226   7.472
16301TIP3    H248781   1.217   8.306   7.357
16302TIP3   OH248782   1.019   7.727   5.921
16302TIP3    H148783   1.073   7.797   5.887
16302TIP3    H248784   1.068   7.691   5.994
16303TIP3   OH248785   1.148   7.589   6.122
16303TIP3    H148786   1.082   7.550   6.180
16303TIP3    H248787   1.214   7.624   6.182
16304TIP3   OH248788   1.175   7.990   6.541
16304TIP3    H148789   1.232   7.919   6.511
16304TIP3    H248790   1.199   8.065   6.486
16305TIP3   OH248791   0.965   8.287   6.741
16305TIP3    H148792   0.889   8.329   6.780
16305TIP3    H248793   0.949   8.291   6.646
16306TIP3   OH248794   1.038   7.499   5.771
16306TIP3    H148795   0.962   7.500   5.712
16306TIP3    H248796   1.029   7.580   5.822
16307TIP3   OH248797   0.923   7.155   5.696
16307TIP3    H148798   0.866   7.189   5.627
16307TIP3    H248799   0.926   7.061   5.680
16308TIP3   OH248800   0.940   7.442   6.249
16308TIP3    H148801   0.950   7.349   6.232
16308TIP3    H248802   0.930   7.448   6.344
16309TIP3   OH248803   1.246   7.873   7.112
16309TIP3    H148804   1.307   7.800   7.102
16309TIP3    H248805   1.278   7.939   7.050
16310TIP3   OH248806   1.399   7.647   7.119
16310TIP3    H148807   1.329   7.598   7.161
16310TIP3    H248808   1.477   7.592   7.131
16311TIP3   OH248809   0.929   6.879   5.686
16311TIP3    H148810   1.003   6.861   5.745
16311TIP3    H248811   0.852   6.872   5.741
16312TIP3   OH248812   0.946   7.168   6.153
16312TIP3    H148813   0.995   7.087   6.167
16312TIP3    H248814   0.983   7.205   6.073
16313TIP3   OH248815   1.099   7.328   6.654
16313TIP3    H148816   1.181   7.353   6.610
16313TIP3    H248817   1.110   7.360   6.744
16314TIP3   OH248818   1.173   7.466   6.891
16314TIP3    H148819   1.107   7.497   6.952
16314TIP3    H248820   1.202   7.545   6.845
16315TIP3   OH248821   1.610   7.085   7.411
16315TIP3    H148822   1.676   7.023   7.380
16315TIP3    H248823   1.576   7.125   7.331
16316TIP3   OH248824   1.056   6.919   6.199
16316TIP3    H148825   1.104   6.902   6.281
16316TIP3    H248826   0.992   6.848   6.194
16317TIP3   OH248827   1.458   7.181   7.203
16317TIP3    H148828   1.370   7.217   7.196
16317TIP3    H248829   1.452   7.094   7.164
16318TIP3   OH248830   1.142   6.824   5.846
16318TIP3    H148831   1.196   6.766   5.793
16318TIP3    H248832   1.191   6.906   5.849
16319TIP3   OH248833   1.381   6.927   7.127
16319TIP3    H148834   1.293   6.915   7.092
16319TIP3    H248835   1.421   6.840   7.122
16320TIP3   OH248836   0.687   6.857   6.775
16320TIP3    H148837   0.682   6.797   6.849
16320TIP3    H248838   0.701   6.800   6.699
16321TIP3   OH248839   1.089   6.798   6.645
16321TIP3    H148840   1.142   6.833   6.574
16321TIP3    H248841   1.022   6.865   6.661
16322TIP3   OH248842   1.216   6.861   6.416
16322TIP3    H148843   1.284   6.800   6.388
16322TIP3    H248844   1.254   6.947   6.403
16323TIP3   OH248845   0.771   6.685   6.567
16323TIP3    H148846   0.857   6.677   6.527
16323TIP3    H248847   0.775   6.631   6.645
16324TIP3   OH248848   0.856   6.716   6.194
16324TIP3    H148849   0.786   6.776   6.218
16324TIP3    H248850   0.844   6.641   6.252
16325TIP3   OH248851   0.875   8.326   5.805
16325TIP3    H148852   0.839   8.244   5.839
16325TIP3    H248853   0.837   8.334   5.718
16326TIP3   OH248854   1.128   6.938   7.554
16326TIP3    H148855   1.143   6.901   7.640
16326TIP3    H248856   1.214   6.938   7.512
16327TIP3   OH248857   1.063   8.473   7.067
16327TIP3    H148858   1.017   8.421   7.132
16327TIP3    H248859   1.033   8.562   7.081
16328TIP3   OH248860   2.316   7.874   5.792
16328TIP3    H148861   2.283   7.959   5.765
16328TIP3    H248862   2.244   7.813   5.774
16329TIP3   OH248863   2.282   7.857   6.223
16329TIP3    H148864   2.349   7.846   6.290
16329TIP3    H248865   2.248   7.769   6.207
16330TIP3   OH248866   1.604   7.725   6.582
16330TIP3    H148867   1.634   7.668   6.653
16330TIP3    H248868   1.681   7.738   6.527
16331TIP3   OH248869   2.579   8.170   5.893
16331TIP3    H148870   2.572   8.100   5.958
16331TIP3    H248871   2.597   8.249   5.945
16332TIP3   OH248872   1.591   8.137   6.262
16332TIP3    H148873   1.578   8.043   6.259
16332TIP3    H248874   1.686   8.149   6.255
16333TIP3   OH248875   1.284   7.358   6.038
16333TIP3    H148876   1.251   7.444   6.063
16333TIP3    H248877   1.209   7.314   5.998
16334TIP3   OH248878   1.370   7.672   6.269
16334TIP3    H148879   1.420   7.593   6.292
16334TIP3    H248880   1.437   7.736   6.246
16335TIP3   OH248881   2.256   8.573   5.935
16335TIP3    H148882   2.275   8.512   5.863
16335TIP3    H248883   2.272   8.521   6.014
16336TIP3   OH248884   2.113   8.081   6.238
16336TIP3    H148885   2.157   8.000   6.214
16336TIP3    H248886   2.184   8.139   6.266
16337TIP3   OH248887   3.161   7.398   6.266
16337TIP3    H148888   3.175   7.481   6.311
16337TIP3    H248889   3.172   7.419   6.173
16338TIP3   OH248890   2.530   7.578   6.242
16338TIP3    H148891   2.561   7.502   6.291
16338TIP3    H248892   2.469   7.543   6.177
16339TIP3   OH248893   1.854   7.219   6.222
16339TIP3    H148894   1.844   7.296   6.166
16339TIP3    H248895   1.795   7.154   6.183
16340TIP3   OH248896   2.573   7.333   5.862
16340TIP3    H148897   2.631   7.331   5.938
16340TIP3    H248898   2.626   7.369   5.792
16341TIP3   OH248899   1.505   7.443   6.347
16341TIP3    H148900   1.586   7.421   6.391
16341TIP3    H248901   1.507   7.394   6.265
16342TIP3   OH248902   1.926   7.643   6.171
16342TIP3    H148903   2.020   7.627   6.179
16342TIP3    H248904   1.889   7.560   6.140
16343TIP3   OH248905   3.211   7.628   6.417
16343TIP3    H148906   3.120   7.658   6.412
16343TIP3    H248907   3.244   7.664   6.499
16344TIP3   OH248908   1.876   7.237   6.672
16344TIP3    H148909   1.824   7.274   6.601
16344TIP3    H248910   1.823   7.252   6.750
16345TIP3   OH248911   2.210   8.090   5.656
16345TIP3    H148912   2.170   8.058   5.575
16345TIP3    H248913   2.156   8.164   5.682
16346TIP3   OH248914   1.975   7.990   6.461
16346TIP3    H148915   1.920   8.061   6.493
16346TIP3    H248916   2.023   8.028   6.387
16347TIP3   OH248917   2.720   7.366   6.089
16347TIP3    H148918   2.688   7.335   6.174
16347TIP3    H248919   2.779   7.438   6.110
16348TIP3   OH248920   1.738   7.331   6.449
16348TIP3    H148921   1.788   7.409   6.474
16348TIP3    H248922   1.789   7.292   6.378
16349TIP3   OH248923   1.807   8.197   6.549
16349TIP3    H148924   1.798   8.285   6.514
16349TIP3    H248925   1.727   8.182   6.599
16350TIP3   OH248926   1.179   7.917   5.800
16350TIP3    H148927   1.145   7.947   5.715
16350TIP3    H248928   1.205   7.998   5.845
16351TIP3   OH248929   2.600   8.412   6.038
16351TIP3    H148930   2.512   8.408   6.076
16351TIP3    H248931   2.601   8.496   5.992
16352TIP3   OH248932   2.950   7.282   6.421
16352TIP3    H148933   2.864   7.305   6.385
16352TIP3    H248934   3.013   7.313   6.356
16353TIP3   OH248935   2.182   6.887   6.415
16353TIP3    H148936   2.170   6.801   6.454
16353TIP3    H248937   2.110   6.940   6.451
16354TIP3   OH248938   2.322   8.443   5.697
16354TIP3    H148939   2.378   8.366   5.685
16354TIP3    H248940   2.376   8.516   5.666
16355TIP3   OH248941   2.462   8.215   5.648
16355TIP3    H148942   2.387   8.155   5.649
16355TIP3    H248943   2.512   8.192   5.726
16356TIP3   OH248944   2.831   8.302   6.382
16356TIP3    H148945   2.823   8.225   6.325
16356TIP3    H248946   2.837   8.376   6.320
16357TIP3   OH248947   2.138   7.708   5.651
16357TIP3    H148948   2.055   7.751   5.631
16357TIP3    H248949   2.187   7.710   5.568
16358TIP3   OH248950   2.104   7.525   5.337
16358TIP3    H148951   2.170   7.572   5.389
16358TIP3    H248952   2.153   7.454   5.295
16359TIP3   OH248953   3.032   7.961   6.240
16359TIP3    H148954   2.948   8.005   6.246
16359TIP3    H248955   3.062   7.978   6.150
16360TIP3   OH248956   2.503   7.796   5.608
16360TIP3    H148957   2.447   7.827   5.680
16360TIP3    H248958   2.584   7.770   5.651
16361TIP3   OH248959   2.727   7.836   6.534
16361TIP3    H148960   2.719   7.911   6.593
16361TIP3    H248961   2.646   7.839   6.482
16362TIP3   OH248962   1.730   7.775   6.015
16362TIP3    H148963   1.697   7.711   5.951
16362TIP3    H248964   1.804   7.730   6.057
16363TIP3   OH248965   1.857   8.193   6.168
16363TIP3    H148966   1.841   8.179   6.075
16363TIP3    H248967   1.944   8.155   6.183
16364TIP3   OH248968   1.818   7.776   6.388
16364TIP3    H148969   1.860   7.739   6.311
16364TIP3    H248970   1.874   7.849   6.414
16365TIP3   OH248971   2.358   8.417   6.168
16365TIP3    H148972   2.352   8.493   6.225
16365TIP3    H248973   2.350   8.342   6.227
16366TIP3   OH248974   2.003   8.311   6.712
16366TIP3    H148975   1.940   8.368   6.756
16366TIP3    H248976   1.949   8.254   6.656
16367TIP3   OH248977   2.328   7.661   5.443
16367TIP3    H148978   2.390   7.717   5.490
16367TIP3    H248979   2.360   7.661   5.353
16368TIP3   OH248980   1.759   7.876   6.874
16368TIP3    H148981   1.758   7.971   6.881
16368TIP3    H248982   1.668   7.852   6.853
16369TIP3   OH248983   2.072   8.325   5.698
16369TIP3    H148984   2.154   8.374   5.711
16369TIP3    H248985   2.016   8.385   5.650
16370TIP3   OH248986   1.790   8.468   6.795
16370TIP3    H148987   1.766   8.471   6.702
16370TIP3    H248988   1.706   8.456   6.840
16371TIP3   OH248989   2.835   6.885   5.505
16371TIP3    H148990   2.760   6.907   5.559
16371TIP3    H248991   2.846   6.961   5.447
16372TIP3   OH248992   1.604   7.616   5.815
16372TIP3    H148993   1.524   7.663   5.790
16372TIP3    H248994   1.575   7.526   5.832
16373TIP3   OH248995   2.667   8.258   5.061
16373TIP3    H148996   2.661   8.352   5.044
16373TIP3    H248997   2.755   8.234   5.032
16374TIP3   OH248998   1.386   8.030   6.741
16374TIP3    H148999   1.324   8.004   6.673
16374TIP3    H249000   1.422   7.948   6.774
16375TIP3   OH249001   1.292   8.198   6.393
16375TIP3    H149002   1.377   8.177   6.355
16375TIP3    H249003   1.309   8.274   6.450
16376TIP3   OH249004   3.068   8.678   6.449
16376TIP3    H149005   3.080   8.583   6.457
16376TIP3    H249006   2.988   8.697   6.498
16377TIP3   OH249007   2.191   8.457   6.576
16377TIP3    H149008   2.179   8.546   6.611
16377TIP3    H249009   2.126   8.404   6.623
16378TIP3   OH249010   1.963   8.525   5.530
16378TIP3    H149011   1.921   8.515   5.444
16378TIP3    H249012   1.935   8.611   5.560
16379TIP3   OH249013   1.407   8.390   5.916
16379TIP3    H149014   1.454   8.389   5.999
16379TIP3    H249015   1.361   8.306   5.913
16380TIP3   OH249016   2.170   8.478   5.158
16380TIP3    H149017   2.222   8.405   5.122
16380TIP3    H249018   2.203   8.488   5.248
16381TIP3   OH249019   2.218   8.506   5.429
16381TIP3    H149020   2.132   8.509   5.471
16381TIP3    H249021   2.277   8.473   5.496
16382TIP3   OH249022   3.004   7.768   6.698
16382TIP3    H149023   2.911   7.783   6.682
16382TIP3    H249024   3.014   7.673   6.698
16383TIP3   OH249025   1.581   8.224   6.713
16383TIP3    H149026   1.632   8.212   6.793
16383TIP3    H249027   1.512   8.158   6.719
16384TIP3   OH249028   1.956   7.004   6.535
16384TIP3    H149029   1.867   6.983   6.505
16384TIP3    H249030   1.950   7.094   6.566
16385TIP3   OH249031   2.500   7.133   6.723
16385TIP3    H149032   2.568   7.113   6.787
16385TIP3    H249033   2.418   7.118   6.770
16386TIP3   OH249034   2.769   7.605   6.678
16386TIP3    H149035   2.701   7.577   6.739
16386TIP3    H249036   2.728   7.674   6.626
16387TIP3   OH249037   2.407   7.623   5.180
16387TIP3    H149038   2.362   7.630   5.096
16387TIP3    H249039   2.489   7.672   5.167
16388TIP3   OH249040   2.113   7.061   5.508
16388TIP3    H149041   2.080   7.065   5.598
16388TIP3    H249042   2.078   6.978   5.474
16389TIP3   OH249043   1.869   7.549   6.539
16389TIP3    H149044   1.913   7.582   6.617
16389TIP3    H249045   1.865   7.624   6.480
16390TIP3   OH249046   1.778   7.432   6.063
16390TIP3    H149047   1.689   7.406   6.087
16390TIP3    H249048   1.790   7.399   5.974
16391TIP3   OH249049   2.250   7.494   5.781
16391TIP3    H149050   2.207   7.570   5.743
16391TIP3    H249051   2.311   7.465   5.714
16392TIP3   OH249052   2.467   7.774   6.871
16392TIP3    H149053   2.444   7.703   6.930
16392TIP3    H249054   2.560   7.791   6.889
16393TIP3   OH249055   2.395   7.498   6.015
16393TIP3    H149056   2.339   7.514   5.939
16393TIP3    H249057   2.461   7.436   5.983
16394TIP3   OH249058   1.688   7.562   6.794
16394TIP3    H149059   1.778   7.595   6.797
16394TIP3    H249060   1.695   7.471   6.825
16395TIP3   OH249061   1.781   7.036   5.481
16395TIP3    H149062   1.774   7.044   5.576
16395TIP3    H249063   1.704   7.081   5.447
16396TIP3   OH249064   1.337   7.089   6.344
16396TIP3    H149065   1.404   7.127   6.402
16396TIP3    H249066   1.382   7.078   6.260
16397TIP3   OH249067   1.255   7.075   5.853
16397TIP3    H149068   1.293   7.108   5.771
16397TIP3    H249069   1.188   7.140   5.876
16398TIP3   OH249070   2.480   7.791   6.405
16398TIP3    H149071   2.504   7.717   6.350
16398TIP3    H249072   2.439   7.751   6.482
16399TIP3   OH249073   2.129   7.211   6.129
16399TIP3    H149074   2.044   7.196   6.170
16399TIP3    H249075   2.183   7.249   6.199
16400TIP3   OH249076   1.541   7.302   6.116
16400TIP3    H149077   1.454   7.308   6.078
16400TIP3    H249078   1.569   7.212   6.097
16401TIP3   OH249079   1.791   7.306   5.819
16401TIP3    H149080   1.887   7.315   5.814
16401TIP3    H249081   1.761   7.324   5.730
16402TIP3   OH249082   2.605   7.334   6.355
16402TIP3    H149083   2.598   7.359   6.447
16402TIP3    H249084   2.523   7.288   6.336
16403TIP3   OH249085   1.687   7.328   5.566
16403TIP3    H149086   1.625   7.279   5.512
16403TIP3    H249087   1.741   7.376   5.503
16404TIP3   OH249088   2.802   9.024   6.534
16404TIP3    H149089   2.794   9.044   6.441
16404TIP3    H249090   2.881   9.070   6.562
16405TIP3   OH249091   1.727   8.144   6.949
16405TIP3    H149092   1.811   8.159   6.994
16405TIP3    H249093   1.662   8.151   7.018
16406TIP3   OH249094   2.198   7.584   6.200
16406TIP3    H149095   2.261   7.554   6.134
16406TIP3    H249096   2.206   7.520   6.271
16407TIP3   OH249097   1.666   7.050   6.093
16407TIP3    H149098   1.645   6.975   6.148
16407TIP3    H249099   1.696   7.012   6.011
16408TIP3   OH249100   1.900   7.839   5.593
16408TIP3    H149101   1.824   7.786   5.568
16408TIP3    H249102   1.872   7.882   5.674
16409TIP3   OH249103   2.795   8.097   6.200
16409TIP3    H149104   2.831   8.150   6.129
16409TIP3    H249105   2.716   8.058   6.164
16410TIP3   OH249106   2.366   7.164   5.504
16410TIP3    H149107   2.273   7.143   5.504
16410TIP3    H249108   2.369   7.259   5.518
16411TIP3   OH249109   2.323   8.189   6.619
16411TIP3    H149110   2.385   8.166   6.688
16411TIP3    H249111   2.295   8.278   6.640
16412TIP3   OH249112   2.424   7.428   5.572
16412TIP3    H149113   2.519   7.431   5.588
16412TIP3    H249114   2.406   7.508   5.523
16413TIP3   OH249115   1.590   7.852   6.241
16413TIP3    H149116   1.629   7.835   6.156
16413TIP3    H249117   1.657   7.827   6.304
16414TIP3   OH249118   2.055   7.999   5.438
16414TIP3    H149119   2.007   8.081   5.434
16414TIP3    H249120   2.000   7.941   5.491
16415TIP3   OH249121   1.479   7.820   6.894
16415TIP3    H149122   1.507   7.798   6.982
16415TIP3    H249123   1.426   7.745   6.866
16416TIP3   OH249124   2.243   7.940   6.886
16416TIP3    H149125   2.194   7.914   6.808
16416TIP3    H249126   2.328   7.899   6.876
16417TIP3   OH249127   2.461   8.484   6.510
16417TIP3    H149128   2.367   8.469   6.516
16417TIP3    H249129   2.486   8.516   6.596
16418TIP3   OH249130   2.837   7.511   5.386
16418TIP3    H149131   2.782   7.465   5.323
16418TIP3    H249132   2.842   7.601   5.353
16419TIP3   OH249133   3.098   8.408   6.477
16419TIP3    H149134   3.047   8.343   6.526
16419TIP3    H249135   3.117   8.365   6.393
16420TIP3   OH249136   2.578   8.327   5.329
16420TIP3    H149137   2.552   8.259   5.392
16420TIP3    H249138   2.599   8.278   5.249
16421TIP3   OH249139   2.569   7.968   6.089
16421TIP3    H149140   2.478   7.946   6.113
16421TIP3    H249141   2.606   7.885   6.059
16422TIP3   OH249142   1.724   8.201   5.919
16422TIP3    H149143   1.722   8.275   5.859
16422TIP3    H249144   1.633   8.193   5.950
16423TIP3   OH249145   1.281   7.487   5.640
16423TIP3    H149146   1.324   7.569   5.663
16423TIP3    H249147   1.199   7.488   5.689
16424TIP3   OH249148   1.793   7.957   5.811
16424TIP3    H149149   1.783   8.046   5.846
16424TIP3    H249150   1.774   7.900   5.886
16425TIP3   OH249151   2.007   8.522   6.369
16425TIP3    H149152   2.040   8.595   6.316
16425TIP3    H249153   2.082   8.492   6.419
16426TIP3   OH249154   1.634   8.417   5.763
16426TIP3    H149155   1.549   8.422   5.806
16426TIP3    H249156   1.670   8.505   5.770
16427TIP3   OH249157   2.349   8.194   6.342
16427TIP3    H149158   2.336   8.192   6.437
16427TIP3    H249159   2.425   8.137   6.328
16428TIP3   OH249160   2.347   8.066   5.211
16428TIP3    H149161   2.400   8.037   5.286
16428TIP3    H249162   2.264   8.020   5.222
16429TIP3   OH249163   2.613   8.677   6.384
16429TIP3    H149164   2.549   8.612   6.413
16429TIP3    H249165   2.571   8.722   6.311
16430TIP3   OH249166   2.670   8.530   5.026
16430TIP3    H149167   2.722   8.602   4.990
16430TIP3    H249168   2.590   8.573   5.058
16431TIP3   OH249169   1.703   7.290   6.886
16431TIP3    H149170   1.607   7.293   6.892
16431TIP3    H249171   1.729   7.231   6.957
16432TIP3   OH249172   2.527   7.976   5.397
16432TIP3    H149173   2.511   7.925   5.476
16432TIP3    H249174   2.622   7.985   5.393
16433TIP3   OH249175   1.424   8.415   6.535
16433TIP3    H149176   1.483   8.363   6.590
16433TIP3    H249177   1.434   8.504   6.568
16434TIP3   OH249178   1.699   8.029   5.233
16434TIP3    H149179   1.710   7.938   5.205
16434TIP3    H249180   1.687   8.024   5.328
16435TIP3   OH249181   1.640   8.043   5.506
16435TIP3    H149182   1.699   8.017   5.577
16435TIP3    H249183   1.640   8.138   5.508
16436TIP3   OH249184   1.374   7.738   5.715
16436TIP3    H149185   1.310   7.789   5.763
16436TIP3    H249186   1.396   7.793   5.639
16437TIP3   OH249187   2.553   7.387   6.623
16437TIP3    H149188   2.581   7.419   6.709
16437TIP3    H249189   2.519   7.299   6.640
16438TIP3   OH249190   2.423   7.118   5.776
16438TIP3    H149191   2.404   7.135   5.684
16438TIP3    H249192   2.469   7.196   5.806
16439TIP3   OH249193   1.908   8.224   5.429
16439TIP3    H149194   1.825   8.250   5.469
16439TIP3    H249195   1.937   8.303   5.382
16440TIP3   OH249196   2.067   7.310   5.874
16440TIP3    H149197   2.130   7.376   5.845
16440TIP3    H249198   2.091   7.291   5.964
16441TIP3   OH249199   2.371   7.670   6.625
16441TIP3    H149200   2.408   7.695   6.710
16441TIP3    H249201   2.388   7.576   6.618
16442TIP3   OH249202   2.242   7.013   5.959
16442TIP3    H149203   2.219   7.086   6.016
16442TIP3    H249204   2.308   7.049   5.899
16443TIP3   OH249205   1.661   8.315   5.512
16443TIP3    H149206   1.642   8.389   5.453
16443TIP3    H249207   1.651   8.352   5.600
16444TIP3   OH249208   1.754   7.033   5.762
16444TIP3    H149209   1.743   7.124   5.789
16444TIP3    H249210   1.848   7.017   5.769
16445TIP3   OH249211   3.000   7.479   6.619
16445TIP3    H149212   2.915   7.515   6.642
16445TIP3    H249213   2.982   7.414   6.551
16446TIP3   OH249214   2.664   7.707   6.023
16446TIP3    H149215   2.594   7.665   6.073
16446TIP3    H249216   2.745   7.674   6.063
16447TIP3   OH249217   1.398   7.909   5.494
16447TIP3    H149218   1.470   7.971   5.504
16447TIP3    H249219   1.428   7.847   5.428
16448TIP3   OH249220   1.299   7.210   5.620
16448TIP3    H149221   1.314   7.304   5.632
16448TIP3    H249222   1.236   7.205   5.548
16449TIP3   OH249223   2.630   8.673   5.946
16449TIP3    H149224   2.589   8.728   5.879
16449TIP3    H249225   2.724   8.687   5.934
16450TIP3   OH249226   1.689   6.929   6.496
16450TIP3    H149227   1.666   6.897   6.408
16450TIP3    H249228   1.687   6.850   6.550
16451TIP3   OH249229   1.238   8.168   5.914
16451TIP3    H149230   1.194   8.210   5.987
16451TIP3    H249231   1.199   8.209   5.836
16452TIP3   OH249232   1.435   8.726   6.959
16452TIP3    H149233   1.513   8.736   7.013
16452TIP3    H249234   1.435   8.634   6.934
16453TIP3   OH249235   1.893   8.627   6.994
16453TIP3    H149236   1.983   8.596   7.006
16453TIP3    H249237   1.861   8.577   6.919
16454TIP3   OH249238   1.854   8.227   5.118
16454TIP3    H149239   1.808   8.159   5.166
16454TIP3    H249240   1.930   8.182   5.079
16455TIP3   OH249241   2.538   8.574   6.758
16455TIP3    H149242   2.530   8.501   6.819
16455TIP3    H249243   2.624   8.612   6.777
16456TIP3   OH249244   2.299   8.270   5.036
16456TIP3    H149245   2.330   8.206   5.101
16456TIP3    H249246   2.360   8.262   4.963
16457TIP3   OH249247   1.525   8.127   7.143
16457TIP3    H149248   1.552   8.036   7.148
16457TIP3    H249249   1.442   8.125   7.096
16458TIP3   OH249250   1.518   7.722   5.335
16458TIP3    H149251   1.568   7.698   5.413
16458TIP3    H249252   1.584   7.737   5.268
16459TIP3   OH249253   2.150   8.207   6.921
16459TIP3    H149254   2.112   8.230   6.836
16459TIP3    H249255   2.200   8.127   6.905
16460TIP3   OH249256   2.092   7.945   5.173
16460TIP3    H149257   2.069   7.954   5.265
16460TIP3    H249258   2.071   7.853   5.152
16461TIP3   OH249259   2.635   8.264   6.565
16461TIP3    H149260   2.711   8.277   6.508
16461TIP3    H249261   2.572   8.330   6.538
16462TIP3   OH249262   1.641   7.876   7.137
16462TIP3    H149263   1.712   7.863   7.074
16462TIP3    H249264   1.685   7.885   7.221
16463TIP3   OH249265   1.687   7.666   5.548
16463TIP3    H149266   1.671   7.638   5.638
16463TIP3    H249267   1.738   7.594   5.510
16464TIP3   OH249268   1.940   7.695   6.774
16464TIP3    H149269   1.884   7.761   6.814
16464TIP3    H249270   2.010   7.745   6.732
16465TIP3   OH249271   1.835   7.486   5.397
16465TIP3    H149272   1.805   7.489   5.306
16465TIP3    H249273   1.930   7.497   5.391
16466TIP3   OH249274   2.501   8.126   6.885
16466TIP3    H149275   2.569   8.093   6.826
16466TIP3    H249276   2.509   8.073   6.964
16467TIP3   OH249277   2.621   7.769   5.078
16467TIP3    H149278   2.610   7.730   4.992
16467TIP3    H249279   2.598   7.862   5.066
16468TIP3   OH249280   2.113   7.512   6.897
16468TIP3    H149281   2.132   7.442   6.835
16468TIP3    H249282   2.060   7.575   6.848
16469TIP3   OH249283   2.142   7.323   6.687
16469TIP3    H149284   2.183   7.333   6.601
16469TIP3    H249285   2.051   7.299   6.668
16470TIP3   OH249286   2.134   7.839   6.650
16470TIP3    H149287   2.210   7.793   6.614
16470TIP3    H249288   2.102   7.893   6.577
16471TIP3   OH249289   2.735   7.822   6.959
16471TIP3    H149290   2.793   7.746   6.951
16471TIP3    H249291   2.791   7.897   6.941
16472TIP3   OH249292   2.707   8.045   6.715
16472TIP3    H149293   2.692   8.125   6.665
16472TIP3    H249294   2.783   8.065   6.769
16473TIP3   OH249295   1.997   7.592   7.145
16473TIP3    H149296   1.935   7.520   7.159
16473TIP3    H249297   2.031   7.576   7.057
16474TIP3   OH249298   2.238   7.094   6.815
16474TIP3    H149299   2.207   7.172   6.769
16474TIP3    H249300   2.171   7.027   6.796
16475TIP3   OH249301   2.370   7.554   7.011
16475TIP3    H149302   2.352   7.538   7.104
16475TIP3    H249303   2.286   7.537   6.968
16476TIP3   OH249304   2.611   7.495   6.876
16476TIP3    H149305   2.535   7.504   6.933
16476TIP3    H249306   2.685   7.489   6.935
16477TIP3   OH249307   2.846   7.483   7.037
16477TIP3    H149308   2.862   7.389   7.042
16477TIP3    H249309   2.843   7.512   7.128
16478TIP3   OH249310   1.832   7.380   7.223
16478TIP3    H149311   1.835   7.295   7.180
16478TIP3    H249312   1.874   7.366   7.308
16479TIP3   OH249313   2.306   7.065   7.076
16479TIP3    H149314   2.376   7.000   7.068
16479TIP3    H249315   2.277   7.081   6.986
16480TIP3   OH249316   2.403   7.274   7.230
16480TIP3    H149317   2.375   7.204   7.171
16480TIP3    H249318   2.332   7.338   7.227
16481TIP3   OH249319   1.663   8.528   5.332
16481TIP3    H149320   1.751   8.504   5.303
16481TIP3    H249321   1.620   8.560   5.253
16482TIP3   OH249322   1.124   7.924   5.496
16482TIP3    H149323   1.220   7.927   5.500
16482TIP3    H249324   1.105   7.837   5.459
16483TIP3   OH249325   1.017   8.489   5.976
16483TIP3    H149326   0.962   8.437   5.917
16483TIP3    H249327   1.052   8.425   6.038
16484TIP3   OH249328   1.167   8.318   6.147
16484TIP3    H149329   1.166   8.255   6.218
16484TIP3    H249330   1.221   8.390   6.179
16485TIP3   OH249331   2.900   8.732   5.944
16485TIP3    H149332   2.918   8.747   6.036
16485TIP3    H249333   2.939   8.807   5.899
16486TIP3   OH249334   2.928   8.750   6.220
16486TIP3    H149335   2.874   8.671   6.212
16486TIP3    H249336   2.990   8.730   6.290
16487TIP3   OH249337   2.806   7.978   5.405
16487TIP3    H149338   2.864   8.048   5.377
16487TIP3    H249339   2.849   7.940   5.482
16488TIP3   OH249340   2.931   7.835   5.610
16488TIP3    H149341   2.865   7.799   5.669
16488TIP3    H249342   2.997   7.872   5.668
16489TIP3   OH249343   2.973   8.246   6.047
16489TIP3    H149344   3.027   8.178   6.006
16489TIP3    H249345   2.977   8.319   5.986
16490TIP3   OH249346   2.780   8.524   6.218
16490TIP3    H149347   2.715   8.558   6.280
16490TIP3    H249348   2.727   8.475   6.153
16491TIP3   OH249349   2.833   7.752   5.252
16491TIP3    H149350   2.760   7.752   5.191
16491TIP3    H249351   2.821   7.830   5.306
16492TIP3   OH249352   2.692   7.395   5.183
16492TIP3    H149353   2.640   7.429   5.110
16492TIP3    H249354   2.686   7.300   5.175
16493TIP3   OH249355   2.724   7.698   5.749
16493TIP3    H149356   2.728   7.604   5.734
16493TIP3    H249357   2.703   7.707   5.842
16494TIP3   OH249358   1.346   7.778   6.521
16494TIP3    H149359   1.339   7.740   6.434
16494TIP3    H249360   1.439   7.770   6.543
16495TIP3   OH249361   3.071   8.177   6.650
16495TIP3    H149362   3.119   8.096   6.634
16495TIP3    H249363   3.024   8.162   6.732
16496TIP3   OH249364   3.204   7.928   6.612
16496TIP3    H149365   3.124   7.886   6.644
16496TIP3    H249366   3.273   7.863   6.628
16497TIP3   OH249367   2.653   7.121   5.156
16497TIP3    H149368   2.715   7.101   5.226
16497TIP3    H249369   2.568   7.091   5.189
16498TIP3   OH249370   2.713   7.423   5.628
16498TIP3    H149371   2.759   7.340   5.642
16498TIP3    H249372   2.755   7.461   5.551
16499TIP3   OH249373   2.879   7.587   6.153
16499TIP3    H149374   2.962   7.602   6.108
16499TIP3    H249375   2.890   7.626   6.239
16500TIP3   OH249376   2.948   7.735   6.378
16500TIP3    H149377   2.878   7.763   6.437
16500TIP3    H249378   2.979   7.816   6.337
16501TIP3   OH249379   1.567   7.432   7.155
16501TIP3    H149380   1.660   7.433   7.178
16501TIP3    H249381   1.537   7.346   7.184
16502TIP3   OH249382   3.414   7.325   6.917
16502TIP3    H149383   3.475   7.269   6.868
16502TIP3    H249384   3.374   7.381   6.851
16503TIP3   OH249385   2.834   7.176   5.676
16503TIP3    H149386   2.880   7.162   5.759
16503TIP3    H249387   2.769   7.105   5.673
16504TIP3   OH249388   1.535   7.155   6.529
16504TIP3    H149389   1.588   7.075   6.527
16504TIP3    H249390   1.597   7.225   6.507
16505TIP3   OH249391   1.338   7.432   6.570
16505TIP3    H149392   1.383   7.426   6.486
16505TIP3    H249393   1.396   7.485   6.625
16506TIP3   OH249394   3.262   7.466   6.740
16506TIP3    H149395   3.193   7.505   6.794
16506TIP3    H249396   3.214   7.414   6.675
16507TIP3   OH249397   2.875   7.083   5.317
16507TIP3    H149398   2.926   7.023   5.263
16507TIP3    H249399   2.930   7.161   5.325
16508TIP3   OH249400   1.327   6.937   6.078
16508TIP3    H149401   1.240   6.926   6.116
16508TIP3    H249402   1.313   6.996   6.004
16509TIP3   OH249403   2.449   8.653   5.585
16509TIP3    H149404   2.509   8.640   5.511
16509TIP3    H249405   2.493   8.717   5.641
16510TIP3   OH249406   1.541   6.979   6.899
16510TIP3    H149407   1.485   6.967   6.975
16510TIP3    H249408   1.486   7.029   6.837
16511TIP3   OH249409   1.565   8.455   6.960
16511TIP3    H149410   1.474   8.426   6.950
16511TIP3    H249411   1.583   8.446   7.054
16512TIP3   OH249412   1.780   8.470   6.514
16512TIP3    H149413   1.723   8.538   6.478
16512TIP3    H249414   1.865   8.484   6.472
16513TIP3   OH249415   2.178   8.715   6.671
16513TIP3    H149416   2.220   8.703   6.756
16513TIP3    H249417   2.241   8.767   6.620
16514TIP3   OH249418   2.364   8.860   6.530
16514TIP3    H149419   2.414   8.802   6.473
16514TIP3    H249420   2.430   8.906   6.582
16515TIP3   OH249421   3.170   7.208   6.613
16515TIP3    H149422   3.090   7.216   6.561
16515TIP3    H249423   3.198   7.118   6.601
16516TIP3   OH249424   1.436   8.701   6.575
16516TIP3    H149425   1.347   8.726   6.550
16516TIP3    H249426   1.464   8.769   6.636
16517TIP3   OH249427   1.655   8.686   6.407
16517TIP3    H149428   1.573   8.697   6.456
16517TIP3    H249429   1.636   8.720   6.320
16518TIP3   OH249430   2.076   8.730   6.202
16518TIP3    H149431   2.011   8.742   6.132
16518TIP3    H249432   2.081   8.815   6.245
16519TIP3   OH249433   2.336   8.674   6.270
16519TIP3    H149434   2.246   8.690   6.240
16519TIP3    H249435   2.389   8.733   6.218
16520TIP3   OH249436   2.537   8.823   6.157
16520TIP3    H149437   2.543   8.912   6.121
16520TIP3    H249438   2.566   8.766   6.085
16521TIP3   OH249439   1.346   8.496   6.280
16521TIP3    H149440   1.369   8.476   6.370
16521TIP3    H249441   1.420   8.465   6.228
16522TIP3   OH249442   1.555   8.385   6.147
16522TIP3    H149443   1.567   8.300   6.190
16522TIP3    H249444   1.641   8.426   6.151
16523TIP3   OH249445   1.820   8.471   6.167
16523TIP3    H149446   1.840   8.379   6.154
16523TIP3    H249447   1.876   8.498   6.240
16524TIP3   OH249448   2.888   7.016   6.117
16524TIP3    H149449   2.922   7.074   6.048
16524TIP3    H249450   2.796   7.042   6.127
16525TIP3   OH249451   2.997   7.127   5.892
16525TIP3    H149452   3.067   7.065   5.872
16525TIP3    H249453   3.037   7.213   5.879
16526TIP3   OH249454   1.614   6.825   6.249
16526TIP3    H149455   1.526   6.788   6.258
16526TIP3    H249456   1.671   6.750   6.242
16527TIP3   OH249457   1.447   6.740   5.909
16527TIP3    H149458   1.477   6.787   5.831
16527TIP3    H249459   1.417   6.809   5.969
16528TIP3   OH249460   2.103   6.857   6.149
16528TIP3    H149461   2.151   6.914   6.089
16528TIP3    H249462   2.139   6.877   6.235
16529TIP3   OH249463   2.617   7.044   6.132
16529TIP3    H149464   2.539   7.051   6.077
16529TIP3    H249465   2.602   6.967   6.187
16530TIP3   OH249466   2.644   6.970   5.685
16530TIP3    H149467   2.567   7.018   5.715
16530TIP3    H249468   2.635   6.883   5.723
16531TIP3   OH249469   1.125   8.284   5.698
16531TIP3    H149470   1.036   8.286   5.733
16531TIP3    H249471   1.130   8.359   5.639
16532TIP3   OH249472   1.547   6.864   5.669
16532TIP3    H149473   1.593   6.803   5.610
16532TIP3    H249474   1.616   6.921   5.703
16533TIP3   OH249475   2.030   7.059   5.773
16533TIP3    H149476   2.089   7.007   5.828
16533TIP3    H249477   2.042   7.149   5.803
16534TIP3   OH249478   1.915   8.453   5.257
16534TIP3    H149479   2.000   8.478   5.221
16534TIP3    H249480   1.886   8.379   5.203
16535TIP3   OH249481   2.605   8.596   5.360
16535TIP3    H149482   2.599   8.501   5.355
16535TIP3    H249483   2.567   8.627   5.277
16536TIP3   OH249484   1.840   7.114   7.125
16536TIP3    H149485   1.809   7.046   7.186
16536TIP3    H249486   1.934   7.122   7.145
16537TIP3   OH249487   2.090   7.118   7.242
16537TIP3    H149488   2.168   7.099   7.190
16537TIP3    H249489   2.086   7.047   7.306
16538TIP3   OH249490   1.216   8.274   5.319
16538TIP3    H149491   1.219   8.295   5.413
16538TIP3    H249492   1.301   8.232   5.302
16539TIP3   OH249493   2.914   7.211   7.040
16539TIP3    H149494   2.934   7.182   7.129
16539TIP3    H249495   2.998   7.206   6.994
16540TIP3   OH249496   2.822   8.750   6.547
16540TIP3    H149497   2.751   8.716   6.493
16540TIP3    H249498   2.811   8.845   6.544
16541TIP3   OH249499   4.113   8.129   5.286
16541TIP3    H149500   4.081   8.215   5.258
16541TIP3    H249501   4.042   8.068   5.261
16542TIP3   OH249502   4.113   8.121   5.714
16542TIP3    H149503   4.166   8.099   5.790
16542TIP3    H249504   4.065   8.040   5.694
16543TIP3   OH249505   3.395   7.977   6.060
16543TIP3    H149506   3.428   7.920   6.130
16543TIP3    H249507   3.473   8.019   6.025
16544TIP3   OH249508   4.379   8.422   5.388
16544TIP3    H149509   4.364   8.355   5.454
16544TIP3    H249510   4.397   8.502   5.438
16545TIP3   OH249511   3.407   8.401   5.736
16545TIP3    H149512   3.385   8.308   5.748
16545TIP3    H249513   3.502   8.403   5.731
16546TIP3   OH249514   3.080   7.613   5.518
16546TIP3    H149515   3.041   7.696   5.547
16546TIP3    H249516   3.006   7.562   5.484
16547TIP3   OH249517   3.164   7.923   5.744
16547TIP3    H149518   3.212   7.847   5.775
16547TIP3    H249519   3.231   7.989   5.725
16548TIP3   OH249520   4.038   8.846   5.406
16548TIP3    H149521   4.065   8.784   5.338
16548TIP3    H249522   4.040   8.794   5.487
16549TIP3   OH249523   3.917   8.341   5.707
16549TIP3    H149524   3.962   8.260   5.682
16549TIP3    H249525   3.987   8.398   5.740
16550TIP3   OH249526   4.949   7.648   5.721
16550TIP3    H149527   4.957   7.734   5.762
16550TIP3    H249528   4.979   7.661   5.631
16551TIP3   OH249529   4.324   7.827   5.749
16551TIP3    H149530   4.352   7.741   5.778
16551TIP3    H249531   4.286   7.811   5.662
16552TIP3   OH249532   3.679   7.487   5.706
16552TIP3    H149533   3.654   7.559   5.649
16552TIP3    H249534   3.621   7.415   5.680
16553TIP3   OH249535   4.375   7.587   5.347
16553TIP3    H149536   4.438   7.581   5.419
16553TIP3    H249537   4.426   7.621   5.273
16554TIP3   OH249538   3.303   7.705   5.842
16554TIP3    H149539   3.385   7.685   5.886
16554TIP3    H249540   3.304   7.652   5.762
16555TIP3   OH249541   3.721   7.903   5.650
16555TIP3    H149542   3.815   7.888   5.657
16555TIP3    H249543   3.685   7.821   5.618
16556TIP3   OH249544   4.976   7.863   5.902
16556TIP3    H149545   4.903   7.919   5.878
16556TIP3    H249546   4.949   7.822   5.985
16557TIP3   OH249547   3.657   7.491   6.164
16557TIP3    H149548   3.602   7.526   6.095
16557TIP3    H249549   3.604   7.499   6.244
16558TIP3   OH249550   4.010   8.344   5.146
16558TIP3    H149551   3.969   8.311   5.066
16558TIP3    H249552   3.956   8.419   5.172
16559TIP3   OH249553   3.754   8.266   5.920
16559TIP3    H149554   3.700   8.336   5.957
16559TIP3    H249555   3.799   8.308   5.847
16560TIP3   OH249556   4.529   7.611   5.571
16560TIP3    H149557   4.484   7.589   5.653
16560TIP3    H249558   4.583   7.686   5.593
16561TIP3   OH249559   3.551   7.598   5.929
16561TIP3    H149560   3.606   7.673   5.956
16561TIP3    H249561   3.601   7.556   5.859
16562TIP3   OH249562   3.596   8.461   6.036
16562TIP3    H149563   3.580   8.552   6.011
16562TIP3    H249564   3.519   8.436   6.088
16563TIP3   OH249565   2.974   8.169   5.288
16563TIP3    H149566   2.936   8.198   5.205
16563TIP3    H249567   3.000   8.250   5.332
16564TIP3   OH249568   4.414   8.664   5.533
16564TIP3    H149569   4.326   8.662   5.572
16564TIP3    H249570   4.415   8.746   5.483
16565TIP3   OH249571   4.734   7.549   5.884
16565TIP3    H149572   4.651   7.559   5.837
16565TIP3    H249573   4.800   7.570   5.819
16566TIP3   OH249574   3.999   7.183   5.897
16566TIP3    H149575   3.991   7.091   5.924
16566TIP3    H249576   3.922   7.226   5.933
16567TIP3   OH249577   4.123   8.706   5.183
16567TIP3    H149578   4.177   8.628   5.173
16567TIP3    H249579   4.177   8.778   5.151
16568TIP3   OH249580   4.259   8.475   5.145
16568TIP3    H149581   4.185   8.414   5.142
16568TIP3    H249582   4.309   8.448   5.222
16569TIP3   OH249583   4.656   8.546   5.875
16569TIP3    H149584   4.630   8.474   5.817
16569TIP3    H249585   4.640   8.625   5.823
16570TIP3   OH249586   3.938   7.965   5.142
16570TIP3    H149587   3.853   8.006   5.124
16570TIP3    H249588   3.982   7.964   5.057
16571TIP3   OH249589   3.900   7.779   4.824
16571TIP3    H149590   3.967   7.826   4.874
16571TIP3    H249591   3.949   7.710   4.779
16572TIP3   OH249592   4.818   8.231   5.734
16572TIP3    H149593   4.732   8.274   5.728
16572TIP3    H249594   4.855   8.241   5.646
16573TIP3   OH249595   4.295   8.056   5.095
16573TIP3    H149596   4.242   8.085   5.169
16573TIP3    H249597   4.379   8.031   5.135
16574TIP3   OH249598   4.524   8.089   6.048
16574TIP3    H149599   4.513   8.169   6.100
16574TIP3    H249600   4.443   8.082   5.998
16575TIP3   OH249601   3.521   8.035   5.503
16575TIP3    H149602   3.484   7.972   5.440
16575TIP3    H249603   3.594   7.987   5.543
16576TIP3   OH249604   3.669   8.458   5.642
16576TIP3    H149605   3.641   8.443   5.552
16576TIP3    H249606   3.755   8.417   5.648
16577TIP3   OH249607   3.622   8.029   5.878
16577TIP3    H149608   3.660   7.992   5.799
16577TIP3    H249609   3.671   8.111   5.892
16578TIP3   OH249610   4.174   8.674   5.664
16578TIP3    H149611   4.156   8.749   5.719
16578TIP3    H249612   4.159   8.598   5.720
16579TIP3   OH249613   3.792   8.562   6.206
16579TIP3    H149614   3.733   8.619   6.256
16579TIP3    H249615   3.734   8.511   6.149
16580TIP3   OH249616   4.124   7.915   4.930
16580TIP3    H149617   4.184   7.974   4.977
16580TIP3    H249618   4.155   7.917   4.839
16581TIP3   OH249619   3.537   8.111   6.328
16581TIP3    H149620   3.543   8.200   6.362
16581TIP3    H249621   3.444   8.089   6.334
16582TIP3   OH249622   3.876   8.582   5.187
16582TIP3    H149623   3.956   8.633   5.196
16582TIP3    H249624   3.817   8.639   5.138
16583TIP3   OH249625   3.588   8.719   6.304
16583TIP3    H149626   3.555   8.729   6.214
16583TIP3    H249627   3.510   8.715   6.358
16584TIP3   OH249628   4.634   7.141   4.994
16584TIP3    H149629   4.558   7.162   5.048
16584TIP3    H249630   4.643   7.217   4.936
16585TIP3   OH249631   3.394   7.874   5.305
16585TIP3    H149632   3.316   7.920   5.277
16585TIP3    H249633   3.363   7.786   5.328
16586TIP3   OH249634   4.462   8.514   4.549
16586TIP3    H149635   4.457   8.607   4.529
16586TIP3    H249636   4.552   8.490   4.526
16587TIP3   OH249637   3.175   8.278   6.245
16587TIP3    H149638   3.103   8.258   6.186
16587TIP3    H249639   3.204   8.193   6.277
16588TIP3   OH249640   3.014   8.481   5.897
16588TIP3    H149641   3.099   8.508   5.930
16588TIP3    H249642   2.956   8.554   5.917
16589TIP3   OH249643   4.883   8.949   5.935
16589TIP3    H149644   4.888   8.853   5.936
16589TIP3    H249645   4.800   8.969   5.977
16590TIP3   OH249646   3.984   8.706   6.072
16590TIP3    H149647   3.975   8.796   6.101
16590TIP3    H249648   3.914   8.659   6.118
16591TIP3   OH249649   3.764   8.783   5.018
16591TIP3    H149650   3.720   8.774   4.934
16591TIP3    H249651   3.732   8.867   5.052
16592TIP3   OH249652   3.201   8.646   5.399
16592TIP3    H149653   3.245   8.644   5.484
16592TIP3    H249654   3.153   8.563   5.395
16593TIP3   OH249655   3.966   8.735   4.646
16593TIP3    H149656   4.017   8.663   4.609
16593TIP3    H249657   4.001   8.746   4.735
16594TIP3   OH249658   4.018   8.763   4.917
16594TIP3    H149659   3.932   8.767   4.958
16594TIP3    H249660   4.075   8.726   4.983
16595TIP3   OH249661   4.766   8.037   6.206
16595TIP3    H149662   4.688   8.043   6.152
16595TIP3    H249663   4.782   7.943   6.217
16596TIP3   OH249664   3.376   8.459   6.206
16596TIP3    H149665   3.432   8.446   6.283
16596TIP3    H249666   3.304   8.397   6.217
16597TIP3   OH249667   3.761   7.281   6.011
16597TIP3    H149668   3.677   7.244   5.984
16597TIP3    H249669   3.738   7.357   6.064
16598TIP3   OH249670   4.311   7.406   6.219
16598TIP3    H149671   4.377   7.375   6.282
16598TIP3    H249672   4.227   7.390   6.263
16599TIP3   OH249673   4.539   7.827   6.154
16599TIP3    H149674   4.492   7.818   6.237
16599TIP3    H249675   4.509   7.911   6.119
16600TIP3   OH249676   4.204   7.884   4.668
16600TIP3    H149677   4.157   7.891   4.585
16600TIP3    H249678   4.286   7.932   4.653
16601TIP3   OH249679   3.912   7.314   4.990
16601TIP3    H149680   3.875   7.321   5.078
16601TIP3    H249681   3.876   7.232   4.956
16602TIP3   OH249682   3.696   7.811   6.033
16602TIP3    H149683   3.647   7.814   6.115
16602TIP3    H249684   3.670   7.891   5.987
16603TIP3   OH249685   3.578   7.688   5.548
16603TIP3    H149686   3.489   7.665   5.575
16603TIP3    H249687   3.585   7.653   5.459
16604TIP3   OH249688   4.057   7.760   5.279
16604TIP3    H149689   4.010   7.833   5.239
16604TIP3    H249690   4.114   7.727   5.209
16605TIP3   OH249691   4.239   8.022   6.352
16605TIP3    H149692   4.211   7.954   6.413
16605TIP3    H249693   4.331   8.037   6.373
16606TIP3   OH249694   4.232   7.775   5.496
16606TIP3    H149695   4.160   7.794   5.435
16606TIP3    H249696   4.277   7.701   5.457
16607TIP3   OH249697   3.527   7.813   6.251
16607TIP3    H149698   3.524   7.878   6.321
16607TIP3    H249699   3.513   7.729   6.295
16608TIP3   OH249700   3.579   7.295   4.966
16608TIP3    H149701   3.570   7.299   5.061
16608TIP3    H249702   3.500   7.338   4.933
16609TIP3   OH249703   3.134   7.346   5.816
16609TIP3    H149704   3.203   7.380   5.873
16609TIP3    H249705   3.180   7.322   5.735
16610TIP3   OH249706   3.027   7.316   5.331
16610TIP3    H149707   3.072   7.353   5.254
16610TIP3    H249708   2.964   7.383   5.356
16611TIP3   OH249709   4.279   8.028   5.924
16611TIP3    H149710   4.302   7.961   5.859
16611TIP3    H249711   4.233   7.980   5.993
16612TIP3   OH249712   3.947   7.475   5.602
16612TIP3    H149713   3.867   7.474   5.655
16612TIP3    H249714   4.017   7.465   5.666
16613TIP3   OH249715   3.338   7.565   5.607
16613TIP3    H149716   3.250   7.569   5.570
16613TIP3    H249717   3.365   7.474   5.596
16614TIP3   OH249718   3.591   7.563   5.303
16614TIP3    H149719   3.686   7.573   5.293
16614TIP3    H249720   3.556   7.580   5.216
16615TIP3   OH249721   4.391   7.565   5.812
16615TIP3    H149722   4.375   7.584   5.904
16615TIP3    H249723   4.322   7.503   5.788
16616TIP3   OH249724   3.482   7.585   5.053
16616TIP3    H149725   3.419   7.536   5.001
16616TIP3    H249726   3.535   7.632   4.988
16617TIP3   OH249727   7.855   0.029   6.022
16617TIP3    H149728   7.847   0.046   5.928
16617TIP3    H249729   7.931   0.080   6.050
16618TIP3   OH249730   3.534   8.381   6.431
16618TIP3    H149731   3.613   8.397   6.482
16618TIP3    H249732   3.464   8.377   6.497
16619TIP3   OH249733   3.994   7.855   5.705
16619TIP3    H149734   4.057   7.799   5.660
16619TIP3    H249735   3.986   7.818   5.792
16620TIP3   OH249736   3.478   7.314   5.598
16620TIP3    H149737   3.453   7.239   5.651
16620TIP3    H249738   3.497   7.278   5.512
16621TIP3   OH249739   3.961   7.763   5.966
16621TIP3    H149740   3.874   7.790   5.994
16621TIP3    H249741   4.021   7.811   6.023
16622TIP3   OH249742   3.696   8.092   5.087
16622TIP3    H149743   3.621   8.039   5.061
16622TIP3    H249744   3.668   8.137   5.167
16623TIP3   OH249745   4.580   8.360   5.689
16623TIP3    H149746   4.614   8.410   5.614
16623TIP3    H249747   4.502   8.316   5.654
16624TIP3   OH249748   4.164   7.419   4.995
16624TIP3    H149749   4.071   7.396   4.992
16624TIP3    H249750   4.165   7.514   5.008
16625TIP3   OH249751   4.116   8.449   6.098
16625TIP3    H149752   4.153   8.435   6.185
16625TIP3    H249753   4.067   8.532   6.106
16626TIP3   OH249754   4.220   7.685   5.062
16626TIP3    H149755   4.315   7.689   5.072
16626TIP3    H249756   4.198   7.763   5.010
16627TIP3   OH249757   3.390   8.111   5.735
16627TIP3    H149758   3.428   8.094   5.649
16627TIP3    H249759   3.454   8.078   5.798
16628TIP3   OH249760   3.852   8.253   4.932
16628TIP3    H149761   3.804   8.336   4.926
16628TIP3    H249762   3.795   8.196   4.984
16629TIP3   OH249763   3.268   8.039   6.366
16629TIP3    H149764   3.260   8.017   6.459
16629TIP3    H249765   3.192   7.996   6.325
16630TIP3   OH249766   4.010   8.179   6.391
16630TIP3    H149767   3.937   8.122   6.366
16630TIP3    H249768   4.088   8.132   6.360
16631TIP3   OH249769   4.259   8.733   6.005
16631TIP3    H149770   4.165   8.720   6.013
16631TIP3    H249771   4.285   8.770   6.090
16632TIP3   OH249772   4.633   7.769   4.874
16632TIP3    H149773   4.577   7.723   4.811
16632TIP3    H249774   4.639   7.858   4.840
16633TIP3   OH249775   4.893   8.671   5.944
16633TIP3    H149776   4.804   8.636   5.946
16633TIP3    H249777   4.932   8.633   5.866
16634TIP3   OH249778   4.372   8.578   4.812
16634TIP3    H149779   4.347   8.505   4.869
16634TIP3    H249780   4.396   8.537   4.729
16635TIP3   OH249781   4.359   8.219   5.586
16635TIP3    H149782   4.269   8.196   5.611
16635TIP3    H249783   4.394   8.139   5.547
16636TIP3   OH249784   3.515   8.459   5.406
16636TIP3    H149785   3.507   8.532   5.346
16636TIP3    H249786   3.430   8.454   5.450
16637TIP3   OH249787   3.074   7.742   5.118
16637TIP3    H149788   3.117   7.824   5.141
16637TIP3    H249789   2.992   7.742   5.168
16638TIP3   OH249790   3.590   8.216   5.302
16638TIP3    H149791   3.575   8.304   5.335
16638TIP3    H249792   3.567   8.159   5.375
16639TIP3   OH249793   3.795   8.784   5.866
16639TIP3    H149794   3.829   8.857   5.813
16639TIP3    H249795   3.872   8.751   5.912
16640TIP3   OH249796   3.428   8.675   5.250
16640TIP3    H149797   3.342   8.676   5.292
16640TIP3    H249798   3.460   8.765   5.261
16641TIP3   OH249799   4.148   8.446   5.824
16641TIP3    H149800   4.138   8.446   5.920
16641TIP3    H249801   4.211   8.376   5.807
16642TIP3   OH249802   4.145   8.324   4.693
16642TIP3    H149803   4.196   8.296   4.770
16642TIP3    H249804   4.062   8.277   4.701
16643TIP3   OH249805   4.413   8.924   5.872
16643TIP3    H149806   4.345   8.864   5.902
16643TIP3    H249807   4.372   8.973   5.801
16644TIP3   OH249808   4.464   8.785   4.509
16644TIP3    H149809   4.509   8.853   4.458
16644TIP3    H249810   4.386   8.829   4.544
16645TIP3   OH249811   3.490   7.560   6.378
16645TIP3    H149812   3.395   7.569   6.390
16645TIP3    H249813   3.517   7.503   6.450
16646TIP3   OH249814   4.320   8.240   4.887
16646TIP3    H149815   4.303   8.186   4.964
16646TIP3    H249816   4.416   8.246   4.882
16647TIP3   OH249817   3.234   8.628   6.011
16647TIP3    H149818   3.277   8.559   6.061
16647TIP3    H249819   3.273   8.709   6.042
16648TIP3   OH249820   3.494   8.285   4.719
16648TIP3    H149821   3.505   8.195   4.690
16648TIP3    H249822   3.482   8.279   4.814
16649TIP3   OH249823   3.438   8.297   4.992
16649TIP3    H149824   3.494   8.270   5.064
16649TIP3    H249825   3.438   8.393   4.996
16650TIP3   OH249826   3.168   7.993   5.197
16650TIP3    H149827   3.103   8.041   5.248
16650TIP3    H249828   3.188   8.050   5.122
16651TIP3   OH249829   4.344   7.636   6.075
16651TIP3    H149830   4.422   7.676   6.112
16651TIP3    H249831   4.330   7.557   6.128
16652TIP3   OH249832   4.225   7.369   5.263
16652TIP3    H149833   4.203   7.387   5.172
16652TIP3    H249834   4.269   7.448   5.293
16653TIP3   OH249835   3.708   8.482   4.919
16653TIP3    H149836   3.624   8.506   4.958
16653TIP3    H249837   3.734   8.559   4.869
16654TIP3   OH249838   3.872   7.568   5.351
16654TIP3    H149839   3.933   7.637   5.325
16654TIP3    H249840   3.895   7.548   5.441
16655TIP3   OH249841   4.175   7.866   6.118
16655TIP3    H149842   4.192   7.904   6.204
16655TIP3    H249843   4.222   7.782   6.119
16656TIP3   OH249844   4.037   7.265   5.438
16656TIP3    H149845   4.013   7.342   5.489
16656TIP3    H249846   4.106   7.295   5.380
16657TIP3   OH249847   3.460   8.569   5.001
16657TIP3    H149848   3.439   8.641   4.941
16657TIP3    H249849   3.448   8.607   5.088
16658TIP3   OH249850   3.548   7.289   5.244
16658TIP3    H149851   3.536   7.380   5.273
16658TIP3    H249852   3.643   7.274   5.252
16659TIP3   OH249853   4.787   7.740   6.082
16659TIP3    H149854   4.700   7.766   6.111
16659TIP3    H249855   4.772   7.670   6.019
16660TIP3   OH249856   4.452   7.963   5.496
16660TIP3    H149857   4.375   7.907   5.505
16660TIP3    H249858   4.518   7.923   5.552
16661TIP3   OH249859   3.193   8.167   4.979
16661TIP3    H149860   3.266   8.228   4.989
16661TIP3    H249861   3.223   8.105   4.913
16662TIP3   OH249862   3.093   7.464   5.109
16662TIP3    H149863   3.109   7.558   5.120
16662TIP3    H249864   3.024   7.460   5.043
16663TIP3   OH249865   4.435   8.924   5.438
16663TIP3    H149866   4.390   8.979   5.374
16663TIP3    H249867   4.528   8.940   5.423
16664TIP3   OH249868   3.504   7.186   5.976
16664TIP3    H149869   3.472   7.151   5.893
16664TIP3    H249870   3.496   7.112   6.038
16665TIP3   OH249871   3.030   8.425   5.389
16665TIP3    H149872   2.992   8.462   5.469
16665TIP3    H249873   2.982   8.469   5.318
16666TIP3   OH249874   3.194   8.934   6.426
16666TIP3    H149875   3.273   8.885   6.450
16666TIP3    H249876   3.124   8.869   6.430
16667TIP3   OH249877   3.649   8.485   4.607
16667TIP3    H149878   3.602   8.416   4.654
16667TIP3    H249879   3.724   8.441   4.568
16668TIP3   OH249880   4.347   8.836   6.247
16668TIP3    H149881   4.346   8.762   6.307
16668TIP3    H249882   4.430   8.881   6.265
16669TIP3   OH249883   4.091   8.529   4.521
16669TIP3    H149884   4.127   8.465   4.583
16669TIP3    H249885   4.149   8.523   4.445
16670TIP3   OH249886   3.332   8.379   6.623
16670TIP3    H149887   3.357   8.288   6.637
16670TIP3    H249888   3.243   8.375   6.590
16671TIP3   OH249889   3.314   7.979   4.822
16671TIP3    H149890   3.364   7.955   4.900
16671TIP3    H249891   3.381   7.994   4.755
16672TIP3   OH249892   3.951   8.451   6.402
16672TIP3    H149893   3.900   8.473   6.324
16672TIP3    H249894   3.978   8.361   6.389
16673TIP3   OH249895   3.896   8.199   4.666
16673TIP3    H149896   3.872   8.208   4.759
16673TIP3    H249897   3.873   8.109   4.644
16674TIP3   OH249898   4.432   8.508   6.040
16674TIP3    H149899   4.503   8.533   5.981
16674TIP3    H249900   4.363   8.571   6.023
16675TIP3   OH249901   3.470   8.141   6.640
16675TIP3    H149902   3.530   8.070   6.617
16675TIP3    H249903   3.480   8.151   6.735
16676TIP3   OH249904   3.483   7.922   5.037
16676TIP3    H149905   3.462   7.892   5.126
16676TIP3    H249906   3.532   7.849   4.999
16677TIP3   OH249907   3.800   8.016   6.296
16677TIP3    H149908   3.710   8.049   6.302
16677TIP3    H249909   3.828   8.040   6.208
16678TIP3   OH249910   3.630   7.742   4.882
16678TIP3    H149911   3.600   7.746   4.792
16678TIP3    H249912   3.725   7.753   4.876
16679TIP3   OH249913   4.313   8.379   6.384
16679TIP3    H149914   4.381   8.342   6.327
16679TIP3    H249915   4.310   8.321   6.459
16680TIP3   OH249916   4.420   8.024   4.564
16680TIP3    H149917   4.408   7.984   4.477
16680TIP3    H249918   4.399   8.116   4.551
16681TIP3   OH249919   3.907   7.784   6.400
16681TIP3    H149920   3.904   7.713   6.336
16681TIP3    H249921   3.867   7.858   6.354
16682TIP3   OH249922   3.913   7.585   6.197
16682TIP3    H149923   3.935   7.619   6.110
16682TIP3    H249924   3.823   7.553   6.188
16683TIP3   OH249925   3.915   8.098   6.063
16683TIP3    H149926   4.005   8.127   6.046
16683TIP3    H249927   3.861   8.159   6.014
16684TIP3   OH249928   4.511   8.045   6.445
16684TIP3    H149929   4.521   7.951   6.455
16684TIP3    H249930   4.594   8.075   6.407
16685TIP3   OH249931   4.542   8.328   6.209
16685TIP3    H149932   4.492   8.390   6.157
16685TIP3    H249933   4.632   8.337   6.177
16686TIP3   OH249934   3.799   7.862   6.650
16686TIP3    H149935   3.728   7.802   6.674
16686TIP3    H249936   3.821   7.838   6.561
16687TIP3   OH249937   4.049   7.357   6.292
16687TIP3    H149938   4.000   7.435   6.266
16687TIP3    H249939   3.987   7.285   6.280
16688TIP3   OH249940   4.159   7.810   6.507
16688TIP3    H149941   4.146   7.795   6.600
16688TIP3    H249942   4.074   7.793   6.467
16689TIP3   OH249943   4.411   7.775   6.387
16689TIP3    H149944   4.327   7.768   6.434
16689TIP3    H249945   4.475   7.734   6.446
16690TIP3   OH249946   4.658   7.743   6.525
16690TIP3    H149947   4.669   7.648   6.532
16690TIP3    H249948   4.651   7.773   6.615
16691TIP3   OH249949   3.629   7.652   6.718
16691TIP3    H149950   3.626   7.565   6.678
16691TIP3    H249951   3.665   7.637   6.805
16692TIP3   OH249952   4.123   7.327   6.557
16692TIP3    H149953   4.182   7.252   6.545
16692TIP3    H249954   4.083   7.339   6.470
16693TIP3   OH249955   4.202   7.535   6.715
16693TIP3    H149956   4.174   7.462   6.660
16693TIP3    H249957   4.127   7.594   6.716
16694TIP3   OH249958   3.456   8.778   4.817
16694TIP3    H149959   3.543   8.756   4.785
16694TIP3    H249960   3.410   8.813   4.741
16695TIP3   OH249961   2.919   8.176   4.980
16695TIP3    H149962   3.014   8.183   4.986
16695TIP3    H249963   2.904   8.088   4.946
16696TIP3   OH249964   2.827   8.726   5.460
16696TIP3    H149965   2.758   8.677   5.414
16696TIP3    H249966   2.868   8.662   5.517
16697TIP3   OH249967   2.975   8.566   5.628
16697TIP3    H149968   2.969   8.502   5.700
16697TIP3    H249969   3.024   8.639   5.665
16698TIP3   OH249970   4.702   8.984   5.423
16698TIP3    H149971   4.722   9.017   5.510
16698TIP3    H249972   4.756   9.037   5.364
16699TIP3   OH249973   4.718   9.010   5.703
16699TIP3    H149974   4.677   8.924   5.702
16699TIP3    H249975   4.792   9.000   5.763
16700TIP3   OH249976   4.599   8.235   4.892
16700TIP3    H149977   4.655   8.306   4.862
16700TIP3    H249978   4.645   8.198   4.967
16701TIP3   OH249979   4.730   8.093   5.094
16701TIP3    H149980   4.662   8.057   5.150
16701TIP3    H249981   4.794   8.130   5.155
16702TIP3   OH249982   4.777   8.498   5.537
16702TIP3    H149983   4.825   8.429   5.490
16702TIP3    H249984   4.779   8.573   5.478
16703TIP3   OH249985   4.586   8.766   5.726
16703TIP3    H149986   4.520   8.814   5.775
16703TIP3    H249987   4.539   8.726   5.654
16704TIP3   OH249988   4.631   8.009   4.739
16704TIP3    H149989   4.559   8.009   4.677
16704TIP3    H249990   4.617   8.088   4.792
16705TIP3   OH249991   4.484   7.653   4.675
16705TIP3    H149992   4.436   7.691   4.601
16705TIP3    H249993   4.477   7.559   4.663
16706TIP3   OH249994   4.523   7.957   5.227
16706TIP3    H149995   4.526   7.862   5.212
16706TIP3    H249996   4.503   7.965   5.320
16707TIP3   OH249997   3.135   8.029   5.995
16707TIP3    H149998   3.128   7.993   5.907
16707TIP3    H249999   3.228   8.019   6.018
16708TIP3   OH250000   4.794   8.378   6.101
16708TIP3    H150001   4.862   8.312   6.086
16708TIP3    H250002   4.774   8.412   6.013
16709TIP3   OH250003   4.982   8.170   6.094
16709TIP3    H150004   4.909   8.118   6.129
16709TIP3    H250005   5.060   8.124   6.125
16710TIP3   OH250006   4.449   7.380   4.644
16710TIP3    H150007   4.511   7.358   4.713
16710TIP3    H250008   4.365   7.348   4.677
16711TIP3   OH250009   4.515   7.680   5.116
16711TIP3    H150010   4.560   7.597   5.129
16711TIP3    H250011   4.554   7.717   5.038
16712TIP3   OH250012   4.667   7.843   5.640
16712TIP3    H150013   4.749   7.860   5.593
16712TIP3    H250014   4.680   7.885   5.725
16713TIP3   OH250015   4.734   8.002   5.863
16713TIP3    H150016   4.662   8.029   5.919
16713TIP3    H250017   4.763   8.083   5.820
16714TIP3   OH250018   3.366   7.706   6.651
16714TIP3    H150019   3.460   7.703   6.671
16714TIP3    H250020   3.331   7.626   6.688
16715TIP3   OH250021   5.182   7.607   6.390
16715TIP3    H150022   5.257   7.549   6.374
16715TIP3    H250023   5.168   7.653   6.307
16716TIP3   OH250024   4.631   7.430   5.169
16716TIP3    H150025   4.676   7.416   5.252
16716TIP3    H250026   4.568   7.359   5.162
16717TIP3   OH250027   3.344   7.412   5.982
16717TIP3    H150028   3.397   7.333   5.994
16717TIP3    H250029   3.409   7.482   5.970
16718TIP3   OH250030   3.124   7.667   6.060
16718TIP3    H150031   3.176   7.668   5.980
16718TIP3    H250032   3.155   7.744   6.109
16719TIP3   OH250033   5.059   7.746   6.185
16719TIP3    H150034   4.993   7.774   6.248
16719TIP3    H250035   5.018   7.672   6.139
16720TIP3   OH250036   4.673   7.339   4.805
16720TIP3    H150037   4.723   7.278   4.751
16720TIP3    H250038   4.726   7.418   4.810
16721TIP3   OH250039   3.104   7.176   5.552
16721TIP3    H150040   3.021   7.169   5.600
16721TIP3    H250041   3.084   7.234   5.479
16722TIP3   OH250042   4.253   8.915   5.072
16722TIP3    H150043   4.308   8.897   4.996
16722TIP3    H250044   4.304   8.976   5.125
16723TIP3   OH250045   3.362   7.247   6.402
16723TIP3    H150046   3.314   7.242   6.484
16723TIP3    H250047   3.302   7.292   6.342
16724TIP3   OH250048   3.357   8.717   6.477
16724TIP3    H150049   3.274   8.674   6.454
16724TIP3    H250050   3.373   8.692   6.568
16725TIP3   OH250051   3.569   8.734   6.016
16725TIP3    H150052   3.515   8.807   5.983
16725TIP3    H250053   3.653   8.746   5.972
16726TIP3   OH250054   3.981   8.968   6.155
16726TIP3    H150055   4.027   8.958   6.238
16726TIP3    H250056   4.036   9.025   6.102
16727TIP3   OH250057   4.149   9.128   6.009
16727TIP3    H150058   4.194   9.071   5.947
16727TIP3    H250059   4.219   9.168   6.061
16728TIP3   OH250060   4.967   7.450   6.104
16728TIP3    H150061   4.877   7.430   6.077
16728TIP3    H250062   5.012   7.366   6.101
16729TIP3   OH250063   3.226   8.981   6.085
16729TIP3    H150064   3.149   9.010   6.036
16729TIP3    H250065   3.190   8.931   6.158
16730TIP3   OH250066   3.447   8.955   5.918
16730TIP3    H150067   3.368   8.976   5.967
16730TIP3    H250068   3.426   8.977   5.827
16731TIP3   OH250069   3.870   8.989   5.692
16731TIP3    H150070   3.802   8.994   5.625
16731TIP3    H250071   3.877   9.077   5.727
16732TIP3   OH250072   4.127   8.929   5.769
16732TIP3    H150073   4.039   8.945   5.737
16732TIP3    H250074   4.183   8.981   5.711
16733TIP3   OH250075   4.331   9.067   5.648
16733TIP3    H150076   4.333   9.156   5.613
16733TIP3    H250077   4.363   9.012   5.576
16734TIP3   OH250078   3.145   8.752   5.764
16734TIP3    H150079   3.157   8.716   5.852
16734TIP3    H250080   3.221   8.721   5.714
16735TIP3   OH250081   3.353   8.643   5.628
16735TIP3    H150082   3.364   8.559   5.672
16735TIP3    H250083   3.439   8.686   5.634
16736TIP3   OH250084   3.618   8.731   5.655
16736TIP3    H150085   3.639   8.639   5.640
16736TIP3    H250086   3.669   8.755   5.733
16737TIP3   OH250087   4.173   7.384   5.747
16737TIP3    H150088   4.133   7.312   5.796
16737TIP3    H250089   4.241   7.341   5.694
16738TIP3   OH250090   4.672   7.306   5.632
16738TIP3    H150091   4.707   7.355   5.557
16738TIP3    H250092   4.578   7.321   5.629
16739TIP3   OH250093   4.787   7.377   5.392
16739TIP3    H150094   4.856   7.316   5.367
16739TIP3    H250095   4.826   7.464   5.379
16740TIP3   OH250096   3.413   7.082   5.736
16740TIP3    H150097   3.324   7.048   5.751
16740TIP3    H250098   3.467   7.004   5.728
16741TIP3   OH250099   3.225   6.985   5.384
16741TIP3    H150100   3.253   7.037   5.309
16741TIP3    H250101   3.189   7.049   5.445
16742TIP3   OH250102   3.896   7.118   5.637
16742TIP3    H150103   3.944   7.169   5.570
16742TIP3    H250104   3.934   7.148   5.720
16743TIP3   OH250105   4.388   7.272   5.608
16743TIP3    H150106   4.393   7.237   5.519
16743TIP3    H250107   4.392   7.195   5.665
16744TIP3   OH250108   4.446   7.220   5.179
16744TIP3    H150109   4.366   7.266   5.204
16744TIP3    H250110   4.435   7.132   5.216
16745TIP3   OH250111   2.905   8.542   5.178
16745TIP3    H150112   2.820   8.510   5.149
16745TIP3    H250113   2.917   8.624   5.131
16746TIP3   OH250114   3.339   7.121   5.153
16746TIP3    H150115   3.385   7.060   5.097
16746TIP3    H250116   3.407   7.177   5.190
16747TIP3   OH250117   3.824   7.317   5.253
16747TIP3    H150118   3.882   7.264   5.308
16747TIP3    H250119   3.839   7.407   5.283
16748TIP3   OH250120   3.710   8.711   4.745
16748TIP3    H150121   3.796   8.737   4.709
16748TIP3    H250122   3.683   8.637   4.691
16749TIP3   OH250123   4.401   8.848   4.847
16749TIP3    H150124   4.395   8.753   4.841
16749TIP3    H250125   4.365   8.880   4.765
16750TIP3   OH250126   3.615   7.395   6.617
16750TIP3    H150127   3.570   7.317   6.649
16750TIP3    H250128   3.705   7.384   6.645
16751TIP3   OH250129   3.862   7.380   6.753
16751TIP3    H150130   3.924   7.335   6.694
16751TIP3    H250131   3.850   7.318   6.825
16752TIP3   OH250132   3.016   8.550   4.796
16752TIP3    H150133   3.011   8.569   4.890
16752TIP3    H250134   3.099   8.503   4.785
16753TIP3   OH250135   4.709   7.471   6.530
16753TIP3    H150136   4.725   7.440   6.620
16753TIP3    H250137   4.794   7.463   6.486
16754TIP3   OH250138   4.627   8.998   6.028
16754TIP3    H150139   4.555   8.962   5.976
16754TIP3    H250140   4.613   9.093   6.027
16755TIP3   OH250141   5.904   8.383   4.764
16755TIP3    H150142   5.868   8.470   4.746
16755TIP3    H250143   5.834   8.322   4.741
16756TIP3   OH250144   5.906   8.374   5.196
16756TIP3    H150145   5.960   8.358   5.273
16756TIP3    H250146   5.861   8.291   5.181
16757TIP3   OH250147   5.200   8.235   5.544
16757TIP3    H150148   5.239   8.181   5.613
16757TIP3    H250149   5.272   8.257   5.486
16758TIP3   OH250150   6.159   8.685   4.870
16758TIP3    H150151   6.155   8.617   4.938
16758TIP3    H250152   6.182   8.764   4.917
16759TIP3   OH250153   5.200   8.662   5.228
16759TIP3    H150154   5.179   8.569   5.234
16759TIP3    H250155   5.295   8.665   5.217
16760TIP3   OH250156   4.875   7.867   5.009
16760TIP3    H150157   4.836   7.951   5.034
16760TIP3    H250158   4.803   7.818   4.969
16761TIP3   OH250159   4.958   8.180   5.237
16761TIP3    H150160   5.009   8.103   5.261
16761TIP3    H250161   5.024   8.245   5.210
16762TIP3   OH250162   5.849   9.096   4.883
16762TIP3    H150163   5.873   9.032   4.815
16762TIP3    H250164   5.861   9.049   4.965
16763TIP3   OH250165   5.715   8.592   5.202
16763TIP3    H150166   5.763   8.513   5.177
16763TIP3    H250167   5.783   8.653   5.230
16764TIP3   OH250168   6.751   7.908   5.220
16764TIP3    H150169   6.764   7.994   5.260
16764TIP3    H250170   6.785   7.917   5.130
16765TIP3   OH250171   6.116   8.087   5.233
16765TIP3    H150172   6.146   8.000   5.261
16765TIP3    H250173   6.082   8.073   5.145
16766TIP3   OH250174   5.473   7.739   5.193
16766TIP3    H150175   5.451   7.812   5.136
16766TIP3    H250176   5.418   7.667   5.164
16767TIP3   OH250177   6.174   7.847   4.831
16767TIP3    H150178   6.237   7.842   4.903
16767TIP3    H250179   6.224   7.880   4.757
16768TIP3   OH250180   5.099   7.957   5.327
16768TIP3    H150181   5.182   7.937   5.369
16768TIP3    H250182   5.100   7.906   5.246
16769TIP3   OH250183   5.513   8.155   5.145
16769TIP3    H150184   5.608   8.141   5.150
16769TIP3    H250185   5.478   8.073   5.110
16770TIP3   OH250186   6.796   8.130   5.385
16770TIP3    H150187   6.714   8.178   5.372
16770TIP3    H250188   6.836   8.170   5.462
16771TIP3   OH250189   5.446   7.753   5.657
16771TIP3    H150190   5.399   7.786   5.580
16771TIP3    H250191   5.386   7.768   5.730
16772TIP3   OH250192   5.792   8.605   4.641
16772TIP3    H150193   5.749   8.572   4.563
16772TIP3    H250194   5.740   8.681   4.668
16773TIP3   OH250195   5.546   8.516   5.409
16773TIP3    H150196   5.494   8.589   5.443
16773TIP3    H250197   5.596   8.554   5.337
16774TIP3   OH250198   6.324   7.875   5.058
16774TIP3    H150199   6.282   7.853   5.142
16774TIP3    H250200   6.382   7.948   5.080
16775TIP3   OH250201   5.348   7.851   5.416
16775TIP3    H150202   5.403   7.926   5.438
16775TIP3    H250203   5.394   7.808   5.344
16776TIP3   OH250204   5.394   8.718   5.521
16776TIP3    H150205   5.382   8.807   5.489
16776TIP3    H250206   5.314   8.700   5.571
16777TIP3   OH250207   4.768   8.423   4.775
16777TIP3    H150208   4.734   8.446   4.689
16777TIP3    H250209   4.793   8.507   4.814
16778TIP3   OH250210   6.198   8.927   5.010
16778TIP3    H150211   6.111   8.927   5.050
16778TIP3    H250212   6.203   9.011   4.964
16779TIP3   OH250213   6.557   7.786   5.387
16779TIP3    H150214   6.472   7.814   5.355
16779TIP3    H250215   6.619   7.816   5.320
16780TIP3   OH250216   5.794   7.439   5.385
16780TIP3    H150217   5.785   7.347   5.408
16780TIP3    H250218   5.717   7.481   5.423
16781TIP3   OH250219   5.929   8.938   4.666
16781TIP3    H150220   5.982   8.859   4.650
16781TIP3    H250221   5.986   9.010   4.640
16782TIP3   OH250222   6.054   8.689   4.619
16782TIP3    H150223   5.965   8.655   4.632
16782TIP3    H250224   6.094   8.685   4.706
16783TIP3   OH250225   6.435   8.817   5.353
16783TIP3    H150226   6.420   8.742   5.296
16783TIP3    H250227   6.422   8.893   5.296
16784TIP3   OH250228   5.730   8.218   4.625
16784TIP3    H150229   5.645   8.260   4.607
16784TIP3    H250230   5.772   8.212   4.539
16785TIP3   OH250231   5.705   8.023   4.304
16785TIP3    H150232   5.770   8.072   4.354
16785TIP3    H250233   5.755   7.957   4.257
16786TIP3   OH250234   6.625   8.479   5.216
16786TIP3    H150235   6.541   8.526   5.215
16786TIP3    H250236   6.657   8.486   5.126
16787TIP3   OH250237   6.090   8.302   4.584
16787TIP3    H150238   6.032   8.330   4.655
16787TIP3    H250239   6.169   8.270   4.628
16788TIP3   OH250240   6.323   8.338   5.531
16788TIP3    H150241   6.320   8.423   5.576
16788TIP3    H250242   6.241   8.335   5.481
16789TIP3   OH250243   5.316   8.287   4.989
16789TIP3    H150244   5.279   8.227   4.925
16789TIP3    H250245   5.388   8.239   5.029
16790TIP3   OH250246   5.461   8.706   5.133
16790TIP3    H150247   5.436   8.695   5.042
16790TIP3    H250248   5.549   8.668   5.138
16791TIP3   OH250249   5.411   8.283   5.367
16791TIP3    H150250   5.449   8.245   5.287
16791TIP3    H250251   5.460   8.364   5.381
16792TIP3   OH250252   5.957   8.938   5.139
16792TIP3    H150253   5.944   9.016   5.193
16792TIP3    H250254   5.945   8.865   5.200
16793TIP3   OH250255   5.586   8.812   5.696
16793TIP3    H150256   5.527   8.874   5.739
16793TIP3    H250257   5.529   8.762   5.637
16794TIP3   OH250258   5.917   8.168   4.416
16794TIP3    H150259   5.978   8.222   4.468
16794TIP3    H250260   5.944   8.181   4.326
16795TIP3   OH250261   5.335   8.354   5.857
16795TIP3    H150262   5.340   8.449   5.867
16795TIP3    H250263   5.242   8.337   5.842
16796TIP3   OH250264   5.668   8.847   4.681
16796TIP3    H150265   5.754   8.889   4.684
16796TIP3    H250266   5.613   8.906   4.630
16797TIP3   OH250267   5.384   8.983   5.778
16797TIP3    H150268   5.360   8.990   5.685
16797TIP3    H250269   5.302   8.960   5.822
16798TIP3   OH250270   6.428   7.393   4.480
16798TIP3    H150271   6.353   7.417   4.535
16798TIP3    H250272   6.437   7.467   4.419
16799TIP3   OH250273   5.190   8.129   4.790
16799TIP3    H150274   5.114   8.178   4.761
16799TIP3    H250275   5.158   8.040   4.805
16800TIP3   OH250276   6.267   8.775   4.026
16800TIP3    H150277   6.258   8.868   4.003
16800TIP3    H250278   6.352   8.750   3.991
16801TIP3   OH250279   4.982   8.535   5.726
16801TIP3    H150280   4.911   8.519   5.664
16801TIP3    H250281   5.011   8.448   5.752
16802TIP3   OH250282   4.820   8.734   5.391
16802TIP3    H150283   4.907   8.766   5.414
16802TIP3    H250284   4.762   8.808   5.407
16803TIP3   OH250285   6.664   9.172   5.428
16803TIP3    H150286   6.668   9.078   5.443
16803TIP3    H250287   6.585   9.201   5.475
16804TIP3   OH250288   5.780   8.932   5.546
16804TIP3    H150289   5.783   9.023   5.575
16804TIP3    H250290   5.709   8.892   5.596
16805TIP3   OH250291   5.569   9.047   4.506
16805TIP3    H150292   5.525   9.028   4.423
16805TIP3    H250293   5.532   9.131   4.534
16806TIP3   OH250294   4.993   8.907   4.883
16806TIP3    H150295   5.038   8.904   4.967
16806TIP3    H250296   4.946   8.824   4.877
16807TIP3   OH250297   5.762   8.998   4.130
16807TIP3    H150298   5.811   8.924   4.095
16807TIP3    H250299   5.799   9.012   4.218
16808TIP3   OH250300   5.822   9.032   4.401
16808TIP3    H150301   5.736   9.031   4.442
16808TIP3    H250302   5.883   9.008   4.471
16809TIP3   OH250303   6.559   8.302   5.702
16809TIP3    H150304   6.479   8.311   5.650
16809TIP3    H250305   6.580   8.209   5.697
16810TIP3   OH250306   5.178   8.725   5.693
16810TIP3    H150307   5.226   8.712   5.775
16810TIP3    H250308   5.107   8.661   5.696
16811TIP3   OH250309   5.556   7.534   5.513
16811TIP3    H150310   5.474   7.498   5.480
16811TIP3    H250311   5.531   7.614   5.559
16812TIP3   OH250312   6.097   7.660   5.706
16812TIP3    H150313   6.166   7.632   5.767
16812TIP3    H250314   6.015   7.640   5.753
16813TIP3   OH250315   6.325   8.066   5.600
16813TIP3    H150316   6.297   8.067   5.691
16813TIP3    H250317   6.314   8.156   5.570
16814TIP3   OH250318   5.998   8.196   4.160
16814TIP3    H150319   5.954   8.180   4.077
16814TIP3    H250320   6.085   8.228   4.135
16815TIP3   OH250321   5.705   7.571   4.476
16815TIP3    H150322   5.667   7.579   4.563
16815TIP3    H250323   5.671   7.489   4.442
16816TIP3   OH250324   5.496   8.064   5.517
16816TIP3    H150325   5.449   8.070   5.601
16816TIP3    H250326   5.472   8.145   5.471
16817TIP3   OH250327   5.374   7.941   5.037
16817TIP3    H150328   5.284   7.917   5.061
16817TIP3    H250329   5.383   7.910   4.947
16818TIP3   OH250330   5.855   8.016   4.763
16818TIP3    H150331   5.806   8.087   4.721
16818TIP3    H250332   5.912   7.982   4.694
16819TIP3   OH250333   6.043   8.289   5.832
16819TIP3    H150334   6.024   8.213   5.887
16819TIP3    H250335   6.135   8.309   5.849
16820TIP3   OH250336   6.028   8.033   4.980
16820TIP3    H150337   5.957   8.051   4.918
16820TIP3    H250338   6.075   7.959   4.942
16821TIP3   OH250339   5.333   8.081   5.738
16821TIP3    H150340   5.337   8.146   5.808
16821TIP3    H250341   5.307   8.000   5.783
16822TIP3   OH250342   5.375   7.551   4.454
16822TIP3    H150343   5.366   7.557   4.549
16822TIP3    H250344   5.296   7.594   4.420
16823TIP3   OH250345   4.922   7.597   5.316
16823TIP3    H150346   4.998   7.632   5.363
16823TIP3    H250347   4.956   7.577   5.228
16824TIP3   OH250348   4.822   7.573   4.817
16824TIP3    H150349   4.867   7.609   4.740
16824TIP3    H250350   4.758   7.640   4.840
16825TIP3   OH250351   6.074   8.287   5.409
16825TIP3    H150352   6.096   8.221   5.344
16825TIP3    H250353   6.025   8.240   5.476
16826TIP3   OH250354   5.743   7.730   5.087
16826TIP3    H150355   5.664   7.728   5.142
16826TIP3    H250356   5.815   7.720   5.149
16827TIP3   OH250357   5.134   7.817   5.094
16827TIP3    H150358   5.046   7.822   5.056
16827TIP3    H250359   5.162   7.727   5.078
16828TIP3   OH250360   5.388   7.822   4.790
16828TIP3    H150361   5.483   7.831   4.780
16828TIP3    H250362   5.353   7.839   4.702
16829TIP3   OH250363   6.177   7.825   5.295
16829TIP3    H150364   6.155   7.842   5.387
16829TIP3    H250365   6.112   7.760   5.267
16830TIP3   OH250366   5.279   7.844   4.539
16830TIP3    H150367   5.216   7.793   4.487
16830TIP3    H250368   5.334   7.888   4.474
16831TIP3   OH250369   9.654   0.282   5.515
16831TIP3    H150370   9.648   0.301   5.421
16831TIP3    H250371   9.733   0.329   5.544
16832TIP3   OH250372   5.321   8.632   5.932
16832TIP3    H150373   5.404   8.652   5.976
16832TIP3    H250374   5.254   8.648   5.998
16833TIP3   OH250375   5.788   8.106   5.194
16833TIP3    H150376   5.853   8.056   5.145
16833TIP3    H250377   5.785   8.063   5.280
16834TIP3   OH250378   5.276   7.568   5.080
16834TIP3    H150379   5.249   7.493   5.132
16834TIP3    H250380   5.293   7.531   4.993
16835TIP3   OH250381   5.759   8.004   5.457
16835TIP3    H150382   5.671   8.036   5.481
16835TIP3    H250383   5.819   8.058   5.508
16836TIP3   OH250384   5.492   8.351   4.571
16836TIP3    H150385   5.416   8.298   4.546
16836TIP3    H250386   5.465   8.394   4.652
16837TIP3   OH250387   6.386   8.614   5.173
16837TIP3    H150388   6.425   8.662   5.101
16837TIP3    H250389   6.309   8.572   5.136
16838TIP3   OH250390   5.959   7.671   4.487
16838TIP3    H150391   5.866   7.650   4.480
16838TIP3    H250392   5.961   7.767   4.495
16839TIP3   OH250393   5.905   8.683   5.585
16839TIP3    H150394   5.968   8.689   5.657
16839TIP3    H250395   5.864   8.769   5.582
16840TIP3   OH250396   6.017   7.939   4.547
16840TIP3    H150397   6.113   7.942   4.554
16840TIP3    H250398   5.995   8.013   4.491
16841TIP3   OH250399   5.183   8.372   5.217
16841TIP3    H150400   5.220   8.354   5.131
16841TIP3    H250401   5.250   8.343   5.279
16842TIP3   OH250402   5.650   8.512   4.418
16842TIP3    H150403   5.601   8.593   4.411
16842TIP3    H250404   5.592   8.453   4.467
16843TIP3   OH250405   5.060   8.293   5.857
16843TIP3    H150406   5.052   8.261   5.946
16843TIP3    H250407   4.985   8.255   5.811
16844TIP3   OH250408   5.809   8.420   5.918
16844TIP3    H150409   5.737   8.371   5.878
16844TIP3    H250410   5.887   8.389   5.872
16845TIP3   OH250411   6.050   8.989   5.481
16845TIP3    H150412   5.956   8.969   5.479
16845TIP3    H250413   6.064   9.027   5.568
16846TIP3   OH250414   6.425   8.036   4.355
16846TIP3    H150415   6.387   8.007   4.272
16846TIP3    H250416   6.513   8.066   4.332
16847TIP3   OH250417   6.679   8.889   5.451
16847TIP3    H150418   6.585   8.877   5.438
16847TIP3    H250419   6.718   8.867   5.367
16848TIP3   OH250420   6.180   8.843   4.282
16848TIP3    H150421   6.114   8.778   4.305
16848TIP3    H250422   6.214   8.814   4.197
16849TIP3   OH250423   6.159   8.478   5.065
16849TIP3    H150424   6.070   8.455   5.093
16849TIP3    H250425   6.193   8.397   5.027
16850TIP3   OH250426   5.313   8.712   4.895
16850TIP3    H150427   5.310   8.788   4.836
16850TIP3    H250428   5.224   8.706   4.930
16851TIP3   OH250429   4.872   8.000   4.605
16851TIP3    H150430   4.914   8.084   4.627
16851TIP3    H250431   4.790   8.001   4.654
16852TIP3   OH250432   5.394   8.470   4.793
16852TIP3    H150433   5.377   8.559   4.824
16852TIP3    H250434   5.367   8.413   4.865
16853TIP3   OH250435   5.598   9.025   5.345
16853TIP3    H150436   5.636   9.100   5.298
16853TIP3    H250437   5.673   8.985   5.390
16854TIP3   OH250438   5.229   8.931   4.743
16854TIP3    H150439   5.141   8.937   4.780
16854TIP3    H250440   5.263   9.020   4.748
16855TIP3   OH250441   5.945   8.710   5.311
16855TIP3    H150442   5.930   8.696   5.404
16855TIP3    H250443   6.027   8.664   5.292
16856TIP3   OH250444   5.950   8.577   4.195
16856TIP3    H150445   5.966   8.553   4.286
16856TIP3    H250446   5.866   8.536   4.174
16857TIP3   OH250447   6.207   9.185   5.351
16857TIP3    H150448   6.136   9.129   5.382
16857TIP3    H250449   6.166   9.243   5.287
16858TIP3   OH250450   6.255   9.045   3.990
16858TIP3    H150451   6.278   9.104   3.919
16858TIP3    H250452   6.183   9.089   4.036
16859TIP3   OH250453   5.256   7.836   5.858
16859TIP3    H150454   5.161   7.849   5.865
16859TIP3    H250455   5.277   7.774   5.928
16860TIP3   OH250456   6.200   8.519   4.462
16860TIP3    H150457   6.147   8.446   4.494
16860TIP3    H250458   6.163   8.597   4.505
16861TIP3   OH250459   5.020   8.925   5.501
16861TIP3    H150460   5.081   8.875   5.556
16861TIP3    H250461   5.029   9.015   5.532
16862TIP3   OH250462   5.295   8.541   4.202
16862TIP3    H150463   5.303   8.450   4.174
16862TIP3    H250464   5.279   8.536   4.296
16863TIP3   OH250465   5.233   8.558   4.473
16863TIP3    H150466   5.292   8.533   4.543
16863TIP3    H250467   5.231   8.654   4.476
16864TIP3   OH250468   4.966   8.252   4.683
16864TIP3    H150469   4.900   8.299   4.734
16864TIP3    H250470   4.985   8.309   4.608
16865TIP3   OH250471   6.116   7.890   5.558
16865TIP3    H150472   6.200   7.930   5.579
16865TIP3    H250473   6.112   7.812   5.613
16866TIP3   OH250474   6.022   7.626   4.753
16866TIP3    H150475   6.000   7.642   4.661
16866TIP3    H250476   6.067   7.706   4.781
16867TIP3   OH250477   5.505   8.739   4.408
16867TIP3    H150478   5.422   8.763   4.448
16867TIP3    H250479   5.527   8.813   4.351
16868TIP3   OH250480   5.668   7.826   4.837
16868TIP3    H150481   5.730   7.893   4.810
16868TIP3    H250482   5.693   7.804   4.927
16869TIP3   OH250483   5.963   8.125   5.602
16869TIP3    H150484   5.991   8.166   5.684
16869TIP3    H250485   6.013   8.043   5.599
16870TIP3   OH250486   5.832   7.519   4.923
16870TIP3    H150487   5.808   7.597   4.974
16870TIP3    H250488   5.903   7.549   4.866
16871TIP3   OH250489   5.258   8.831   4.491
16871TIP3    H150490   5.240   8.905   4.434
16871TIP3    H250491   5.247   8.865   4.580
16872TIP3   OH250492   5.343   7.548   4.734
16872TIP3    H150493   5.332   7.639   4.761
16872TIP3    H250494   5.437   7.533   4.740
16873TIP3   OH250495   6.596   8.039   5.607
16873TIP3    H150496   6.500   8.029   5.604
16873TIP3    H250497   6.624   8.016   5.518
16874TIP3   OH250498   6.252   8.220   4.974
16874TIP3    H150499   6.176   8.163   4.985
16874TIP3    H250500   6.319   8.182   5.031
16875TIP3   OH250501   4.989   8.424   4.464
16875TIP3    H150502   5.059   8.488   4.471
16875TIP3    H250503   5.019   8.362   4.398
16876TIP3   OH250504   4.891   7.722   4.597
16876TIP3    H150505   4.905   7.816   4.608
16876TIP3    H250506   4.834   7.715   4.521
16877TIP3   OH250507   6.227   9.188   4.925
16877TIP3    H150508   6.186   9.240   4.856
16877TIP3    H250509   6.321   9.202   4.912
16878TIP3   OH250510   5.298   7.442   5.467
16878TIP3    H150511   5.268   7.410   5.382
16878TIP3    H250512   5.288   7.367   5.526
16879TIP3   OH250513   4.827   8.680   4.873
16879TIP3    H150514   4.790   8.715   4.954
16879TIP3    H250515   4.776   8.723   4.804
16880TIP3   OH250516   4.997   9.220   5.926
16880TIP3    H150517   5.081   9.214   5.973
16880TIP3    H250518   4.966   9.129   5.922
16881TIP3   OH250519   5.484   9.153   5.971
16881TIP3    H150520   5.574   9.124   5.984
16881TIP3    H250521   5.451   9.098   5.900
16882TIP3   OH250522   5.444   8.746   4.093
16882TIP3    H150523   5.396   8.675   4.137
16882TIP3    H250524   5.517   8.702   4.051
16883TIP3   OH250525   6.097   9.083   5.736
16883TIP3    H150526   6.117   9.011   5.796
16883TIP3    H250527   6.171   9.143   5.744
16884TIP3   OH250528   5.886   8.784   4.015
16884TIP3    H150529   5.931   8.720   4.071
16884TIP3    H250530   5.936   8.782   3.933
16885TIP3   OH250531   5.081   8.642   6.144
16885TIP3    H150532   5.120   8.556   6.134
16885TIP3    H250533   5.018   8.649   6.072
16886TIP3   OH250534   5.111   8.235   4.308
16886TIP3    H150535   5.161   8.212   4.386
16886TIP3    H250536   5.177   8.250   4.240
16887TIP3   OH250537   5.741   8.717   5.904
16887TIP3    H150538   5.699   8.736   5.820
16887TIP3    H250539   5.782   8.632   5.891
16888TIP3   OH250540   5.706   8.457   4.153
16888TIP3    H150541   5.677   8.466   4.243
16888TIP3    H250542   5.683   8.367   4.130
16889TIP3   OH250543   6.215   8.767   5.512
16889TIP3    H150544   6.293   8.789   5.461
16889TIP3    H250545   6.155   8.839   5.497
16890TIP3   OH250546   5.222   8.412   6.127
16890TIP3    H150547   5.283   8.365   6.069
16890TIP3    H250548   5.263   8.407   6.213
16891TIP3   OH250549   5.282   8.177   4.521
16891TIP3    H150550   5.261   8.145   4.609
16891TIP3    H250551   5.332   8.105   4.482
16892TIP3   OH250552   5.605   8.262   5.804
16892TIP3    H150553   5.516   8.294   5.813
16892TIP3    H250554   5.633   8.292   5.718
16893TIP3   OH250555   5.432   7.997   4.368
16893TIP3    H150556   5.400   8.001   4.278
16893TIP3    H250557   5.527   8.002   4.360
16894TIP3   OH250558   6.098   8.627   5.878
16894TIP3    H150559   6.161   8.583   5.821
16894TIP3    H250560   6.080   8.565   5.948
16895TIP3   OH250561   6.239   8.295   4.059
16895TIP3    H150562   6.229   8.244   3.978
16895TIP3    H250563   6.212   8.384   4.034
16896TIP3   OH250564   5.729   8.029   5.895
16896TIP3    H150565   5.723   7.958   5.831
16896TIP3    H250566   5.686   8.103   5.854
16897TIP3   OH250567   5.709   7.835   5.690
16897TIP3    H150568   5.735   7.870   5.605
16897TIP3    H250569   5.617   7.810   5.679
16898TIP3   OH250570   5.708   8.370   5.577
16898TIP3    H150571   5.796   8.403   5.560
16898TIP3    H250572   5.652   8.421   5.519
16899TIP3   OH250573   6.301   8.341   5.938
16899TIP3    H150574   6.353   8.263   5.919
16899TIP3    H250575   6.365   8.413   5.936
16900TIP3   OH250576   6.341   8.583   5.669
16900TIP3    H150577   6.287   8.647   5.622
16900TIP3    H250578   6.430   8.601   5.638
16901TIP3   OH250579   5.658   8.094   6.152
16901TIP3    H150580   5.578   8.046   6.174
16901TIP3    H250581   5.676   8.070   6.061
16902TIP3   OH250582   5.833   7.604   5.788
16902TIP3    H150583   5.791   7.683   5.755
16902TIP3    H250584   5.767   7.535   5.776
16903TIP3   OH250585   5.995   8.065   5.977
16903TIP3    H150586   6.012   8.043   6.069
16903TIP3    H250587   5.906   8.035   5.961
16904TIP3   OH250588   6.244   8.053   5.854
16904TIP3    H150589   6.161   8.043   5.901
16904TIP3    H250590   6.310   8.021   5.916
16905TIP3   OH250591   6.447   7.985   6.027
16905TIP3    H150592   6.460   7.890   6.032
16905TIP3    H250593   6.433   8.012   6.118
16906TIP3   OH250594   5.448   7.902   6.186
16906TIP3    H150595   5.442   7.816   6.144
16906TIP3    H250596   5.480   7.884   6.274
16907TIP3   OH250597   5.914   7.574   6.047
16907TIP3    H150598   5.982   7.507   6.036
16907TIP3    H250599   5.878   7.586   5.959
16908TIP3   OH250600   5.936   7.799   6.200
16908TIP3    H150601   5.949   7.727   6.138
16908TIP3    H250602   5.843   7.794   6.223
16909TIP3   OH250603   5.266   9.054   4.323
16909TIP3    H150604   5.351   9.026   4.290
16909TIP3    H250605   5.219   9.085   4.246
16910TIP3   OH250606   4.715   8.426   4.483
16910TIP3    H150607   4.810   8.437   4.479
16910TIP3    H250608   4.699   8.341   4.442
16911TIP3   OH250609   4.623   8.977   4.951
16911TIP3    H150610   4.559   8.928   4.899
16911TIP3    H250611   4.667   8.910   5.004
16912TIP3   OH250612   4.774   8.814   5.117
16912TIP3    H150613   4.771   8.752   5.190
16912TIP3    H250614   4.820   8.890   5.152
16913TIP3   OH250615   9.766  -0.002   4.921
16913TIP3    H150616   9.784   0.034   5.008
16913TIP3    H250617   9.819   0.051   4.862
16914TIP3   OH250618   9.777   0.040   5.203
16914TIP3    H150619   9.734  -0.045   5.193
16914TIP3    H250620   9.847   0.023   5.266
16915TIP3   OH250621   6.576   8.974   5.784
16915TIP3    H150622   6.504   8.988   5.845
16915TIP3    H250623   6.621   9.059   5.781
16916TIP3   OH250624   6.478   8.417   4.583
16916TIP3    H150625   6.438   8.348   4.636
16916TIP3    H250626   6.565   8.430   4.622
16917TIP3   OH250627   6.573   8.747   5.015
16917TIP3    H150628   6.623   8.679   4.970
16917TIP3    H250629   6.578   8.823   4.957
16918TIP3   OH250630   6.377   9.034   5.198
16918TIP3    H150631   6.312   9.081   5.250
16918TIP3    H250632   6.327   8.996   5.126
16919TIP3   OH250633   6.364   8.307   4.302
16919TIP3    H150634   6.322   8.301   4.216
16919TIP3    H250635   6.378   8.216   4.328
16920TIP3   OH250636   6.285   7.945   4.140
16920TIP3    H150637   6.232   7.964   4.062
16920TIP3    H250638   6.273   7.851   4.155
16921TIP3   OH250639   6.324   8.218   4.705
16921TIP3    H150640   6.336   8.124   4.687
16921TIP3    H250641   6.307   8.221   4.799
16922TIP3   OH250642   4.936   8.270   5.493
16922TIP3    H150643   4.927   8.242   5.402
16922TIP3    H250644   5.030   8.267   5.510
16923TIP3   OH250645   6.600   8.632   5.581
16923TIP3    H150646   6.665   8.564   5.562
16923TIP3    H250647   6.625   8.705   5.524
16924TIP3   OH250648   6.772   8.415   5.568
16924TIP3    H150649   6.699   8.378   5.617
16924TIP3    H250650   6.847   8.359   5.589
16925TIP3   OH250651   6.232   7.679   4.166
16925TIP3    H150652   6.303   7.638   4.215
16925TIP3    H250653   6.155   7.626   4.187
16926TIP3   OH250654   6.311   7.942   4.596
16926TIP3    H150655   6.356   7.859   4.609
16926TIP3    H250656   6.349   7.978   4.516
16927TIP3   OH250657   6.468   8.108   5.121
16927TIP3    H150658   6.547   8.125   5.071
16927TIP3    H250659   6.484   8.148   5.207
16928TIP3   OH250660   6.543   8.253   5.353
16928TIP3    H150661   6.470   8.283   5.408
16928TIP3    H250662   6.573   8.332   5.308
16929TIP3   OH250663   5.190   8.003   6.185
16929TIP3    H150664   5.281   7.977   6.178
16929TIP3    H250665   5.141   7.920   6.186
16930TIP3   OH250666   7.000   7.842   5.896
16930TIP3    H150667   7.067   7.790   5.853
16930TIP3    H250668   6.961   7.894   5.826
16931TIP3   OH250669   6.422   7.692   4.657
16931TIP3    H150670   6.469   7.680   4.740
16931TIP3    H250671   6.362   7.618   4.652
16932TIP3   OH250672   5.136   7.668   5.481
16932TIP3    H150673   5.189   7.588   5.487
16932TIP3    H250674   5.200   7.737   5.462
16933TIP3   OH250675   4.912   7.935   5.542
16933TIP3    H150676   4.964   7.918   5.464
16933TIP3    H250677   4.930   8.027   5.563
16934TIP3   OH250678   6.848   7.960   5.702
16934TIP3    H150679   6.765   8.002   5.723
16934TIP3    H250680   6.824   7.885   5.648
16935TIP3   OH250681   6.463   7.590   4.293
16935TIP3    H150682   6.506   7.531   4.232
16935TIP3    H250683   6.523   7.664   4.302
16936TIP3   OH250684   4.901   7.453   5.049
16936TIP3    H150685   4.816   7.436   5.089
16936TIP3    H250686   4.881   7.502   4.970
16937TIP3   OH250687   6.065   9.144   4.564
16937TIP3    H150688   6.122   9.144   4.487
16937TIP3    H250689   6.095   9.218   4.616
16938TIP3   OH250690   5.128   7.502   5.876
16938TIP3    H150691   5.073   7.491   5.954
16938TIP3    H250692   5.071   7.545   5.812
16939TIP3   OH250693   5.165   8.939   5.944
16939TIP3    H150694   5.070   8.934   5.934
16939TIP3    H250695   5.178   8.973   6.032
16940TIP3   OH250696   5.371   8.993   5.496
16940TIP3    H150697   5.311   9.056   5.454
16940TIP3    H250698   5.454   9.005   5.451
16941TIP3   OH250699   5.800   9.188   5.625
16941TIP3    H150700   5.820   9.191   5.718
16941TIP3    H250701   5.855   9.256   5.586
16942TIP3   OH250702   9.187   0.188   5.549
16942TIP3    H150703   9.208   0.175   5.456
16942TIP3    H250704   9.267   0.225   5.586
16943TIP3   OH250705   6.758   7.721   5.587
16943TIP3    H150706   6.679   7.727   5.534
16943TIP3    H250707   6.785   7.629   5.579
16944TIP3   OH250708   5.017   9.206   5.542
16944TIP3    H150709   4.928   9.230   5.517
16944TIP3    H250710   5.044   9.275   5.603
16945TIP3   OH250711   5.231   9.190   5.368
16945TIP3    H150712   5.150   9.202   5.418
16945TIP3    H250713   5.209   9.218   5.280
16946TIP3   OH250714   8.925   0.015   5.197
16946TIP3    H150715   8.878   0.016   5.113
16946TIP3    H250716   8.866   0.058   5.258
16947TIP3   OH250717   5.920   9.191   5.246
16947TIP3    H150718   5.831   9.219   5.225
16947TIP3    H250719   5.976   9.249   5.195
16948TIP3   OH250720   9.390   0.100   5.130
16948TIP3    H150721   9.403   0.189   5.098
16948TIP3    H250722   9.422   0.043   5.060
16949TIP3   OH250723   4.935   9.013   5.249
16949TIP3    H150724   4.961   8.988   5.337
16949TIP3    H250725   5.008   8.987   5.193
16950TIP3   OH250726   5.143   8.903   5.114
16950TIP3    H150727   5.156   8.820   5.160
16950TIP3    H250728   5.229   8.946   5.117
16951TIP3   OH250729   5.412   8.984   5.139
16951TIP3    H150730   5.431   8.891   5.124
16951TIP3    H250731   5.466   9.008   5.214
16952TIP3   OH250732   5.970   7.636   5.228
16952TIP3    H150733   5.930   7.564   5.277
16952TIP3    H250734   6.039   7.594   5.176
16953TIP3   OH250735   6.477   7.560   5.109
16953TIP3    H150736   6.512   7.612   5.037
16953TIP3    H250737   6.383   7.581   5.111
16954TIP3   OH250738   6.589   7.651   4.874
16954TIP3    H150739   6.654   7.584   4.851
16954TIP3    H250740   6.632   7.734   4.854
16955TIP3   OH250741   5.207   7.341   5.226
16955TIP3    H150742   5.118   7.308   5.237
16955TIP3    H250743   5.261   7.263   5.216
16956TIP3   OH250744   5.035   7.258   4.886
16956TIP3    H150745   5.057   7.305   4.805
16956TIP3    H250746   4.997   7.325   4.943
16957TIP3   OH250747   5.691   7.377   5.123
16957TIP3    H150748   5.738   7.423   5.054
16957TIP3    H250749   5.732   7.408   5.204
16958TIP3   OH250750   6.186   7.519   5.098
16958TIP3    H150751   6.201   7.484   5.010
16958TIP3    H250752   6.194   7.443   5.156
16959TIP3   OH250753   6.243   7.477   4.668
16959TIP3    H150754   6.163   7.523   4.693
16959TIP3    H250755   6.232   7.389   4.704
16960TIP3   OH250756   4.694   8.798   4.669
16960TIP3    H150757   4.609   8.771   4.635
16960TIP3    H250758   4.717   8.876   4.619
16961TIP3   OH250759   5.135   7.380   4.641
16961TIP3    H150760   5.181   7.318   4.585
16961TIP3    H250761   5.204   7.436   4.677
16962TIP3   OH250762   5.618   7.574   4.739
16962TIP3    H150763   5.677   7.520   4.791
16962TIP3    H250764   5.635   7.664   4.769
16963TIP3   OH250765   5.511   8.966   4.238
16963TIP3    H150766   5.592   8.994   4.197
16963TIP3    H250767   5.478   8.897   4.180
16964TIP3   OH250768   6.212   9.112   4.331
16964TIP3    H150769   6.209   9.017   4.320
16964TIP3    H250770   6.171   9.147   4.252
16965TIP3   OH250771   5.450   7.625   6.113
16965TIP3    H150772   5.412   7.564   6.176
16965TIP3    H250773   5.542   7.630   6.137
16966TIP3   OH250774   5.704   7.625   6.234
16966TIP3    H150775   5.773   7.588   6.180
16966TIP3    H250776   5.688   7.561   6.302
16967TIP3   OH250777   4.803   8.808   4.277
16967TIP3    H150778   4.796   8.850   4.363
16967TIP3    H250779   4.888   8.766   4.277
16968TIP3   OH250780   6.507   7.715   6.018
16968TIP3    H150781   6.526   7.684   6.107
16968TIP3    H250782   6.592   7.711   5.973
16969TIP3   OH250783   9.683   0.008   5.527
16969TIP3    H150784   9.613  -0.021   5.468
16969TIP3    H250785   9.674   0.103   5.529
16970TIP3   OH250786   7.690   8.641   4.269
16970TIP3    H150787   7.651   8.727   4.251
16970TIP3    H250788   7.625   8.578   4.238
16971TIP3   OH250789   7.666   8.621   4.680
16971TIP3    H150790   7.722   8.608   4.757
16971TIP3    H250791   7.626   8.535   4.665
16972TIP3   OH250792   6.983   8.469   5.025
16972TIP3    H150793   7.024   8.427   5.101
16972TIP3    H250794   7.056   8.497   4.970
16973TIP3   OH250795   7.982   8.878   4.332
16973TIP3    H150796   7.940   8.826   4.400
16973TIP3    H250797   7.996   8.964   4.373
16974TIP3   OH250798   6.982   8.907   4.716
16974TIP3    H150799   6.966   8.813   4.716
16974TIP3    H250800   7.076   8.915   4.701
16975TIP3   OH250801   6.650   8.157   4.519
16975TIP3    H150802   6.690   8.234   4.559
16975TIP3    H250803   6.681   8.083   4.571
16976TIP3   OH250804   6.747   8.424   4.694
16976TIP3    H150805   6.801   8.349   4.718
16976TIP3    H250806   6.811   8.495   4.679
16977TIP3   OH250807   1.055   0.130   4.339
16977TIP3    H150808   1.098   0.064   4.285
16977TIP3    H250809   1.000   0.081   4.399
16978TIP3   OH250810   7.482   8.839   4.677
16978TIP3    H150811   7.523   8.756   4.650
16978TIP3    H250812   7.555   8.892   4.710
16979TIP3   OH250813   8.544   8.155   4.709
16979TIP3    H150814   8.548   8.241   4.750
16979TIP3    H250815   8.574   8.170   4.619
16980TIP3   OH250816   7.905   8.333   4.727
16980TIP3    H150817   7.939   8.248   4.755
16980TIP3    H250818   7.866   8.316   4.640
16981TIP3   OH250819   7.963   8.098   4.322
16981TIP3    H150820   8.025   8.082   4.393
16981TIP3    H250821   8.016   8.130   4.249
16982TIP3   OH250822   6.901   8.202   4.760
16982TIP3    H150823   6.963   8.198   4.832
16982TIP3    H250824   6.947   8.162   4.686
16983TIP3   OH250825   7.297   8.382   4.645
16983TIP3    H150826   7.393   8.378   4.644
16983TIP3    H250827   7.269   8.291   4.642
16984TIP3   OH250828   8.551   8.380   4.872
16984TIP3    H150829   8.466   8.413   4.845
16984TIP3    H250830   8.601   8.458   4.895
16985TIP3   OH250831   7.249   8.007   5.135
16985TIP3    H150832   7.201   8.044   5.062
16985TIP3    H250833   7.195   8.024   5.212
16986TIP3   OH250834   7.539   8.846   4.161
16986TIP3    H150835   7.535   8.837   4.066
16986TIP3    H250836   7.498   8.930   4.180
16987TIP3   OH250837   7.328   8.766   4.895
16987TIP3    H150838   7.279   8.840   4.930
16987TIP3    H250839   7.375   8.803   4.820
16988TIP3   OH250840   8.119   8.083   4.545
16988TIP3    H150841   8.074   8.072   4.629
16988TIP3    H250842   8.170   8.163   4.556
16989TIP3   OH250843   7.110   8.131   4.934
16989TIP3    H150844   7.168   8.204   4.957
16989TIP3    H250845   7.143   8.101   4.849
16990TIP3   OH250846   7.182   8.972   5.008
16990TIP3    H150847   7.168   9.061   4.974
16990TIP3    H250848   7.105   8.954   5.062
16991TIP3   OH250849   8.001   9.137   4.432
16991TIP3    H150850   7.919   9.138   4.483
16991TIP3    H250851   7.989   9.206   4.367
16992TIP3   OH250852   8.354   8.041   4.881
16992TIP3    H150853   8.269   8.079   4.861
16992TIP3    H250854   8.412   8.074   4.813
16993TIP3   OH250855   7.604   7.715   4.887
16993TIP3    H150856   7.582   7.625   4.865
16993TIP3    H250857   7.521   7.752   4.919
16994TIP3   OH250858   7.705   9.199   4.160
16994TIP3    H150859   7.754   9.118   4.147
16994TIP3    H250860   7.761   9.267   4.124
16995TIP3   OH250861   7.854   8.981   4.112
16995TIP3    H150862   7.868   8.923   4.037
16995TIP3    H250863   7.902   8.939   4.183
16996TIP3   OH250864   8.254   8.982   4.793
16996TIP3    H150865   8.223   8.915   4.731
16996TIP3    H250866   8.184   9.047   4.794
16997TIP3   OH250867   7.528   8.476   4.112
16997TIP3    H150868   7.449   8.525   4.092
16997TIP3    H250869   7.576   8.473   4.029
16998TIP3   OH250870   7.492   8.286   3.797
16998TIP3    H150871   7.556   8.335   3.848
16998TIP3    H250872   7.543   8.217   3.754
16999TIP3   OH250873   8.352   8.647   4.630
16999TIP3    H150874   8.265   8.687   4.633
16999TIP3    H250875   8.390   8.679   4.548
17000TIP3   OH250876   7.871   8.574   4.073
17000TIP3    H150877   7.817   8.604   4.147
17000TIP3    H250878   7.949   8.538   4.114
17001TIP3   OH250879   8.086   8.563   5.009
17001TIP3    H150880   8.092   8.642   5.063
17001TIP3    H250881   8.004   8.573   4.961
17002TIP3   OH250882   7.120   8.529   4.480
17002TIP3    H150883   7.088   8.472   4.411
17002TIP3    H250884   7.188   8.478   4.524
17003TIP3   OH250885   7.239   8.963   4.615
17003TIP3    H150886   7.215   8.950   4.523
17003TIP3    H250887   7.325   8.922   4.624
17004TIP3   OH250888   7.193   8.532   4.853
17004TIP3    H150889   7.233   8.489   4.778
17004TIP3    H250890   7.244   8.612   4.865
17005TIP3   OH250891   7.794   9.137   4.609
17005TIP3    H150892   7.734   9.211   4.618
17005TIP3    H250893   7.750   9.064   4.653
17006TIP3   OH250894   7.376   9.074   5.180
17006TIP3    H150895   7.312   9.128   5.227
17006TIP3    H250896   7.323   9.021   5.121
17007TIP3   OH250897   7.714   8.425   3.902
17007TIP3    H150898   7.771   8.487   3.949
17007TIP3    H250899   7.743   8.429   3.811
17008TIP3   OH250900   7.137   8.628   5.332
17008TIP3    H150901   7.139   8.724   5.343
17008TIP3    H250902   7.044   8.608   5.319
17009TIP3   OH250903   7.445   9.110   4.182
17009TIP3    H150904   7.536   9.139   4.173
17009TIP3    H250905   7.396   9.167   4.122
17010TIP3   OH250906   7.163   9.234   5.258
17010TIP3    H150907   7.141   9.241   5.166
17010TIP3    H250908   7.079   9.223   5.303
17011TIP3   OH250909   8.228   7.654   3.974
17011TIP3    H150910   8.153   7.680   4.027
17011TIP3    H250911   8.241   7.727   3.914
17012TIP3   OH250912   7.004   8.373   4.277
17012TIP3    H150913   6.922   8.406   4.239
17012TIP3    H250914   6.994   8.278   4.277
17013TIP3   OH250915   7.977   9.035   3.501
17013TIP3    H150916   7.965   9.114   3.449
17013TIP3    H250917   8.072   9.028   3.513
17014TIP3   OH250918   6.769   8.797   5.212
17014TIP3    H150919   6.701   8.777   5.148
17014TIP3    H250920   6.804   8.711   5.237
17015TIP3   OH250921   6.619   8.983   4.870
17015TIP3    H150922   6.711   9.006   4.879
17015TIP3    H250923   6.571   9.061   4.900
17016TIP3   OH250924   1.951   0.264   4.984
17016TIP3    H150925   1.980   0.189   4.932
17016TIP3    H250926   1.891   0.227   5.048
17017TIP3   OH250927   1.003   0.015   5.052
17017TIP3    H150928   0.978   0.098   5.090
17017TIP3    H250929   0.952  -0.051   5.100
17018TIP3   OH250930   0.817   0.072   3.997
17018TIP3    H150931   0.779   0.048   3.913
17018TIP3    H250932   0.775   0.155   4.020
17019TIP3   OH250933   6.794   9.195   4.373
17019TIP3    H150934   6.837   9.182   4.457
17019TIP3    H250935   6.743   9.115   4.359
17020TIP3   OH250936   7.553   9.247   3.617
17020TIP3    H150937   7.602   9.172   3.583
17020TIP3    H250938   7.588   9.260   3.705
17021TIP3   OH250939   1.068   0.049   3.884
17021TIP3    H150940   0.988   0.045   3.935
17021TIP3    H250941   1.136   0.018   3.943
17022TIP3   OH250942   8.347   8.531   5.246
17022TIP3    H150943   8.286   8.541   5.318
17022TIP3    H250944   8.344   8.437   5.224
17023TIP3   OH250945   6.966   8.986   5.180
17023TIP3    H150946   7.017   8.973   5.260
17023TIP3    H250947   6.893   8.924   5.186
17024TIP3   OH250948   7.351   7.788   4.994
17024TIP3    H150949   7.266   7.755   4.964
17024TIP3    H250950   7.331   7.872   5.035
17025TIP3   OH250951   7.888   7.916   5.193
17025TIP3    H150952   7.956   7.888   5.255
17025TIP3    H250953   7.806   7.900   5.239
17026TIP3   OH250954   8.122   8.314   5.125
17026TIP3    H150955   8.091   8.319   5.215
17026TIP3    H250956   8.104   8.400   5.088
17027TIP3   OH250957   7.792   8.390   3.638
17027TIP3    H150958   7.743   8.406   3.558
17027TIP3    H250959   7.875   8.436   3.626
17028TIP3   OH250960   7.510   7.819   3.956
17028TIP3    H150961   7.475   7.828   4.044
17028TIP3    H250962   7.470   7.739   3.922
17029TIP3   OH250963   7.293   8.327   5.013
17029TIP3    H150964   7.250   8.339   5.098
17029TIP3    H250965   7.268   8.404   4.962
17030TIP3   OH250966   7.645   8.270   4.251
17030TIP3    H150967   7.598   8.343   4.211
17030TIP3    H250968   7.703   8.238   4.182
17031TIP3   OH250969   7.828   8.534   5.313
17031TIP3    H150970   7.810   8.469   5.381
17031TIP3    H250971   7.922   8.552   5.322
17032TIP3   OH250972   7.812   8.278   4.474
17032TIP3    H150973   7.743   8.300   4.411
17032TIP3    H250974   7.859   8.206   4.433
17033TIP3   OH250975   7.123   8.339   5.230
17033TIP3    H150976   7.151   8.398   5.300
17033TIP3    H250977   7.111   8.254   5.274
17034TIP3   OH250978   7.177   7.815   3.930
17034TIP3    H150979   7.172   7.805   4.026
17034TIP3    H250980   7.097   7.861   3.906
17035TIP3   OH250981   6.737   7.863   4.783
17035TIP3    H150982   6.803   7.891   4.846
17035TIP3    H250983   6.786   7.821   4.713
17036TIP3   OH250984   6.613   7.821   4.327
17036TIP3    H150985   6.655   7.869   4.255
17036TIP3    H250986   6.543   7.878   4.357
17037TIP3   OH250987   7.836   8.542   4.885
17037TIP3    H150988   7.865   8.471   4.828
17037TIP3    H250989   7.791   8.498   4.957
17038TIP3   OH250990   7.504   7.985   4.566
17038TIP3    H150991   7.416   8.008   4.595
17038TIP3    H250992   7.559   8.000   4.643
17039TIP3   OH250993   7.164   8.036   4.248
17039TIP3    H150994   7.251   8.073   4.266
17039TIP3    H250995   7.136   8.079   4.167
17040TIP3   OH250996   7.979   8.074   4.791
17040TIP3    H150997   7.961   8.098   4.882
17040TIP3    H250998   7.906   8.016   4.766
17041TIP3   OH250999   7.049   8.129   4.013
17041TIP3    H151000   6.998   8.066   3.962
17041TIP3    H251001   7.109   8.168   3.949
17042TIP3   OH251002   1.737   0.549   5.056
17042TIP3    H151003   1.753   0.579   4.967
17042TIP3    H251004   1.810   0.586   5.107
17043TIP3   OH251005   7.114   8.898   5.412
17043TIP3    H151006   7.196   8.915   5.459
17043TIP3    H251007   7.046   8.908   5.479
17044TIP3   OH251008   7.576   8.353   4.679
17044TIP3    H151009   7.641   8.303   4.629
17044TIP3    H251010   7.574   8.311   4.765
17045TIP3   OH251011   7.116   7.799   4.527
17045TIP3    H151012   7.077   7.759   4.605
17045TIP3    H251013   7.142   7.887   4.556
17046TIP3   OH251014   7.551   8.257   4.941
17046TIP3    H151015   7.464   8.288   4.966
17046TIP3    H251016   7.611   8.310   4.993
17047TIP3   OH251017   7.299   8.621   4.047
17047TIP3    H151018   7.225   8.567   4.021
17047TIP3    H251019   7.273   8.661   4.130
17048TIP3   OH251020   8.140   8.812   4.616
17048TIP3    H151021   8.162   8.874   4.546
17048TIP3    H251022   8.052   8.782   4.595
17049TIP3   OH251023   7.759   7.929   3.975
17049TIP3    H151024   7.666   7.906   3.965
17049TIP3    H251025   7.759   8.024   3.983
17050TIP3   OH251026   7.678   8.841   5.143
17050TIP3    H151027   7.736   8.838   5.219
17050TIP3    H251028   7.696   8.925   5.102
17051TIP3   OH251029   7.812   8.197   4.035
17051TIP3    H151030   7.907   8.202   4.043
17051TIP3    H251031   7.788   8.273   3.983
17052TIP3   OH251032   6.968   8.611   4.696
17052TIP3    H151033   7.013   8.594   4.613
17052TIP3    H251034   7.032   8.587   4.763
17053TIP3   OH251035   7.462   8.776   3.884
17053TIP3    H151036   7.412   8.858   3.883
17053TIP3    H251037   7.410   8.717   3.938
17054TIP3   OH251038   6.861   8.565   5.342
17054TIP3    H151039   6.863   8.535   5.433
17054TIP3    H251040   6.788   8.517   5.303
17055TIP3   OH251041   7.593   8.674   5.379
17055TIP3    H151042   7.524   8.620   5.342
17055TIP3    H251043   7.674   8.642   5.339
17056TIP3   OH251044   7.755   9.076   5.024
17056TIP3    H151045   7.680   9.136   5.019
17056TIP3    H251046   7.822   9.125   5.070
17057TIP3   OH251047   8.224   8.286   3.855
17057TIP3    H151048   8.167   8.242   3.793
17057TIP3    H251049   8.230   8.376   3.823
17058TIP3   OH251050   8.518   9.090   4.918
17058TIP3    H151051   8.444   9.148   4.899
17058TIP3    H251052   8.564   9.082   4.834
17059TIP3   OH251053   7.943   9.097   3.772
17059TIP3    H151054   7.953   9.016   3.823
17059TIP3    H251055   7.969   9.073   3.683
17060TIP3   OH251056   7.900   8.709   4.541
17060TIP3    H151057   7.811   8.686   4.567
17060TIP3    H251058   7.937   8.627   4.509
17061TIP3   OH251059   7.104   8.965   4.372
17061TIP3    H151060   7.109   9.041   4.313
17061TIP3    H251061   7.011   8.957   4.391
17062TIP3   OH251062   6.662   8.277   4.078
17062TIP3    H151063   6.718   8.349   4.106
17062TIP3    H251064   6.573   8.312   4.085
17063TIP3   OH251065   7.182   8.717   4.274
17063TIP3    H151066   7.169   8.806   4.307
17063TIP3    H251067   7.168   8.661   4.350
17064TIP3   OH251068   0.833   0.035   4.830
17064TIP3    H151069   0.866   0.099   4.766
17064TIP3    H251070   0.905   0.024   4.892
17065TIP3   OH251071   7.023   9.188   4.222
17065TIP3    H151072   6.937   9.198   4.262
17065TIP3    H251073   7.057   9.278   4.218
17066TIP3   OH251074   7.716   8.938   4.781
17066TIP3    H151075   7.733   8.979   4.866
17066TIP3    H251076   7.770   8.859   4.782
17067TIP3   OH251077   7.705   8.790   3.723
17067TIP3    H151078   7.774   8.800   3.789
17067TIP3    H251079   7.624   8.794   3.773
17068TIP3   OH251080   1.492   0.103   4.890
17068TIP3    H151081   1.406   0.105   4.932
17068TIP3    H251082   1.512   0.194   4.872
17069TIP3   OH251083   1.424   0.070   3.417
17069TIP3    H151084   1.514   0.084   3.447
17069TIP3    H251085   1.371   0.128   3.471
17070TIP3   OH251086   7.078   8.080   5.344
17070TIP3    H151087   6.982   8.085   5.347
17070TIP3    H251088   7.101   8.022   5.416
17071TIP3   OH251089   7.906   8.796   3.912
17071TIP3    H151090   7.890   8.719   3.967
17071TIP3    H251091   7.996   8.786   3.882
17072TIP3   OH251092   6.816   9.191   4.995
17072TIP3    H151093   6.872   9.136   5.050
17072TIP3    H251094   6.827   9.279   5.030
17073TIP3   OH251095   7.080   8.802   3.691
17073TIP3    H151096   7.101   8.714   3.662
17073TIP3    H251097   7.067   8.794   3.785
17074TIP3   OH251098   7.023   8.814   3.965
17074TIP3    H151099   7.091   8.787   4.027
17074TIP3    H251100   7.026   8.909   3.965
17075TIP3   OH251101   6.780   8.512   4.171
17075TIP3    H151102   6.782   8.578   4.240
17075TIP3    H251103   6.783   8.564   4.090
17076TIP3   OH251104   7.918   8.148   5.050
17076TIP3    H151105   7.998   8.190   5.082
17076TIP3    H251106   7.908   8.069   5.103
17077TIP3   OH251107   7.818   7.879   4.241
17077TIP3    H151108   7.792   7.895   4.150
17077TIP3    H251109   7.857   7.961   4.269
17078TIP3   OH251110   7.307   8.998   3.898
17078TIP3    H151111   7.221   9.021   3.934
17078TIP3    H251112   7.326   9.069   3.836
17079TIP3   OH251113   7.444   8.083   4.307
17079TIP3    H151114   7.510   8.150   4.288
17079TIP3    H251115   7.455   8.064   4.400
17080TIP3   OH251116   7.750   8.375   5.090
17080TIP3    H151117   7.778   8.424   5.168
17080TIP3    H251118   7.808   8.299   5.088
17081TIP3   OH251119   7.626   7.782   4.416
17081TIP3    H151120   7.594   7.858   4.464
17081TIP3    H251121   7.694   7.818   4.358
17082TIP3   OH251122   7.054   9.085   3.971
17082TIP3    H151123   7.035   9.157   3.911
17082TIP3    H251124   7.042   9.123   4.058
17083TIP3   OH251125   7.145   7.764   4.198
17083TIP3    H151126   7.128   7.848   4.242
17083TIP3    H251127   7.236   7.743   4.221
17084TIP3   OH251128   8.391   8.293   5.105
17084TIP3    H151129   8.296   8.280   5.103
17084TIP3    H251130   8.416   8.303   5.014
17085TIP3   OH251131   8.028   8.464   4.473
17085TIP3    H151132   7.953   8.406   4.484
17085TIP3    H251133   8.099   8.421   4.521
17086TIP3   OH251134   6.779   8.681   3.951
17086TIP3    H151135   6.849   8.746   3.960
17086TIP3    H251136   6.812   8.620   3.884
17087TIP3   OH251137   6.658   8.003   4.127
17087TIP3    H151138   6.676   8.097   4.116
17087TIP3    H251139   6.660   7.969   4.037
17088TIP3   OH251140   1.459   0.169   4.324
17088TIP3    H151141   1.415   0.237   4.272
17088TIP3    H251142   1.552   0.186   4.310
17089TIP3   OH251143   7.085   7.704   4.968
17089TIP3    H151144   7.057   7.675   4.881
17089TIP3    H251145   7.078   7.625   5.023
17090TIP3   OH251146   6.636   8.974   4.355
17090TIP3    H151147   6.582   8.999   4.431
17090TIP3    H251148   6.583   8.998   4.279
17091TIP3   OH251149   0.283   0.257   5.407
17091TIP3    H151150   0.363   0.266   5.458
17091TIP3    H251151   0.278   0.164   5.387
17092TIP3   OH251152   0.742   0.147   5.459
17092TIP3    H151153   0.830   0.110   5.468
17092TIP3    H251154   0.705   0.101   5.383
17093TIP3   OH251155   7.239   9.002   3.581
17093TIP3    H151156   7.193   8.929   3.622
17093TIP3    H251157   7.315   8.961   3.539
17094TIP3   OH251158   7.941   9.195   5.191
17094TIP3    H151159   7.903   9.162   5.273
17094TIP3    H251160   7.951   9.289   5.205
17095TIP3   OH251161   7.690   9.040   3.507
17095TIP3    H151162   7.779   9.026   3.540
17095TIP3    H251163   7.701   9.048   3.412
17096TIP3   OH251164   6.911   8.894   5.605
17096TIP3    H151165   6.933   8.802   5.615
17096TIP3    H251166   6.824   8.894   5.565
17097TIP3   OH251167   6.904   8.493   3.797
17097TIP3    H151168   6.957   8.472   3.873
17097TIP3    H251169   6.967   8.508   3.726
17098TIP3   OH251170   7.527   8.958   5.383
17098TIP3    H151171   7.491   8.986   5.299
17098TIP3    H251172   7.565   8.872   5.365
17099TIP3   OH251173   7.398   8.708   3.617
17099TIP3    H151174   7.423   8.720   3.709
17099TIP3    H251175   7.412   8.614   3.601
17100TIP3   OH251176   7.962   8.896   4.978
17100TIP3    H151177   7.999   8.944   4.903
17100TIP3    H251178   7.888   8.950   5.006
17101TIP3   OH251179   7.027   8.641   5.608
17101TIP3    H151180   7.099   8.629   5.547
17101TIP3    H251181   7.069   8.656   5.693
17102TIP3   OH251182   7.087   8.444   4.004
17102TIP3    H151183   7.076   8.408   4.092
17102TIP3    H251184   7.134   8.376   3.956
17103TIP3   OH251185   7.385   8.510   5.271
17103TIP3    H151186   7.304   8.559   5.285
17103TIP3    H251187   7.421   8.546   5.190
17104TIP3   OH251188   7.218   8.262   3.841
17104TIP3    H151189   7.192   8.263   3.749
17104TIP3    H251190   7.313   8.267   3.839
17105TIP3   OH251191   7.859   8.853   5.358
17105TIP3    H151192   7.937   8.834   5.306
17105TIP3    H251193   7.871   8.802   5.438
17106TIP3   OH251194   8.009   8.526   3.538
17106TIP3    H151195   7.992   8.491   3.451
17106TIP3    H251196   7.978   8.617   3.534
17107TIP3   OH251197   7.507   8.286   5.372
17107TIP3    H151198   7.512   8.216   5.307
17107TIP3    H251199   7.470   8.360   5.325
17108TIP3   OH251200   7.510   8.089   5.169
17108TIP3    H151201   7.538   8.127   5.086
17108TIP3    H251202   7.419   8.064   5.154
17109TIP3   OH251203   7.503   8.641   5.068
17109TIP3    H151204   7.573   8.703   5.088
17109TIP3    H251205   7.450   8.684   5.001
17110TIP3   OH251206   8.085   8.811   5.200
17110TIP3    H151207   8.030   8.836   5.126
17110TIP3    H251208   8.173   8.841   5.176
17111TIP3   OH251209   7.383   8.360   5.612
17111TIP3    H151210   7.315   8.294   5.627
17111TIP3    H251211   7.416   8.340   5.524
17112TIP3   OH251212   7.627   7.861   5.277
17112TIP3    H151213   7.589   7.941   5.239
17112TIP3    H251214   7.562   7.793   5.259
17113TIP3   OH251215   7.760   8.330   5.486
17113TIP3    H151216   7.740   8.314   5.578
17113TIP3    H251217   7.679   8.308   5.440
17114TIP3   OH251218   8.025   8.323   5.377
17114TIP3    H151219   7.945   8.307   5.427
17114TIP3    H251220   8.077   8.380   5.434
17115TIP3   OH251221   7.209   8.149   5.677
17115TIP3    H151222   7.216   8.062   5.639
17115TIP3    H251223   7.246   8.140   5.765
17116TIP3   OH251224   7.687   7.832   5.541
17116TIP3    H151225   7.755   7.766   5.534
17116TIP3    H251226   7.659   7.848   5.451
17117TIP3   OH251227   7.787   8.040   5.695
17117TIP3    H151228   7.755   7.972   5.635
17117TIP3    H251229   7.721   8.109   5.691
17118TIP3   OH251230   0.515   0.062   3.797
17118TIP3    H151231   0.604   0.041   3.768
17118TIP3    H251232   0.473   0.101   3.721
17119TIP3   OH251233   6.505   8.690   3.914
17119TIP3    H151234   6.597   8.699   3.937
17119TIP3    H251235   6.495   8.597   3.893
17120TIP3   OH251236   6.420   9.262   4.431
17120TIP3    H151237   6.357   9.209   4.382
17120TIP3    H251238   6.462   9.200   4.491
17121TIP3   OH251239   6.552   9.093   4.607
17121TIP3    H151240   6.548   9.025   4.674
17121TIP3    H251241   6.606   9.162   4.646
17122TIP3   OH251242   1.731   0.217   4.315
17122TIP3    H151243   1.778   0.224   4.398
17122TIP3    H251244   1.781   0.270   4.253
17123TIP3   OH251245   1.842   0.217   4.576
17123TIP3    H151246   1.814   0.126   4.588
17123TIP3    H251247   1.818   0.260   4.658
17124TIP3   OH251248   1.894   0.104   5.391
17124TIP3    H151249   1.860   0.034   5.335
17124TIP3    H251250   1.908   0.178   5.331
17125TIP3   OH251251   8.168   8.747   3.859
17125TIP3    H151252   8.240   8.807   3.839
17125TIP3    H251253   8.200   8.693   3.930
17126TIP3   OH251254   8.260   8.574   4.043
17126TIP3    H151255   8.194   8.536   4.101
17126TIP3    H251256   8.331   8.600   4.102
17127TIP3   OH251257   8.268   8.995   4.452
17127TIP3    H151258   8.324   8.924   4.420
17127TIP3    H251259   8.239   9.040   4.373
17128TIP3   OH251260   1.647   0.014   4.620
17128TIP3    H151261   1.574   0.075   4.628
17128TIP3    H251262   1.615  -0.053   4.559
17129TIP3   OH251263   8.222   8.521   3.709
17129TIP3    H151264   8.152   8.517   3.645
17129TIP3    H251265   8.206   8.602   3.757
17130TIP3   OH251266   8.070   8.169   3.663
17130TIP3    H151267   8.026   8.211   3.589
17130TIP3    H251268   8.064   8.075   3.643
17131TIP3   OH251269   8.080   8.449   4.204
17131TIP3    H151270   8.093   8.355   4.194
17131TIP3    H251271   8.067   8.461   4.298
17132TIP3   OH251272   6.724   8.519   4.960
17132TIP3    H151273   6.718   8.489   4.869
17132TIP3    H251274   6.818   8.512   4.980
17133TIP3   OH251275   8.566   8.883   5.132
17133TIP3    H151276   8.596   8.793   5.147
17133TIP3    H251277   8.491   8.874   5.073
17134TIP3   OH251278   8.600   8.634   5.241
17134TIP3    H151279   8.513   8.593   5.238
17134TIP3    H251280   8.656   8.573   5.194
17135TIP3   OH251281   8.043   7.895   3.625
17135TIP3    H151282   8.103   7.872   3.695
17135TIP3    H251283   7.957   7.864   3.656
17136TIP3   OH251284   8.111   8.184   4.097
17136TIP3    H151285   8.162   8.103   4.108
17136TIP3    H251286   8.148   8.225   4.019
17137TIP3   OH251287   8.243   8.321   4.591
17137TIP3    H151288   8.330   8.338   4.553
17137TIP3    H251289   8.248   8.356   4.679
17138TIP3   OH251290   8.288   8.456   4.826
17138TIP3    H151291   8.224   8.490   4.889
17138TIP3    H251292   8.306   8.529   4.768
17139TIP3   OH251293   6.946   8.205   5.614
17139TIP3    H151294   7.040   8.203   5.631
17139TIP3    H251295   6.913   8.126   5.656
17140TIP3   OH251296   8.787   8.115   5.382
17140TIP3    H151297   8.850   8.053   5.346
17140TIP3    H251298   8.747   8.156   5.306
17141TIP3   OH251299   8.239   7.938   4.156
17141TIP3    H151300   8.281   7.921   4.240
17141TIP3    H251301   8.172   7.870   4.148
17142TIP3   OH251302   6.921   7.928   4.986
17142TIP3    H151303   6.979   7.851   4.988
17142TIP3    H251304   6.980   8.002   4.972
17143TIP3   OH251305   6.708   8.190   5.006
17143TIP3    H151306   6.751   8.160   4.926
17143TIP3    H251307   6.754   8.269   5.030
17144TIP3   OH251308   8.635   8.202   5.175
17144TIP3    H151309   8.549   8.245   5.174
17144TIP3    H251310   8.620   8.118   5.132
17145TIP3   OH251311   8.268   7.847   3.784
17145TIP3    H151312   8.318   7.791   3.725
17145TIP3    H251313   8.317   7.929   3.786
17146TIP3   OH251314   6.694   7.670   4.539
17146TIP3    H151315   6.608   7.667   4.580
17146TIP3    H251316   6.684   7.731   4.465
17147TIP3   OH251317   1.299   0.161   4.035
17147TIP3    H151318   1.349   0.150   3.955
17147TIP3    H251319   1.334   0.240   4.075
17148TIP3   OH251320   6.928   7.746   5.359
17148TIP3    H151321   6.877   7.745   5.440
17148TIP3    H251322   6.874   7.794   5.297
17149TIP3   OH251323   6.935   9.221   5.421
17149TIP3    H151324   6.843   9.194   5.418
17149TIP3    H251325   6.959   9.218   5.513
17150TIP3   OH251326   0.610   0.007   4.980
17150TIP3    H151327   0.555   0.076   4.942
17150TIP3    H251328   0.692   0.013   4.932
17151TIP3   OH251329   1.012   0.268   5.169
17151TIP3    H151330   1.059   0.231   5.244
17151TIP3    H251331   1.076   0.323   5.125
17152TIP3   OH251332   1.238   0.407   5.079
17152TIP3    H151333   1.250   0.361   4.996
17152TIP3    H251334   1.316   0.384   5.130
17153TIP3   OH251335   8.547   7.970   5.073
17153TIP3    H151336   8.471   7.982   5.016
17153TIP3    H251337   8.570   7.878   5.063
17154TIP3   OH251338   0.284   0.236   5.032
17154TIP3    H151339   0.193   0.252   5.008
17154TIP3    H251340   0.306   0.308   5.091
17155TIP3   OH251341   0.497   0.226   4.861
17155TIP3    H151342   0.416   0.232   4.911
17155TIP3    H251343   0.473   0.256   4.773
17156TIP3   OH251344   0.886   0.212   4.626
17156TIP3    H151345   0.812   0.246   4.576
17156TIP3    H251346   0.904   0.279   4.692
17157TIP3   OH251347   1.144   0.142   4.629
17157TIP3    H151348   1.049   0.147   4.637
17157TIP3    H251349   1.167   0.217   4.574
17158TIP3   OH251350   1.485   0.427   4.615
17158TIP3    H151351   1.435   0.475   4.550
17158TIP3    H251352   1.461   0.335   4.602
17159TIP3   OH251353   0.193   0.033   4.745
17159TIP3    H151354   0.220   0.012   4.835
17159TIP3    H251355   0.263  -0.001   4.690
17160TIP3   OH251356   6.926   9.153   4.609
17160TIP3    H151357   6.937   9.067   4.648
17160TIP3    H251358   7.013   9.191   4.608
17161TIP3   OH251359   7.187   9.239   4.613
17161TIP3    H151360   7.210   9.148   4.595
17161TIP3    H251361   7.238   9.263   4.690
17162TIP3   OH251362   7.764   7.905   4.733
17162TIP3    H151363   7.712   7.838   4.778
17162TIP3    H251364   7.823   7.856   4.677
17163TIP3   OH251365   8.236   7.821   4.644
17163TIP3    H151366   8.281   7.872   4.577
17163TIP3    H251367   8.143   7.829   4.623
17164TIP3   OH251368   8.389   7.855   4.388
17164TIP3    H151369   8.460   7.801   4.353
17164TIP3    H251370   8.420   7.945   4.379
17165TIP3   OH251371   6.999   7.605   4.730
17165TIP3    H151372   6.910   7.568   4.729
17165TIP3    H251373   7.056   7.532   4.705
17166TIP3   OH251374   6.806   7.484   4.352
17166TIP3    H151375   6.843   7.535   4.280
17166TIP3    H251376   6.781   7.550   4.417
17167TIP3   OH251377   7.476   7.639   4.606
17167TIP3    H151378   7.532   7.678   4.539
17167TIP3    H251379   7.418   7.710   4.633
17168TIP3   OH251380   7.963   7.780   4.583
17168TIP3    H151381   7.944   7.754   4.493
17168TIP3    H251382   7.974   7.698   4.630
17169TIP3   OH251383   8.043   7.737   4.161
17169TIP3    H151384   7.963   7.785   4.181
17169TIP3    H251385   8.026   7.648   4.191
17170TIP3   OH251386   6.492   9.072   4.141
17170TIP3    H151387   6.412   9.037   4.102
17170TIP3    H251388   6.502   9.159   4.102
17171TIP3   OH251389   6.924   7.617   4.124
17171TIP3    H151390   6.969   7.558   4.063
17171TIP3    H251391   6.995   7.670   4.160
17172TIP3   OH251392   7.426   7.822   4.217
17172TIP3    H151393   7.482   7.786   4.286
17172TIP3    H251394   7.415   7.914   4.241
17173TIP3   OH251395   7.302   9.223   3.725
17173TIP3    H151396   7.385   9.249   3.686
17173TIP3    H251397   7.269   9.153   3.668
17174TIP3   OH251398   1.433   0.128   3.799
17174TIP3    H151399   1.434   0.033   3.793
17174TIP3    H251400   1.409   0.158   3.712
17175TIP3   OH251401   7.228   7.881   5.588
17175TIP3    H151402   7.194   7.815   5.649
17175TIP3    H251403   7.321   7.889   5.611
17176TIP3   OH251404   7.474   7.882   5.714
17176TIP3    H151405   7.551   7.864   5.661
17176TIP3    H251406   7.472   7.812   5.779
17177TIP3   OH251407   6.619   9.080   3.776
17177TIP3    H151408   6.622   9.090   3.871
17177TIP3    H251409   6.696   9.028   3.755
17178TIP3   OH251410   8.299   7.921   5.492
17178TIP3    H151411   8.313   7.925   5.587
17178TIP3    H251412   8.384   7.945   5.454
17179TIP3   OH251413   1.689   0.273   5.112
17179TIP3    H151414   1.618   0.292   5.050
17179TIP3    H251415   1.739   0.355   5.116
17180TIP3   OH251416   8.950   8.716   4.522
17180TIP3    H151417   8.913   8.647   4.577
17180TIP3    H251418   8.938   8.796   4.573
17181TIP3   OH251419   8.761   9.116   4.240
17181TIP3    H151420   8.815   9.037   4.235
17181TIP3    H251421   8.817   9.181   4.282
17182TIP3   OH251422   8.458   8.350   4.009
17182TIP3    H151423   8.436   8.440   4.035
17182TIP3    H251424   8.383   8.322   3.956
17183TIP3   OH251425   8.484   8.605   4.190
17183TIP3    H151426   8.537   8.539   4.235
17183TIP3    H251427   8.547   8.665   4.151
17184TIP3   OH251428   9.057   8.240   4.155
17184TIP3    H151429   9.028   8.318   4.107
17184TIP3    H251430   9.005   8.169   4.118
17185TIP3   OH251431   8.663   8.433   4.309
17185TIP3    H151432   8.737   8.494   4.311
17185TIP3    H251433   8.679   8.379   4.232
17186TIP3   OH251434   9.063   8.669   4.081
17186TIP3    H151435   9.157   8.671   4.061
17186TIP3    H251436   9.033   8.585   4.045
17187TIP3   OH251437   9.034   8.230   4.651
17187TIP3    H151438   8.990   8.272   4.577
17187TIP3    H251439   8.972   8.236   4.723
17188TIP3   OH251440   8.962   8.331   4.402
17188TIP3    H151441   8.929   8.412   4.365
17188TIP3    H251442   9.000   8.284   4.328
17189TIP3   OH251443   8.396   8.889   3.803
17189TIP3    H151444   8.352   8.928   3.727
17189TIP3    H251445   8.431   8.964   3.851
17190TIP3   OH251446   9.358   7.938   4.361
17190TIP3    H151447   9.349   7.847   4.389
17190TIP3    H251448   9.284   7.983   4.401
17191TIP3   OH251449   8.898   8.854   3.969
17191TIP3    H151450   8.862   8.825   3.885
17191TIP3    H251451   8.960   8.785   3.994
17192TIP3   OH251452   9.159   8.717   4.343
17192TIP3    H151453   9.121   8.727   4.256
17192TIP3    H251454   9.093   8.754   4.402
17193TIP3   OH251455   9.050   8.822   4.861
17193TIP3    H151456   9.079   8.898   4.912
17193TIP3    H251457   8.985   8.856   4.801
17194TIP3   OH251458   8.795   8.687   3.762
17194TIP3    H151459   8.718   8.720   3.717
17194TIP3    H251460   8.765   8.608   3.806
17195TIP3   OH251461   8.647   9.034   4.671
17195TIP3    H151462   8.576   9.079   4.625
17195TIP3    H251463   8.611   8.949   4.695
17196TIP3   OH251464   8.524   9.211   4.333
17196TIP3    H151465   8.591   9.149   4.304
17196TIP3    H251466   8.562   9.297   4.315
17197TIP3   OH251467   8.853   9.209   4.619
17197TIP3    H151468   8.876   9.235   4.708
17197TIP3    H251469   8.772   9.159   4.629
17198TIP3   OH251470   9.137   8.038   4.485
17198TIP3    H151471   9.052   8.013   4.449
17198TIP3    H251472   9.119   8.115   4.539
17199TIP3   OH251473   9.692   8.101   4.662
17199TIP3    H151474   9.765   8.107   4.723
17199TIP3    H251475   9.614   8.113   4.716
17200TIP3   OH251476   9.351   7.993   3.490
17200TIP3    H151477   9.300   8.036   3.559
17200TIP3    H251478   9.287   7.944   3.439
17201TIP3   OH251479   9.155   8.500   4.531
17201TIP3    H151480   9.096   8.437   4.491
17201TIP3    H251481   9.149   8.578   4.475
17202TIP3   OH251482   8.947   8.438   4.000
17202TIP3    H151483   8.860   8.408   4.028
17202TIP3    H251484   8.958   8.402   3.912
17203TIP3   OH251485   8.852   8.486   4.688
17203TIP3    H151486   8.935   8.506   4.732
17203TIP3    H251487   8.824   8.403   4.728
17204TIP3   OH251488   8.947   8.057   3.429
17204TIP3    H151489   8.945   8.078   3.522
17204TIP3    H251490   8.870   8.102   3.393
17205TIP3   OH251491   8.498   8.093   4.319
17205TIP3    H151492   8.566   8.132   4.373
17205TIP3    H251493   8.506   8.136   4.234
17206TIP3   OH251494   8.409   8.086   3.792
17206TIP3    H151495   8.452   8.119   3.714
17206TIP3    H251496   8.347   8.155   3.817
17207TIP3   OH251497   9.317   8.254   4.050
17207TIP3    H151498   9.234   8.250   4.097
17207TIP3    H251499   9.383   8.231   4.116
17208TIP3   OH251500   8.720   8.302   4.076
17208TIP3    H151501   8.632   8.307   4.038
17208TIP3    H251502   8.754   8.217   4.048
17209TIP3   OH251503   8.982   8.325   3.758
17209TIP3    H151504   9.075   8.339   3.736
17209TIP3    H251505   8.937   8.336   3.674
17210TIP3   OH251506   8.846   8.330   3.526
17210TIP3    H151507   8.790   8.295   3.457
17210TIP3    H251508   8.857   8.422   3.503
17211TIP3   OH251509   9.094   9.053   4.992
17211TIP3    H151510   9.128   9.138   4.962
17211TIP3    H251511   9.024   9.076   5.054
17212TIP3   OH251512   8.874   8.075   4.019
17212TIP3    H151513   8.847   7.999   4.071
17212TIP3    H251514   8.883   8.040   3.930
17213TIP3   OH251515   9.440   8.390   4.524
17213TIP3    H151516   9.391   8.418   4.447
17213TIP3    H251517   9.497   8.464   4.545
17214TIP3   OH251518   8.681   8.775   4.127
17214TIP3    H151519   8.742   8.821   4.069
17214TIP3    H251520   8.693   8.818   4.212
17215TIP3   OH251521   8.647   8.648   4.903
17215TIP3    H151522   8.736   8.660   4.934
17215TIP3    H251523   8.619   8.735   4.876
17216TIP3   OH251524   8.465   8.501   3.579
17216TIP3    H151525   8.508   8.585   3.593
17216TIP3    H251526   8.382   8.508   3.625
17217TIP3   OH251527   8.856   8.263   4.864
17217TIP3    H151528   8.778   8.292   4.911
17217TIP3    H251529   8.906   8.214   4.929
17218TIP3   OH251530   2.112   0.193   4.519
17218TIP3    H151531   2.019   0.187   4.540
17218TIP3    H251532   2.149   0.245   4.591
17219TIP3   OH251533   8.565   8.753   3.635
17219TIP3    H151534   8.510   8.798   3.700
17219TIP3    H251535   8.538   8.792   3.552
17220TIP3   OH251536   9.267   8.341   3.793
17220TIP3    H151537   9.314   8.423   3.777
17220TIP3    H251538   9.282   8.322   3.885
17221TIP3   OH251539   9.404   8.031   3.905
17221TIP3    H151540   9.379   8.109   3.955
17221TIP3    H251541   9.486   8.056   3.862
17222TIP3   OH251542   8.928   8.052   3.722
17222TIP3    H151543   8.918   8.146   3.739
17222TIP3    H251544   9.023   8.038   3.718
17223TIP3   OH251545   8.488   8.224   3.571
17223TIP3    H151546   8.501   8.317   3.592
17223TIP3    H251547   8.459   8.224   3.480
17224TIP3   OH251548   8.881   7.959   4.430
17224TIP3    H151549   8.852   7.929   4.344
17224TIP3    H251550   8.876   7.881   4.485
17225TIP3   OH251551   8.440   9.159   3.840
17225TIP3    H151552   8.394   9.230   3.884
17225TIP3    H251553   8.393   9.148   3.757
17226TIP3   OH251554   8.870   9.139   5.127
17226TIP3    H151555   8.865   9.051   5.163
17226TIP3    H251556   8.785   9.179   5.148
17227TIP3   OH251557   8.888   8.863   5.148
17227TIP3    H151558   8.961   8.806   5.124
17227TIP3    H251559   8.864   8.836   5.237
17228TIP3   OH251560   8.901   8.599   3.517
17228TIP3    H151561   8.874   8.635   3.602
17228TIP3    H251562   8.910   8.676   3.461
17229TIP3   OH251563   9.325   8.764   4.700
17229TIP3    H151564   9.329   8.832   4.768
17229TIP3    H251565   9.298   8.812   4.621
17230TIP3   OH251566   9.379   8.528   4.873
17230TIP3    H151567   9.345   8.448   4.832
17230TIP3    H251568   9.350   8.598   4.814
17231TIP3   OH251569   9.291   8.304   4.735
17231TIP3    H151570   9.334   8.333   4.655
17231TIP3    H251571   9.199   8.290   4.709
17232TIP3   OH251572   9.292   8.508   5.138
17232TIP3    H151573   9.216   8.567   5.136
17232TIP3    H251574   9.320   8.502   5.047
17233TIP3   OH251575   9.424   8.067   4.765
17233TIP3    H151576   9.382   8.153   4.758
17233TIP3    H251577   9.354   8.004   4.749
17234TIP3   OH251578   9.629   8.550   4.989
17234TIP3    H151579   9.612   8.537   5.082
17234TIP3    H251580   9.548   8.523   4.946
17235TIP3   OH251581   9.002   8.405   5.156
17235TIP3    H151582   9.064   8.347   5.112
17235TIP3    H251583   9.019   8.393   5.249
17236TIP3   OH251584   9.552   8.058   5.006
17236TIP3    H151585   9.623   7.997   4.984
17236TIP3    H251586   9.498   8.061   4.927
17237TIP3   OH251587   9.489   8.244   5.197
17237TIP3    H151588   9.527   8.188   5.128
17237TIP3    H251589   9.542   8.324   5.195
17238TIP3   OH251590   8.441   8.847   3.409
17238TIP3    H151591   8.396   8.923   3.446
17238TIP3    H251592   8.371   8.789   3.381
17239TIP3   OH251593   1.634   0.297   3.883
17239TIP3    H151594   1.569   0.241   3.839
17239TIP3    H251595   1.698   0.235   3.918
17240TIP3   OH251596   1.788   0.106   4.010
17240TIP3    H151597   1.758   0.038   4.069
17240TIP3    H251598   1.835   0.168   4.066
17241TIP3   OH251599   8.431   8.777   4.399
17241TIP3    H151600   8.426   8.720   4.322
17241TIP3    H251601   8.520   8.812   4.397
17242TIP3   OH251602   8.740   8.443   5.106
17242TIP3    H151603   8.835   8.434   5.119
17242TIP3    H251604   8.705   8.357   5.129
17243TIP3   OH251605   8.714   8.174   4.475
17243TIP3    H151606   8.774   8.100   4.466
17243TIP3    H251607   8.765   8.250   4.450
17244TIP3   OH251608   8.499   8.406   4.532
17244TIP3    H151609   8.558   8.406   4.456
17244TIP3    H251610   8.496   8.498   4.560
17245TIP3   OH251611   8.492   7.944   4.012
17245TIP3    H151612   8.411   7.937   4.061
17245TIP3    H251613   8.472   8.003   3.939
17246TIP3   OH251614   8.707   7.979   4.841
17246TIP3    H151615   8.668   7.994   4.927
17246TIP3    H251616   8.664   8.043   4.784
17247TIP3   OH251617   2.248   0.328   4.990
17247TIP3    H151618   2.168   0.304   5.037
17247TIP3    H251619   2.319   0.293   5.044
17248TIP3   OH251620   9.501   8.121   4.205
17248TIP3    H151621   9.452   8.065   4.265
17248TIP3    H251622   9.592   8.091   4.213
17249TIP3   OH251623   8.796   7.866   4.183
17249TIP3    H151624   8.702   7.850   4.180
17249TIP3    H251625   8.836   7.778   4.183
17250TIP3   OH251626   8.652   7.772   3.859
17250TIP3    H151627   8.667   7.815   3.775
17250TIP3    H251628   8.600   7.835   3.909
17251TIP3   OH251629   9.272   7.876   4.098
17251TIP3    H151630   9.316   7.929   4.032
17251TIP3    H251631   9.308   7.907   4.181
17252TIP3   OH251632   0.122   7.952   4.051
17252TIP3    H151633   0.112   8.044   4.029
17252TIP3    H251634   0.058   7.936   4.120
17253TIP3   OH251635   1.660   0.113   3.553
17253TIP3    H151636   1.679   0.019   3.564
17253TIP3    H251637   1.745   0.155   3.558
17254TIP3   OH251638   8.728   7.887   3.611
17254TIP3    H151639   8.775   7.832   3.548
17254TIP3    H251640   8.795   7.945   3.647
17255TIP3   OH251641   9.204   8.083   3.714
17255TIP3    H151642   9.260   8.036   3.775
17255TIP3    H251643   9.222   8.175   3.729
17256TIP3   OH251644   9.004   8.107   5.053
17256TIP3    H151645   8.971   8.052   5.123
17256TIP3    H251646   9.090   8.136   5.083
17257TIP3   OH251647   9.228   8.173   5.195
17257TIP3    H151648   9.319   8.203   5.188
17257TIP3    H251649   9.232   8.100   5.257
17258TIP3   OH251650   1.044   8.979   6.395
17258TIP3    H151651   1.023   9.072   6.379
17258TIP3    H251652   1.063   8.944   6.308
17259TIP3   OH251653   1.224   8.867   7.070
17259TIP3    H151654   1.294   8.819   7.027
17259TIP3    H251655   1.181   8.915   6.998
17260TIP3   OH251656   1.084   9.005   6.872
17260TIP3    H151657   1.001   9.035   6.910
17260TIP3    H251658   1.060   8.926   6.823
17261TIP3   OH251659   0.694   8.679   5.420
17261TIP3    H151660   0.738   8.598   5.394
17261TIP3    H251661   0.764   8.736   5.452
17262TIP3   OH251662   1.012   8.765   6.756
17262TIP3    H151663   0.932   8.746   6.708
17262TIP3    H251664   1.056   8.681   6.765
17263TIP3   OH251665   0.812   8.674   6.028
17263TIP3    H151666   0.883   8.611   6.022
17263TIP3    H251667   0.853   8.759   6.011
17264TIP3   OH251668   0.931   9.030   5.711
17264TIP3    H151669   0.878   9.108   5.730
17264TIP3    H251670   0.940   8.987   5.796
17265TIP3   OH251671   2.784   9.173   5.874
17265TIP3    H151672   2.794   9.256   5.921
17265TIP3    H251673   2.826   9.189   5.790
17266TIP3   OH251674   5.480   0.106   5.916
17266TIP3    H151675   5.496   0.013   5.931
17266TIP3    H251676   5.385   0.114   5.916
17267TIP3   OH251677   1.491   8.967   5.938
17267TIP3    H151678   1.513   9.051   5.897
17267TIP3    H251679   1.452   8.916   5.868
17268TIP3   OH251680   2.204   9.138   5.499
17268TIP3    H151681   2.259   9.104   5.569
17268TIP3    H251682   2.257   9.129   5.420
17269TIP3   OH251683   1.136   9.223   6.017
17269TIP3    H151684   1.211   9.190   6.065
17269TIP3    H251685   1.134   9.171   5.937
17270TIP3   OH251686   4.887   0.270   5.753
17270TIP3    H151687   4.950   0.204   5.726
17270TIP3    H251688   4.803   0.239   5.720
17271TIP3   OH251689   6.079   0.142   6.054
17271TIP3    H151690   6.015   0.194   6.006
17271TIP3    H251691   6.164   0.176   6.026
17272TIP3   OH251692   1.477   8.995   6.343
17272TIP3    H151693   1.421   9.029   6.274
17272TIP3    H251694   1.429   9.013   6.424
17273TIP3   OH251695   2.346   9.064   5.720
17273TIP3    H151696   2.299   9.057   5.803
17273TIP3    H251697   2.405   9.139   5.733
17274TIP3   OH251698   1.357   9.110   6.127
17274TIP3    H151699   1.411   9.188   6.135
17274TIP3    H251700   1.400   9.058   6.060
17275TIP3   OH251701   2.589   9.072   6.046
17275TIP3    H151702   2.505   9.104   6.013
17275TIP3    H251703   2.652   9.099   5.979
17276TIP3   OH251704   1.839   8.730   6.039
17276TIP3    H151705   1.834   8.638   6.067
17276TIP3    H251706   1.766   8.773   6.083
17277TIP3   OH251707   4.950   0.100   5.154
17277TIP3    H151708   5.035   0.145   5.154
17277TIP3    H251709   4.968   0.016   5.112
17278TIP3   OH251710   5.762   0.522   6.082
17278TIP3    H151711   5.725   0.610   6.096
17278TIP3    H251712   5.695   0.476   6.031
17279TIP3   OH251713   2.466   8.685   5.130
17279TIP3    H151714   2.391   8.699   5.187
17279TIP3    H251715   2.477   8.768   5.084
17280TIP3   OH251716   5.910   0.320   6.286
17280TIP3    H151717   5.819   0.317   6.257
17280TIP3    H251718   5.933   0.228   6.300
17281TIP3   OH251719   1.609   8.820   6.171
17281TIP3    H151720   1.542   8.809   6.105
17281TIP3    H251721   1.575   8.888   6.229
17282TIP3   OH251722   2.136   8.932   6.384
17282TIP3    H151723   2.210   8.907   6.439
17282TIP3    H251724   2.060   8.897   6.430
17283TIP3   OH251725   5.663   0.029   6.299
17283TIP3    H151726   5.640   0.044   6.390
17283TIP3    H251727   5.655   0.115   6.258
17284TIP3   OH251728   1.745   8.847   5.145
17284TIP3    H151729   1.706   8.846   5.233
17284TIP3    H251730   1.723   8.761   5.109
17285TIP3   OH251731   4.781   0.094   6.167
17285TIP3    H151732   4.750   0.095   6.258
17285TIP3    H251733   4.790   0.186   6.144
17286TIP3   OH251734   1.506   9.091   5.663
17286TIP3    H151735   1.437   9.130   5.717
17286TIP3    H251736   1.479   9.109   5.573
17287TIP3   OH251737   5.173   0.043   5.405
17287TIP3    H151738   5.104   0.109   5.416
17287TIP3    H251739   5.236   0.085   5.347
17288TIP3   OH251740   5.362   0.343   6.523
17288TIP3    H151741   5.367   0.261   6.570
17288TIP3    H251742   5.451   0.362   6.496
17289TIP3   OH251743   5.271   0.025   5.667
17289TIP3    H151744   5.223   0.034   5.584
17289TIP3    H251745   5.345  -0.031   5.645
17290TIP3   OH251746   4.657   0.077   6.413
17290TIP3    H151747   4.603   0.130   6.471
17290TIP3    H251748   4.660  -0.009   6.455
17291TIP3   OH251749   1.420   8.802   5.084
17291TIP3    H151750   1.383   8.805   5.173
17291TIP3    H251751   1.393   8.885   5.045
17292TIP3   OH251752   0.981   8.879   5.939
17292TIP3    H151753   1.034   8.902   6.015
17292TIP3    H251754   1.038   8.823   5.886
17293TIP3   OH251755   0.903   8.851   5.504
17293TIP3    H151756   0.886   8.888   5.418
17293TIP3    H251757   0.915   8.927   5.561
17294TIP3   OH251758   5.381   0.384   6.126
17294TIP3    H151759   5.437   0.368   6.050
17294TIP3    H251760   5.367   0.298   6.165
17295TIP3   OH251761   1.764   8.989   5.708
17295TIP3    H151762   1.669   9.000   5.713
17295TIP3    H251763   1.797   9.032   5.787
17296TIP3   OH251764   1.211   9.067   5.805
17296TIP3    H151765   1.164   9.082   5.723
17296TIP3    H251766   1.256   8.983   5.791
17297TIP3   OH251767   1.519   9.171   5.397
17297TIP3    H151768   1.600   9.121   5.391
17297TIP3    H251769   1.460   9.131   5.334
17298TIP3   OH251770   2.223   9.076   5.968
17298TIP3    H151771   2.208   9.094   6.061
17298TIP3    H251772   2.153   9.016   5.943
17299TIP3   OH251773   1.342   9.054   5.220
17299TIP3    H151774   1.260   9.019   5.185
17299TIP3    H251775   1.374   9.114   5.153
17300TIP3   OH251776   1.809   9.191   5.897
17300TIP3    H151777   1.883   9.251   5.886
17300TIP3    H251778   1.808   9.171   5.991
17301TIP3   OH251779   1.340   8.830   5.748
17301TIP3    H151780   1.307   8.752   5.793
17301TIP3    H251781   1.355   8.802   5.658
17302TIP3   OH251782   5.028  -0.028   6.169
17302TIP3    H151783   4.937  -0.001   6.167
17302TIP3    H251784   5.077   0.053   6.182
17303TIP3   OH251785   1.988   8.987   5.149
17303TIP3    H151786   1.898   8.954   5.152
17303TIP3    H251787   1.978   9.082   5.137
17304TIP3   OH251788   5.404   0.012   5.091
17304TIP3    H151789   5.453  -0.054   5.141
17304TIP3    H251790   5.455   0.092   5.101
17305TIP3   OH251791   5.161   0.510   6.605
17305TIP3    H151792   5.127   0.555   6.528
17305TIP3    H251793   5.236   0.460   6.574
17306TIP3   OH251794   5.871   0.100   5.058
17306TIP3    H151795   5.794   0.059   5.017
17306TIP3    H251796   5.835   0.171   5.111
17307TIP3   OH251797   1.358   9.085   6.572
17307TIP3    H151798   1.292   9.135   6.621
17307TIP3    H251799   1.392   9.022   6.635
17308TIP3   OH251800   2.164   9.149   6.225
17308TIP3    H151801   2.252   9.177   6.251
17308TIP3    H251802   2.146   9.073   6.281
17309TIP3   OH251803   2.068   8.912   5.403
17309TIP3    H151804   2.040   8.938   5.315
17309TIP3    H251805   2.101   8.992   5.443
17310TIP3   OH251806   1.769   9.051   5.439
17310TIP3    H151807   1.824   9.127   5.420
17310TIP3    H251808   1.773   9.041   5.534
17311TIP3   OH251809   5.320   0.158   6.270
17311TIP3    H151810   5.309   0.165   6.364
17311TIP3    H251811   5.350   0.068   6.256
17312TIP3   OH251812   1.888   8.787   5.575
17312TIP3    H151813   1.856   8.862   5.626
17312TIP3    H251814   1.957   8.823   5.519
17313TIP3   OH251815   1.365   8.817   5.367
17313TIP3    H151816   1.350   8.910   5.349
17313TIP3    H251817   1.459   8.811   5.384
17314TIP3   OH251818   5.937   0.050   6.279
17314TIP3    H151819   5.847   0.016   6.274
17314TIP3    H251820   5.965   0.056   6.187
17315TIP3   OH251821   5.488   0.242   5.669
17315TIP3    H151822   5.499   0.172   5.733
17315TIP3    H251823   5.572   0.287   5.668
17316TIP3   OH251824   0.815   8.938   5.260
17316TIP3    H151825   0.807   9.030   5.237
17316TIP3    H251826   0.787   8.891   5.182
17317TIP3   OH251827   1.336   8.727   6.124
17317TIP3    H151828   1.313   8.690   6.039
17317TIP3    H251829   1.339   8.652   6.183
17318TIP3   OH251830   4.692   0.408   6.800
17318TIP3    H151831   4.731   0.321   6.793
17318TIP3    H251832   4.620   0.397   6.862
17319TIP3   OH251833   4.990   0.207   6.393
17319TIP3    H151834   4.945   0.280   6.436
17319TIP3    H251835   5.013   0.241   6.307
17320TIP3   OH251836   4.686   0.058   5.087
17320TIP3    H151837   4.679   0.073   4.993
17320TIP3    H251838   4.775   0.086   5.110
17321TIP3   OH251839   5.016   0.014   6.586
17321TIP3    H151840   5.005  -0.065   6.534
17321TIP3    H251841   5.004   0.086   6.524
17322TIP3   OH251842   1.736   9.059   6.393
17322TIP3    H151843   1.760   9.105   6.313
17322TIP3    H251844   1.644   9.034   6.381
17323TIP3   OH251845   5.633   0.302   6.738
17323TIP3    H151846   5.633   0.248   6.659
17323TIP3    H251847   5.715   0.352   6.732
17324TIP3   OH251848   4.814   0.172   6.753
17324TIP3    H151849   4.787   0.086   6.785
17324TIP3    H251850   4.895   0.156   6.705
17325TIP3   OH251851   1.884   8.841   6.456
17325TIP3    H151852   1.837   8.921   6.432
17325TIP3    H251853   1.820   8.771   6.438
17326TIP3   OH251854   5.298   0.056   6.589
17326TIP3    H151855   5.299   0.085   6.680
17326TIP3    H251856   5.208   0.028   6.574
17327TIP3   OH251857   5.567   0.103   6.545
17327TIP3    H151858   5.481   0.065   6.562
17327TIP3    H251859   5.626   0.054   6.602
17328TIP3   OH251860   2.508   9.249   6.699
17328TIP3    H151861   2.523   9.155   6.694
17328TIP3    H251862   2.503   9.268   6.793
17329TIP3   OH251863   1.466   9.177   6.875
17329TIP3    H151864   1.468   9.093   6.829
17329TIP3    H251865   1.519   9.163   6.954
17330TIP3   OH251866   1.943   8.849   6.720
17330TIP3    H151867   2.018   8.789   6.720
17330TIP3    H251868   1.913   8.850   6.630
17331TIP3   OH251869   2.042   9.059   6.865
17331TIP3    H151870   2.016   8.986   6.809
17331TIP3    H251871   1.967   9.119   6.861
17332TIP3   OH251872   2.400   9.211   4.942
17332TIP3    H151873   2.400   9.205   4.847
17332TIP3    H251874   2.375   9.123   4.972
17333TIP3   OH251875   5.587   0.391   5.408
17333TIP3    H151876   5.555   0.303   5.427
17333TIP3    H251877   5.641   0.414   5.483
17334TIP3   OH251878   5.909   0.609   6.316
17334TIP3    H151879   5.863   0.567   6.243
17334TIP3    H251880   5.964   0.675   6.274
17335TIP3   OH251881   2.280   8.968   4.817
17335TIP3    H151882   2.353   8.930   4.866
17335TIP3    H251883   2.204   8.917   4.844
17336TIP3   OH251884   2.333   9.135   5.253
17336TIP3    H151885   2.393   9.061   5.262
17336TIP3    H251886   2.384   9.212   5.276
17337TIP3   OH251887   5.766   0.041   5.767
17337TIP3    H151888   5.816   0.071   5.691
17337TIP3    H251889   5.796   0.096   5.839
17338TIP3   OH251890   5.841   0.237   5.947
17338TIP3    H151891   5.776   0.271   6.008
17338TIP3    H251892   5.832   0.292   5.869
17339TIP3   OH251893   1.216   9.232   6.767
17339TIP3    H151894   1.297   9.233   6.817
17339TIP3    H251895   1.164   9.161   6.806
17340TIP3   OH251896   3.064   9.150   6.548
17340TIP3    H151897   3.117   9.079   6.514
17340TIP3    H251898   3.033   9.197   6.471
17341TIP3   OH251899   2.497   8.929   5.326
17341TIP3    H151900   2.542   8.928   5.410
17341TIP3    H251901   2.430   8.861   5.334
17342TIP3   OH251902   1.153   8.924   6.149
17342TIP3    H151903   1.212   8.848   6.147
17342TIP3    H251904   1.211   9.000   6.146
17343TIP3   OH251905   4.266  -0.018   6.257
17343TIP3    H151906   4.308  -0.015   6.171
17343TIP3    H251907   4.259   0.073   6.284
17344TIP3   OH251908   2.932   9.246   6.331
17344TIP3    H151909   2.843   9.281   6.336
17344TIP3    H251910   2.923   9.166   6.279
17345TIP3   OH251911   2.508   8.902   4.958
17345TIP3    H151912   2.551   8.835   4.905
17345TIP3    H251913   2.579   8.963   4.982
17346TIP3   OH251914   0.983   8.688   5.710
17346TIP3    H151915   0.904   8.682   5.765
17346TIP3    H251916   0.958   8.748   5.640
17347TIP3   OH251917   1.181   8.789   6.537
17347TIP3    H151918   1.132   8.794   6.619
17347TIP3    H251919   1.142   8.857   6.481
17348TIP3   OH251920   2.817   9.005   6.239
17348TIP3    H151921   2.729   9.012   6.200
17348TIP3    H251922   2.836   8.911   6.238
17349TIP3   OH251923   2.018   8.910   5.901
17349TIP3    H151924   1.956   8.846   5.938
17349TIP3    H251925   2.071   8.859   5.839
17350TIP3   OH251926   2.524   8.850   5.765
17350TIP3    H151927   2.582   8.889   5.699
17350TIP3    H251928   2.446   8.906   5.764
17351TIP3   OH251929   2.661   8.924   5.545
17351TIP3    H151930   2.726   8.858   5.520
17351TIP3    H251931   2.701   9.007   5.519
17352TIP3   OH251932   1.249   8.613   5.889
17352TIP3    H151933   1.160   8.582   5.901
17352TIP3    H251934   1.302   8.534   5.884
17353TIP3   OH251935   1.073   8.495   5.533
17353TIP3    H151936   1.101   8.542   5.454
17353TIP3    H251937   1.049   8.564   5.594
17354TIP3   OH251938   1.732   8.668   5.782
17354TIP3    H151939   1.786   8.709   5.714
17354TIP3    H251940   1.769   8.701   5.864
17355TIP3   OH251941   2.203   8.772   5.751
17355TIP3    H151942   2.262   8.748   5.680
17355TIP3    H251943   2.222   8.709   5.820
17356TIP3   OH251944   2.283   8.754   5.326
17356TIP3    H151945   2.206   8.805   5.352
17356TIP3    H251946   2.271   8.669   5.370
17357TIP3   OH251947   1.178   8.624   5.310
17357TIP3    H151948   1.228   8.573   5.247
17357TIP3    H251949   1.239   8.692   5.340
17358TIP3   OH251950   1.636   8.817   5.397
17358TIP3    H151951   1.675   8.739   5.437
17358TIP3    H251952   1.690   8.889   5.428
17359TIP3   OH251953   1.480   8.917   6.765
17359TIP3    H151954   1.444   8.855   6.829
17359TIP3    H251955   1.573   8.922   6.786
17360TIP3   OH251956   1.727   8.906   6.885
17360TIP3    H151957   1.805   8.886   6.833
17360TIP3    H251958   1.727   8.840   6.954
17361TIP3   OH251959   2.567   8.983   6.680
17361TIP3    H151960   2.588   8.947   6.766
17361TIP3    H251961   2.651   8.992   6.636
17362TIP3   OH251962   6.051   0.112   5.271
17362TIP3    H151963   6.000   0.182   5.312
17362TIP3    H251964   5.998   0.083   5.197
17363TIP3   OH251965   7.831   0.208   5.385
17363TIP3    H151966   7.863   0.283   5.436
17363TIP3    H251967   7.877   0.215   5.301
17364TIP3   OH251968   7.171   0.328   5.423
17364TIP3    H151969   7.175   0.271   5.499
17364TIP3    H251970   7.156   0.269   5.349
17365TIP3   OH251971   6.578   0.004   5.436
17365TIP3    H151972   6.582   0.088   5.390
17365TIP3    H251973   6.537  -0.055   5.373
17366TIP3   OH251974   7.274   0.112   4.977
17366TIP3    H151975   7.339   0.098   5.045
17366TIP3    H251976   7.325   0.136   4.900
17367TIP3   OH251977   6.203   0.228   5.510
17367TIP3    H151978   6.287   0.204   5.548
17367TIP3    H251979   6.202   0.186   5.424
17368TIP3   OH251980   6.688   0.546   5.210
17368TIP3    H151981   6.757   0.486   5.183
17368TIP3    H251982   6.607   0.503   5.184
17369TIP3   OH251983   7.955   0.415   5.516
17369TIP3    H151984   7.947   0.465   5.435
17369TIP3    H251985   7.967   0.481   5.584
17370TIP3   OH251986   6.538   0.002   5.834
17370TIP3    H151987   6.488   0.052   5.770
17370TIP3    H251988   6.492   0.016   5.917
17371TIP3   OH251989   7.432   0.105   5.198
17371TIP3    H151990   7.396   0.088   5.285
17371TIP3    H251991   7.494   0.176   5.210
17372TIP3   OH251992   6.435   0.145   5.626
17372TIP3    H151993   6.488   0.222   5.644
17372TIP3    H251994   6.483   0.098   5.557
17373TIP3   OH251995   7.638   0.075   5.538
17373TIP3    H151996   7.551   0.084   5.498
17373TIP3    H251997   7.697   0.118   5.476
17374TIP3   OH251998   3.632   8.989   5.534
17374TIP3    H151999   3.629   8.897   5.558
17374TIP3    H252000   3.555   9.028   5.575
17375TIP3   OH252001   6.790   0.406   4.391
17375TIP3    H152002   6.808   0.500   4.394
17375TIP3    H252003   6.844   0.369   4.460
17376TIP3   OH252004   7.576   0.775   5.567
17376TIP3    H152005   7.515   0.840   5.531
17376TIP3    H252006   7.519   0.712   5.611
17377TIP3   OH252007   4.264   8.939   4.620
17377TIP3    H152008   4.190   8.959   4.678
17377TIP3    H252009   4.278   9.018   4.569
17378TIP3   OH252010   7.720   0.577   5.779
17378TIP3    H152011   7.629   0.587   5.750
17378TIP3    H252012   7.735   0.482   5.778
17379TIP3   OH252013   3.391   9.052   5.666
17379TIP3    H152014   3.317   9.026   5.612
17379TIP3    H252015   3.359   9.127   5.717
17380TIP3   OH252016   3.928   9.211   5.853
17380TIP3    H152017   4.002   9.189   5.910
17380TIP3    H252018   3.851   9.179   5.900
17381TIP3   OH252019   7.440   0.322   5.781
17381TIP3    H152020   7.420   0.333   5.874
17381TIP3    H252021   7.449   0.411   5.747
17382TIP3   OH252022   3.556   9.110   4.639
17382TIP3    H152023   3.522   9.099   4.728
17382TIP3    H252024   3.528   9.031   4.593
17383TIP3   OH252025   6.596   0.347   5.742
17383TIP3    H152026   6.582   0.335   5.836
17383TIP3    H252027   6.565   0.436   5.725
17384TIP3   OH252028   6.581   0.126   5.173
17384TIP3    H152029   6.499   0.147   5.218
17384TIP3    H252030   6.556   0.112   5.082
17385TIP3   OH252031   6.971   0.264   4.878
17385TIP3    H152032   6.912   0.327   4.919
17385TIP3    H252033   6.966   0.284   4.785
17386TIP3   OH252034   7.166   0.603   5.979
17386TIP3    H152035   7.152   0.552   6.058
17386TIP3    H252036   7.259   0.625   5.981
17387TIP3   OH252037   7.123   0.243   5.161
17387TIP3    H152038   7.037   0.257   5.120
17387TIP3    H252039   7.167   0.182   5.103
17388TIP3   OH252040   3.181   9.039   4.585
17388TIP3    H152041   3.168   9.076   4.673
17388TIP3    H252042   3.112   9.078   4.532
17389TIP3   OH252043   2.787   9.142   5.454
17389TIP3    H152044   2.846   9.170   5.523
17389TIP3    H252045   2.788   9.214   5.391
17390TIP3   OH252046   2.710   9.095   4.993
17390TIP3    H152047   2.725   9.111   4.900
17390TIP3    H252048   2.680   9.178   5.028
17391TIP3   OH252049   7.214   0.583   5.602
17391TIP3    H152050   7.248   0.541   5.523
17391TIP3    H252051   7.156   0.517   5.641
17392TIP3   OH252052   6.844   0.019   5.220
17392TIP3    H152053   6.749   0.029   5.235
17392TIP3    H252054   6.884   0.069   5.291
17393TIP3   OH252055   6.325   0.097   5.288
17393TIP3    H152056   6.237   0.101   5.251
17393TIP3    H252057   6.352   0.006   5.276
17394TIP3   OH252058   6.547   0.113   4.903
17394TIP3    H152059   6.639   0.087   4.895
17394TIP3    H252060   6.512   0.102   4.815
17395TIP3   OH252061   7.352   0.071   5.459
17395TIP3    H152062   7.324   0.114   5.540
17395TIP3    H252063   7.278   0.016   5.434
17396TIP3   OH252064   6.394   0.064   4.688
17396TIP3    H152065   6.302   0.084   4.707
17396TIP3    H252066   6.403   0.082   4.595
17397TIP3   OH252067   6.875   0.265   5.378
17397TIP3    H152068   6.928   0.344   5.370
17397TIP3    H252069   6.876   0.245   5.472
17398TIP3   OH252070   3.160   9.087   5.247
17398TIP3    H152071   3.116   9.016   5.294
17398TIP3    H252072   3.188   9.047   5.164
17399TIP3   OH252073   6.841   0.268   5.650
17399TIP3    H152074   6.753   0.292   5.680
17399TIP3    H252075   6.899   0.299   5.719
17400TIP3   OH252076   7.080  -0.015   4.638
17400TIP3    H152077   6.986  -0.031   4.633
17400TIP3    H252078   7.090   0.077   4.615
17401TIP3   OH252079   7.196   0.251   4.611
17401TIP3    H152080   7.265   0.201   4.655
17401TIP3    H252081   7.235   0.337   4.596
17402TIP3   OH252082   6.959   0.754   6.111
17402TIP3    H152083   6.876   0.717   6.080
17402TIP3    H252084   7.022   0.733   6.042
17403TIP3   OH252085   7.626   0.321   4.560
17403TIP3    H152086   7.558   0.282   4.506
17403TIP3    H252087   7.597   0.412   4.573
17404TIP3   OH252088   6.420   0.087   6.068
17404TIP3    H152089   6.460   0.173   6.054
17404TIP3    H252090   6.429   0.072   6.162
17405TIP3   OH252091   7.230   0.185   5.681
17405TIP3    H152092   7.309   0.223   5.719
17405TIP3    H252093   7.211   0.110   5.737
17406TIP3   OH252094   3.853   9.145   4.895
17406TIP3    H152095   3.837   9.169   4.804
17406TIP3    H252096   3.902   9.219   4.931
17407TIP3   OH252097   6.816   0.054   4.948
17407TIP3    H152098   6.882   0.116   4.917
17407TIP3    H252099   6.827   0.052   5.043
17408TIP3   OH252100   7.075   0.407   5.766
17408TIP3    H152101   7.088   0.432   5.857
17408TIP3    H252102   7.121   0.324   5.757
17409TIP3   OH252103   3.681   9.043   5.082
17409TIP3    H152104   3.657   9.121   5.132
17409TIP3    H252105   3.745   9.074   5.018
17410TIP3   OH252106   3.165   9.068   4.873
17410TIP3    H152107   3.155   9.163   4.885
17410TIP3    H252108   3.259   9.053   4.879
17411TIP3   OH252109   7.712   0.309   5.736
17411TIP3    H152110   7.624   0.281   5.762
17411TIP3    H252111   7.703   0.331   5.643
17412TIP3   OH252112   7.352   0.400   5.107
17412TIP3    H152113   7.289   0.338   5.141
17412TIP3    H252114   7.434   0.379   5.152
17413TIP3   OH252115   2.680   9.199   4.741
17413TIP3    H152116   2.630   9.281   4.741
17413TIP3    H252117   2.635   9.143   4.678
17414TIP3   OH252118   3.123   8.984   5.611
17414TIP3    H152119   3.095   8.949   5.527
17414TIP3    H252120   3.122   8.908   5.670
17415TIP3   OH252121   6.495   0.668   6.251
17415TIP3    H152122   6.499   0.574   6.232
17415TIP3    H252123   6.418   0.678   6.307
17416TIP3   OH252124   6.593   0.326   4.620
17416TIP3    H152125   6.642   0.246   4.600
17416TIP3    H252126   6.625   0.390   4.556
17417TIP3   OH252127   6.846   0.284   5.956
17417TIP3    H152128   6.825   0.196   5.924
17417TIP3    H252129   6.765   0.316   5.994
17418TIP3   OH252130   6.804   0.051   5.820
17418TIP3    H152131   6.814   0.094   5.735
17418TIP3    H252132   6.710   0.034   5.827
17419TIP3   OH252133   7.441   0.565   6.231
17419TIP3    H152134   7.452   0.517   6.148
17419TIP3    H252135   7.523   0.613   6.242
17420TIP3   OH252136   6.624   0.410   6.354
17420TIP3    H152137   6.575   0.329   6.370
17420TIP3    H252138   6.630   0.415   6.258
17421TIP3   OH252139   3.684   9.104   5.943
17421TIP3    H152140   3.639   9.177   5.901
17421TIP3    H252141   3.623   9.031   5.937
17422TIP3   OH252142   7.101   0.310   6.047
17422TIP3    H152143   7.085   0.355   6.130
17422TIP3    H252144   7.015   0.291   6.012
17423TIP3   OH252145   7.374   0.367   6.037
17423TIP3    H152146   7.284   0.335   6.050
17423TIP3    H252147   7.427   0.314   6.096
17424TIP3   OH252148   7.575   0.264   6.196
17424TIP3    H152149   7.585   0.169   6.190
17424TIP3    H252150   7.564   0.281   6.289
17425TIP3   OH252151   6.522   0.139   6.356
17425TIP3    H152152   6.567   0.058   6.329
17425TIP3    H252153   6.539   0.145   6.450
17426TIP3   OH252154   3.750   9.105   6.207
17426TIP3    H152155   3.825   9.045   6.198
17426TIP3    H252156   3.713   9.109   6.118
17427TIP3   OH252157   7.095   0.109   6.305
17427TIP3    H152158   7.075   0.034   6.249
17427TIP3    H252159   7.011   0.151   6.320
17428TIP3   OH252160   7.450   0.217   4.380
17428TIP3    H152161   7.486   0.240   4.294
17428TIP3    H252162   7.423   0.126   4.372
17429TIP3   OH252163   7.371   0.655   4.899
17429TIP3    H152164   7.415   0.570   4.893
17429TIP3    H252165   7.359   0.669   4.993
17430TIP3   OH252166   7.744   0.872   5.789
17430TIP3    H152167   7.678   0.850   5.724
17430TIP3    H252168   7.793   0.944   5.751
17431TIP3   OH252169   4.078   9.214   4.316
17431TIP3    H152170   4.150   9.171   4.362
17431TIP3    H252171   4.002   9.156   4.332
17432TIP3   OH252172   7.419   0.179   4.756
17432TIP3    H152173   7.484   0.108   4.758
17432TIP3    H252174   7.469   0.258   4.773
17433TIP3   OH252175   7.572   0.329   5.257
17433TIP3    H152176   7.645   0.323   5.195
17433TIP3    H252177   7.614   0.345   5.342
17434TIP3   OH252178   7.621   0.449   5.505
17434TIP3    H152179   7.532   0.479   5.486
17434TIP3    H252180   7.677   0.523   5.481
17435TIP3   OH252181   6.272   0.277   6.275
17435TIP3    H152182   6.355   0.275   6.228
17435TIP3    H252183   6.246   0.185   6.283
17436TIP3   OH252184   8.103   0.170   6.041
17436TIP3    H152185   8.165   0.106   6.006
17436TIP3    H252186   8.068   0.214   5.964
17437TIP3   OH252187   4.297   9.190   4.818
17437TIP3    H152188   4.340   9.184   4.904
17437TIP3    H252189   4.227   9.125   4.821
17438TIP3   OH252190   2.961   9.198   5.660
17438TIP3    H152191   3.016   9.120   5.650
17438TIP3    H252192   3.022   9.271   5.662
17439TIP3   OH252193   6.117   0.238   5.774
17439TIP3    H152194   6.157   0.234   5.687
17439TIP3    H252195   6.097   0.331   5.786
17440TIP3   OH252196   7.963   0.257   5.824
17440TIP3    H152197   7.875   0.292   5.812
17440TIP3    H252198   7.961   0.172   5.779
17441TIP3   OH252199   4.310   9.146   4.447
17441TIP3    H152200   4.357   9.089   4.387
17441TIP3    H252201   4.376   9.210   4.475
17442TIP3   OH252202   2.739   8.897   5.180
17442TIP3    H152203   2.664   8.906   5.239
17442TIP3    H252204   2.741   8.980   5.132
17443TIP3   OH252205   2.968   9.015   6.002
17443TIP3    H152206   2.920   9.017   6.085
17443TIP3    H252207   2.914   9.068   5.943
17444TIP3   OH252208   4.595   9.257   5.731
17444TIP3    H152209   4.512   9.266   5.685
17444TIP3    H252210   4.617   9.164   5.722
17445TIP3   OH252211   3.843   9.187   5.396
17445TIP3    H152212   3.775   9.125   5.425
17445TIP3    H252213   3.889   9.140   5.326
17446TIP3   OH252214   4.322   9.105   5.268
17446TIP3    H152215   4.373   9.150   5.201
17446TIP3    H252216   4.234   9.144   5.263
17447TIP3   OH252217   4.460   9.173   5.044
17447TIP3    H152218   4.520   9.102   5.021
17447TIP3    H252219   4.497   9.250   5.002
17448TIP3   OH252220   3.047   8.872   5.371
17448TIP3    H152221   2.957   8.841   5.381
17448TIP3    H252222   3.099   8.792   5.369
17449TIP3   OH252223   2.860   8.744   4.990
17449TIP3    H152224   2.886   8.804   4.920
17449TIP3    H252225   2.823   8.801   5.057
17450TIP3   OH252226   3.519   8.930   5.279
17450TIP3    H152227   3.576   8.965   5.211
17450TIP3    H252228   3.555   8.962   5.361
17451TIP3   OH252229   4.022   9.055   5.231
17451TIP3    H152230   4.066   9.020   5.154
17451TIP3    H252231   4.028   8.986   5.297
17452TIP3   OH252232   4.086   9.011   4.819
17452TIP3    H152233   4.004   9.055   4.841
17452TIP3    H252234   4.078   8.925   4.859
17453TIP3   OH252235   2.963   8.905   4.778
17453TIP3    H152236   3.014   8.849   4.719
17453TIP3    H252237   3.029   8.960   4.821
17454TIP3   OH252238   3.438   9.056   4.884
17454TIP3    H152239   3.473   8.975   4.922
17454TIP3    H252240   3.489   9.126   4.925
17455TIP3   OH252241   3.350   9.126   6.301
17455TIP3    H152242   3.293   9.066   6.349
17455TIP3    H252243   3.338   9.101   6.209
17456TIP3   OH252244   3.607   9.107   6.442
17456TIP3    H152245   3.651   9.101   6.357
17456TIP3    H252246   3.514   9.120   6.420
17457TIP3   OH252247   4.355   9.233   6.169
17457TIP3    H152248   4.377   9.200   6.256
17457TIP3    H252249   4.439   9.241   6.124
17458TIP3   OH252250   7.844   0.404   4.744
17458TIP3    H152251   7.850   0.457   4.664
17458TIP3    H252252   7.775   0.340   4.725
17459TIP3   OH252253   9.648   0.469   4.861
17459TIP3    H152254   9.673   0.549   4.907
17459TIP3    H252255   9.687   0.478   4.774
17460TIP3   OH252256   9.026   0.629   4.845
17460TIP3    H152257   9.069   0.554   4.886
17460TIP3    H252258   8.999   0.597   4.759
17461TIP3   OH252259   8.375   0.228   4.904
17461TIP3    H152260   8.394   0.312   4.862
17461TIP3    H252261   8.329   0.177   4.837
17462TIP3   OH252262   9.102   0.396   4.470
17462TIP3    H152263   9.160   0.392   4.546
17462TIP3    H252264   9.154   0.437   4.402
17463TIP3   OH252265   7.983   0.498   4.995
17463TIP3    H152266   8.064   0.448   4.997
17463TIP3    H252267   7.938   0.469   4.916
17464TIP3   OH252268   8.483   0.806   4.719
17464TIP3    H152269   8.576   0.782   4.724
17464TIP3    H252270   8.440   0.730   4.680
17465TIP3   OH252271   9.717   0.668   5.047
17465TIP3    H152272   9.642   0.719   5.015
17465TIP3    H252273   9.754   0.722   5.117
17466TIP3   OH252274   8.359   0.278   5.297
17466TIP3    H152275   8.303   0.317   5.230
17466TIP3    H252276   8.310   0.292   5.379
17467TIP3   OH252277   9.248   0.408   4.703
17467TIP3    H152278   9.212   0.396   4.791
17467TIP3    H252279   9.305   0.484   4.710
17468TIP3   OH252280   8.227   0.389   5.085
17468TIP3    H152281   8.284   0.466   5.088
17468TIP3    H252282   8.260   0.337   5.012
17469TIP3   OH252283   9.458   0.354   5.032
17469TIP3    H152284   9.373   0.389   5.007
17469TIP3    H252285   9.518   0.385   4.964
17470TIP3   OH252286   5.439   9.250   5.015
17470TIP3    H152287   5.432   9.156   5.032
17470TIP3    H252288   5.362   9.288   5.057
17471TIP3   OH252289   8.562   0.575   4.101
17471TIP3    H152290   8.591   0.634   4.170
17471TIP3    H252291   8.625   0.588   4.030
17472TIP3   OH252292   9.325   0.980   5.072
17472TIP3    H152293   9.310   1.074   5.076
17472TIP3    H252294   9.244   0.944   5.036
17473TIP3   OH252295   6.069   9.205   4.111
17473TIP3    H152296   5.994   9.227   4.167
17473TIP3    H252297   6.081   9.282   4.055
17474TIP3   OH252298   9.455   0.890   5.308
17474TIP3    H152299   9.417   0.917   5.225
17474TIP3    H252300   9.478   0.797   5.296
17475TIP3   OH252301   8.464   0.089   5.129
17475TIP3    H152302   8.424   0.113   5.046
17475TIP3    H252303   8.429   0.152   5.192
17476TIP3   OH252304   9.226   0.587   5.260
17476TIP3    H152305   9.179   0.540   5.329
17476TIP3    H252306   9.199   0.678   5.269
17477TIP3   OH252307   8.601   0.137   4.117
17477TIP3    H152308   8.566   0.133   4.206
17477TIP3    H252309   8.576   0.053   4.078
17478TIP3   OH252310   8.391   0.605   5.158
17478TIP3    H152311   8.360   0.597   5.248
17478TIP3    H252312   8.379   0.698   5.137
17479TIP3   OH252313   8.389   0.380   4.652
17479TIP3    H152314   8.335   0.441   4.701
17479TIP3    H252315   8.356   0.385   4.562
17480TIP3   OH252316   8.820   0.528   4.331
17480TIP3    H152317   8.788   0.614   4.304
17480TIP3    H252318   8.885   0.504   4.264
17481TIP3   OH252319   8.968   0.856   5.497
17481TIP3    H152320   8.972   0.809   5.580
17481TIP3    H252321   9.049   0.831   5.451
17482TIP3   OH252322   8.908   0.527   4.620
17482TIP3    H152323   8.842   0.547   4.554
17482TIP3    H252324   8.976   0.480   4.572
17483TIP3   OH252325   8.267   0.590   5.408
17483TIP3    H152326   8.212   0.643   5.466
17483TIP3    H252327   8.266   0.503   5.447
17484TIP3   OH252328   8.243   0.056   4.046
17484TIP3    H152329   8.245   0.149   4.070
17484TIP3    H252330   8.205   0.055   3.958
17485TIP3   OH252331   7.837   0.131   4.893
17485TIP3    H152332   7.807   0.205   4.945
17485TIP3    H252333   7.921   0.160   4.856
17486TIP3   OH252334   7.775   0.100   4.507
17486TIP3    H152335   7.785   0.114   4.412
17486TIP3    H252336   7.732   0.179   4.538
17487TIP3   OH252337   9.087   0.840   5.016
17487TIP3    H152338   9.097   0.777   4.944
17487TIP3    H252339   9.000   0.824   5.051
17488TIP3   OH252340   8.634   0.267   4.698
17488TIP3    H152341   8.540   0.282   4.691
17488TIP3    H252342   8.662   0.322   4.771
17489TIP3   OH252343   8.108   0.329   4.807
17489TIP3    H152344   8.039   0.357   4.747
17489TIP3    H252345   8.150   0.255   4.762
17490TIP3   OH252346   8.372   0.418   4.377
17490TIP3    H152347   8.456   0.372   4.379
17490TIP3    H252348   8.321   0.374   4.308
17491TIP3   OH252349   9.133   0.395   4.962
17491TIP3    H152350   9.130   0.411   5.056
17491TIP3    H252351   9.060   0.335   4.945
17492TIP3   OH252352   8.206   0.306   4.190
17492TIP3    H152353   8.120   0.279   4.156
17492TIP3    H252354   8.236   0.372   4.127
17493TIP3   OH252355   8.711   0.467   4.885
17493TIP3    H152356   8.799   0.432   4.870
17493TIP3    H252357   8.708   0.484   4.979
17494TIP3   OH252358   8.218   0.102   4.702
17494TIP3    H152359   8.179   0.025   4.743
17494TIP3    H252360   8.214   0.083   4.608
17495TIP3   OH252361   8.663   0.548   5.148
17495TIP3    H152362   8.572   0.574   5.160
17495TIP3    H252363   8.710   0.590   5.220
17496TIP3   OH252364   8.865   0.231   4.138
17496TIP3    H152365   8.770   0.220   4.127
17496TIP3    H252366   8.881   0.322   4.114
17497TIP3   OH252367   8.992   0.483   4.110
17497TIP3    H152368   9.075   0.480   4.157
17497TIP3    H252369   9.016   0.505   4.020
17498TIP3   OH252370   8.750   1.012   5.565
17498TIP3    H152371   8.736   1.089   5.509
17498TIP3    H252372   8.834   0.977   5.536
17499TIP3   OH252373   9.363   0.612   4.017
17499TIP3    H152374   9.292   0.585   3.959
17499TIP3    H252375   9.379   0.704   3.995
17500TIP3   OH252376   8.220   0.335   5.525
17500TIP3    H152377   8.125   0.340   5.525
17500TIP3    H252378   8.241   0.272   5.595
17501TIP3   OH252379   8.939   0.186   4.398
17501TIP3    H152380   8.910   0.206   4.309
17501TIP3    H252381   8.987   0.264   4.425
17502TIP3   OH252382   8.636   0.341   4.420
17502TIP3    H152383   8.703   0.401   4.385
17502TIP3    H252384   8.646   0.346   4.515
17503TIP3   OH252385   8.859   0.666   5.319
17503TIP3    H152386   8.865   0.735   5.386
17503TIP3    H252387   8.910   0.594   5.354
17504TIP3   OH252388   8.748   0.066   4.555
17504TIP3    H152389   8.715   0.140   4.606
17504TIP3    H252390   8.816   0.104   4.499
17505TIP3   OH252391   8.224   0.098   4.394
17505TIP3    H152392   8.207   0.173   4.337
17505TIP3    H252393   8.319   0.086   4.390
17506TIP3   OH252394   9.496   0.622   5.251
17506TIP3    H152395   9.404   0.597   5.259
17506TIP3    H252396   9.519   0.599   5.161
17507TIP3   OH252397   9.179   0.735   4.562
17507TIP3    H152398   9.134   0.804   4.611
17507TIP3    H252399   9.239   0.697   4.626
17508TIP3   OH252400   7.752   0.178   4.252
17508TIP3    H152401   7.808   0.256   4.255
17508TIP3    H252402   7.677   0.204   4.198
17509TIP3   OH252403   4.874   9.251   5.105
17509TIP3    H152404   4.868   9.220   5.014
17509TIP3    H252405   4.897   9.173   5.155
17510TIP3   OH252406   8.309   0.937   5.760
17510TIP3    H152407   8.336   0.845   5.761
17510TIP3    H252408   8.231   0.940   5.816
17511TIP3   OH252409   8.570   0.721   5.378
17511TIP3    H152410   8.494   0.760   5.422
17511TIP3    H252411   8.613   0.796   5.336
17512TIP3   OH252412   8.290   0.556   4.067
17512TIP3    H152413   8.282   0.571   3.973
17512TIP3    H252414   8.382   0.574   4.087
17513TIP3   OH252415   8.589   0.503   5.568
17513TIP3    H152416   8.604   0.434   5.503
17513TIP3    H252417   8.593   0.584   5.517
17514TIP3   OH252418   8.618   0.345   5.338
17514TIP3    H152419   8.644   0.405   5.267
17514TIP3    H252420   8.526   0.327   5.321
17515TIP3   OH252421   9.311   0.835   5.554
17515TIP3    H152422   9.323   0.742   5.574
17515TIP3    H252423   9.366   0.851   5.478
17516TIP3   OH252424   8.416   0.688   5.744
17516TIP3    H152425   8.392   0.596   5.744
17516TIP3    H252426   8.503   0.691   5.702
17517TIP3   OH252427   8.729   0.101   5.367
17517TIP3    H152428   8.694   0.189   5.355
17517TIP3    H252429   8.652   0.044   5.371
17518TIP3   OH252430   9.395   0.578   5.653
17518TIP3    H152431   9.380   0.484   5.640
17518TIP3    H252432   9.376   0.593   5.746
17519TIP3   OH252433   8.310   0.440   5.831
17519TIP3    H152434   8.317   0.358   5.782
17519TIP3    H252435   8.365   0.426   5.908
17520TIP3   OH252436   8.893   0.152   5.574
17520TIP3    H152437   8.928   0.065   5.592
17520TIP3    H252438   8.830   0.139   5.504
17521TIP3   OH252439   8.940   0.345   5.789
17521TIP3    H152440   8.931   0.293   5.868
17521TIP3    H252441   8.860   0.398   5.786
17522TIP3   OH252442   9.162   0.533   3.853
17522TIP3    H152443   9.191   0.563   3.767
17522TIP3    H252444   9.149   0.439   3.842
17523TIP3   OH252445   9.341   0.725   4.340
17523TIP3    H152446   9.301   0.642   4.315
17523TIP3    H252447   9.295   0.752   4.419
17524TIP3   OH252448   9.706   1.003   5.365
17524TIP3    H152449   9.616   0.982   5.342
17524TIP3    H252450   9.759   0.933   5.326
17525TIP3   OH252451   9.139   0.263   3.830
17525TIP3    H152452   9.219   0.222   3.863
17525TIP3    H252453   9.071   0.196   3.840
17526TIP3   OH252454   9.243   0.483   4.235
17526TIP3    H152455   9.286   0.398   4.249
17526TIP3    H252456   9.291   0.523   4.162
17527TIP3   OH252457   9.386   0.647   4.737
17527TIP3    H152458   9.466   0.667   4.688
17527TIP3    H252459   9.403   0.681   4.825
17528TIP3   OH252460   9.493   0.793   4.954
17528TIP3    H152461   9.443   0.868   4.986
17528TIP3    H252462   9.536   0.826   4.875
17529TIP3   OH252463   8.043   0.515   5.767
17529TIP3    H152464   8.138   0.511   5.756
17529TIP3    H252465   8.019   0.426   5.793
17530TIP3   OH252466   0.102   0.422   5.530
17530TIP3    H152467   0.166   0.364   5.490
17530TIP3    H252468   0.063   0.470   5.457
17531TIP3   OH252469   9.350   0.238   4.290
17531TIP3    H152470   9.394   0.226   4.374
17531TIP3    H252471   9.284   0.169   4.288
17532TIP3   OH252472   8.010   0.238   5.174
17532TIP3    H152473   8.046   0.153   5.151
17532TIP3    H252474   8.080   0.300   5.155
17533TIP3   OH252475   7.922   0.526   5.268
17533TIP3    H152476   7.953   0.505   5.180
17533TIP3    H252477   7.893   0.617   5.263
17534TIP3   OH252478   9.746   0.536   5.338
17534TIP3    H152479   9.662   0.580   5.345
17534TIP3    H252480   9.728   0.459   5.284
17535TIP3   OH252481   9.378   0.167   3.929
17535TIP3    H152482   9.424   0.106   3.871
17535TIP3    H252483   9.433   0.245   3.931
17536TIP3   OH252484   4.544   9.133   4.673
17536TIP3    H152485   4.474   9.144   4.737
17536TIP3    H252486   4.546   9.215   4.625
17537TIP3   OH252487   8.028   0.050   5.508
17537TIP3    H152488   7.975   0.042   5.587
17537TIP3    H252489   7.972   0.096   5.446
17538TIP3   OH252490   9.663   0.295   5.225
17538TIP3    H152491   9.583   0.303   5.172
17538TIP3    H252492   9.687   0.203   5.218
17539TIP3   OH252493   8.907   0.239   4.899
17539TIP3    H152494   8.841   0.175   4.927
17539TIP3    H252495   8.961   0.192   4.836
17540TIP3   OH252496   9.371   0.116   4.746
17540TIP3    H152497   9.412   0.169   4.677
17540TIP3    H252498   9.281   0.148   4.750
17541TIP3   OH252499   9.498   0.202   4.519
17541TIP3    H152500   9.568   0.142   4.492
17541TIP3    H252501   9.533   0.289   4.503
17542TIP3   OH252502   4.840   9.136   4.851
17542TIP3    H152503   4.750   9.104   4.858
17542TIP3    H252504   4.894   9.056   4.852
17543TIP3   OH252505   4.678   8.999   4.473
17543TIP3    H152506   4.699   9.063   4.404
17543TIP3    H252507   4.635   9.050   4.541
17544TIP3   OH252508   5.325   9.184   4.757
17544TIP3    H152509   5.373   9.224   4.684
17544TIP3    H252510   5.358   9.229   4.835
17545TIP3   OH252511   9.080   0.092   4.743
17545TIP3    H152512   9.076   0.063   4.652
17545TIP3    H252513   9.092   0.012   4.794
17546TIP3   OH252514   9.154   0.041   4.302
17546TIP3    H152515   9.076   0.090   4.330
17546TIP3    H252516   9.142  -0.047   4.339
17547TIP3   OH252517   4.768   9.170   4.265
17547TIP3    H152518   4.820   9.129   4.196
17547TIP3    H252519   4.831   9.225   4.312
17548TIP3   OH252520   8.500   0.104   4.373
17548TIP3    H152521   8.535   0.021   4.404
17548TIP3    H252522   8.560   0.170   4.408
17549TIP3   OH252523   8.325   0.172   5.734
17549TIP3    H152524   8.289   0.109   5.797
17549TIP3    H252525   8.416   0.182   5.760
17550TIP3   OH252526   8.565   0.181   5.869
17550TIP3    H152527   8.657   0.173   5.844
17550TIP3    H252528   8.551   0.110   5.931
17551TIP3   OH252529   9.414   0.294   5.657
17551TIP3    H152530   9.434   0.268   5.747
17551TIP3    H252531   9.499   0.290   5.612
17552TIP3   OH252532   9.577   0.665   4.205
17552TIP3    H152533   9.517   0.704   4.268
17552TIP3    H252534   9.520   0.637   4.133
17553TIP3   OH252535   1.030   0.947   4.341
17553TIP3    H152536   1.021   0.857   4.311
17553TIP3    H252537   1.029   0.999   4.260
17554TIP3   OH252538   0.371   0.556   4.306
17554TIP3    H152539   0.353   0.638   4.260
17554TIP3    H252540   0.312   0.493   4.266
17555TIP3   OH252541   1.076   0.666   3.958
17555TIP3    H152542   1.133   0.667   4.034
17555TIP3    H252543   1.133   0.640   3.885
17556TIP3   OH252544   9.764   0.758   4.480
17556TIP3    H152545   9.855   0.734   4.497
17556TIP3    H252546   9.754   0.750   4.385
17557TIP3   OH252547   0.464   0.971   4.269
17557TIP3    H152548   0.555   0.942   4.264
17557TIP3    H252549   0.416   0.911   4.212
17558TIP3   OH252550   0.323   0.560   4.771
17558TIP3    H152551   0.271   0.594   4.698
17558TIP3    H252552   0.269   0.575   4.848
17559TIP3   OH252553   1.264   0.679   4.155
17559TIP3    H152554   1.202   0.695   4.226
17559TIP3    H252555   1.335   0.742   4.171
17560TIP3   OH252556   0.218   0.638   4.529
17560TIP3    H152557   0.252   0.727   4.518
17560TIP3    H252558   0.262   0.587   4.461
17561TIP3   OH252559   1.395   0.597   4.416
17561TIP3    H152560   1.349   0.680   4.404
17561TIP3    H252561   1.426   0.573   4.329
17562TIP3   OH252562   0.655   0.263   4.486
17562TIP3    H152563   0.646   0.171   4.509
17562TIP3    H252564   0.580   0.306   4.527
17563TIP3   OH252565   0.615   0.801   3.487
17563TIP3    H152566   0.677   0.841   3.547
17563TIP3    H252567   0.669   0.754   3.424
17564TIP3   OH252568   1.307   0.258   3.584
17564TIP3    H152569   1.235   0.266   3.646
17564TIP3    H252570   1.329   0.348   3.561
17565TIP3   OH252571   0.431   0.352   4.624
17565TIP3    H152572   0.348   0.318   4.593
17565TIP3    H252573   0.409   0.433   4.670
17566TIP3   OH252574   0.958   0.339   4.853
17566TIP3    H152575   1.011   0.419   4.857
17566TIP3    H252576   0.875   0.364   4.895
17567TIP3   OH252577   1.247   0.797   4.800
17567TIP3    H152578   1.285   0.849   4.871
17567TIP3    H252579   1.211   0.862   4.739
17568TIP3   OH252580   0.607   0.379   3.602
17568TIP3    H152581   0.565   0.392   3.687
17568TIP3    H252582   0.567   0.299   3.568
17569TIP3   OH252583   0.321   0.880   4.482
17569TIP3    H152584   0.322   0.943   4.553
17569TIP3    H252585   0.357   0.928   4.407
17570TIP3   OH252586   0.295   0.774   4.154
17570TIP3    H152587   0.205   0.764   4.185
17570TIP3    H252588   0.294   0.738   4.065
17571TIP3   OH252589   0.745   0.857   3.850
17571TIP3    H152590   0.694   0.932   3.819
17571TIP3    H252591   0.806   0.838   3.779
17572TIP3   OH252592   1.027   1.162   5.116
17572TIP3    H152593   1.001   1.113   5.194
17572TIP3    H252594   1.009   1.103   5.043
17573TIP3   OH252595   0.910   0.865   4.071
17573TIP3    H152596   0.844   0.867   4.001
17573TIP3    H252597   0.969   0.795   4.044
17574TIP3   OH252598   0.095   0.847   4.847
17574TIP3    H152599   0.162   0.913   4.830
17574TIP3    H252600   0.137   0.783   4.904
17575TIP3   OH252601   0.265   0.378   3.580
17575TIP3    H152602   0.255   0.388   3.675
17575TIP3    H252603   0.191   0.425   3.542
17576TIP3   OH252604   9.614   0.431   4.443
17576TIP3    H152605   9.678   0.469   4.504
17576TIP3    H252606   9.649   0.451   4.356
17577TIP3   OH252607   9.524   0.402   3.938
17577TIP3    H152608   9.573   0.438   3.865
17577TIP3    H252609   9.468   0.473   3.968
17578TIP3   OH252610   0.941   1.161   4.487
17578TIP3    H152611   0.954   1.084   4.431
17578TIP3    H252612   0.866   1.138   4.542
17579TIP3   OH252613   0.629   0.559   4.191
17579TIP3    H152614   0.549   0.555   4.242
17579TIP3    H252615   0.700   0.548   4.255
17580TIP3   OH252616   0.050   0.658   4.222
17580TIP3    H152617  -0.043   0.659   4.199
17580TIP3    H252618   0.079   0.569   4.202
17581TIP3   OH252619   0.282   0.647   3.909
17581TIP3    H152620   0.374   0.661   3.885
17581TIP3    H252621   0.234   0.666   3.828
17582TIP3   OH252622   1.033   0.675   4.318
17582TIP3    H152623   1.065   0.660   4.407
17582TIP3    H252624   0.964   0.609   4.306
17583TIP3   OH252625   0.134   0.656   3.671
17583TIP3    H152626   0.089   0.608   3.602
17583TIP3    H252627   0.204   0.704   3.626
17584TIP3   OH252628   0.729   0.893   4.292
17584TIP3    H152629   0.790   0.880   4.220
17584TIP3    H252630   0.776   0.864   4.370
17585TIP3   OH252631   0.169   0.402   4.187
17585TIP3    H152632   0.141   0.327   4.239
17585TIP3    H252633   0.182   0.366   4.099
17586TIP3   OH252634   0.584   0.814   4.599
17586TIP3    H152635   0.529   0.810   4.521
17586TIP3    H252636   0.673   0.824   4.565
17587TIP3   OH252637   0.832   0.528   3.612
17587TIP3    H152638   0.751   0.477   3.610
17587TIP3    H252639   0.824   0.590   3.539
17588TIP3   OH252640   0.912   0.815   3.636
17588TIP3    H152641   0.952   0.729   3.651
17588TIP3    H252642   0.968   0.856   3.570
17589TIP3   OH252643   0.582   1.236   5.139
17589TIP3    H152644   0.513   1.247   5.073
17589TIP3    H252645   0.635   1.164   5.106
17590TIP3   OH252646   0.186   0.614   5.002
17590TIP3    H152647   0.092   0.615   5.021
17590TIP3    H252648   0.225   0.563   5.072
17591TIP3   OH252649   1.125   0.643   4.570
17591TIP3    H152650   1.193   0.708   4.585
17591TIP3    H252651   1.098   0.616   4.657
17592TIP3   OH252652   0.910   0.459   3.871
17592TIP3    H152653   0.883   0.486   3.783
17592TIP3    H252654   0.957   0.534   3.906
17593TIP3   OH252655   0.569   0.656   3.937
17593TIP3    H152656   0.632   0.723   3.909
17593TIP3    H252657   0.591   0.640   4.029
17594TIP3   OH252658   0.771   0.907   4.831
17594TIP3    H152659   0.859   0.944   4.845
17594TIP3    H252660   0.787   0.816   4.806
17595TIP3   OH252661   0.725   0.346   4.039
17595TIP3    H152662   0.699   0.424   4.087
17595TIP3    H252663   0.794   0.376   3.980
17596TIP3   OH252664   0.236   0.374   3.864
17596TIP3    H152665   0.228   0.467   3.888
17596TIP3    H252666   0.330   0.357   3.866
17597TIP3   OH252667   1.546   0.842   4.767
17597TIP3    H152668   1.486   0.912   4.745
17597TIP3    H252669   1.561   0.796   4.684
17598TIP3   OH252670   9.631   0.562   3.744
17598TIP3    H152671   9.716   0.606   3.748
17598TIP3    H252672   9.594   0.588   3.660
17599TIP3   OH252673   0.173   0.266   4.589
17599TIP3    H152674   0.147   0.237   4.501
17599TIP3    H252675   0.168   0.187   4.642
17600TIP3   OH252676   0.171   1.236   5.193
17600TIP3    H152677   0.162   1.146   5.163
17600TIP3    H252678   0.240   1.233   5.259
17601TIP3   OH252679   0.404   0.979   4.729
17601TIP3    H152680   0.429   1.070   4.715
17601TIP3    H252681   0.475   0.927   4.691
17602TIP3   OH252682   0.337   0.763   3.523
17602TIP3    H152683   0.303   0.768   3.434
17602TIP3    H252684   0.432   0.776   3.514
17603TIP3   OH252685   0.574   0.718   5.058
17603TIP3    H152686   0.578   0.679   4.970
17603TIP3    H252687   0.520   0.796   5.046
17604TIP3   OH252688   0.582   0.623   4.800
17604TIP3    H152689   0.594   0.690   4.733
17604TIP3    H252690   0.490   0.598   4.792
17605TIP3   OH252691   0.443   0.952   5.272
17605TIP3    H152692   0.387   0.879   5.299
17605TIP3    H252693   0.445   0.947   5.177
17606TIP3   OH252694   0.700   0.405   4.919
17606TIP3    H152695   0.652   0.480   4.883
17606TIP3    H252696   0.641   0.331   4.906
17607TIP3   OH252697   0.811   0.781   5.169
17607TIP3    H152698   0.785   0.803   5.258
17607TIP3    H252699   0.733   0.742   5.129
17608TIP3   OH252700   1.001   0.746   4.990
17608TIP3    H152701   0.939   0.749   5.063
17608TIP3    H252702   1.082   0.711   5.029
17609TIP3   OH252703   1.430   0.845   5.249
17609TIP3    H152704   1.374   0.767   5.243
17609TIP3    H252705   1.377   0.909   5.296
17610TIP3   OH252706   0.306   0.721   5.333
17610TIP3    H152707   0.314   0.642   5.279
17610TIP3    H252708   0.345   0.698   5.417
17611TIP3   OH252709   0.776   0.419   5.187
17611TIP3    H152710   0.853   0.362   5.186
17611TIP3    H252711   0.747   0.421   5.096
17612TIP3   OH252712   0.802   0.587   5.415
17612TIP3    H152713   0.815   0.545   5.330
17612TIP3    H252714   0.752   0.666   5.395
17613TIP3   OH252715   1.056   0.567   3.307
17613TIP3    H152716   1.140   0.538   3.271
17613TIP3    H252717   1.008   0.486   3.326
17614TIP3   OH252718   0.045   0.785   5.267
17614TIP3    H152719   0.139   0.785   5.285
17614TIP3    H252720   0.013   0.705   5.308
17615TIP3   OH252721   1.262   0.537   3.806
17615TIP3    H152722   1.340   0.529   3.861
17615TIP3    H252723   1.228   0.448   3.798
17616TIP3   OH252724   0.011   0.483   4.637
17616TIP3    H152725   0.064   0.404   4.628
17616TIP3    H252726   0.066   0.553   4.602
17617TIP3   OH252727   9.648   0.805   4.725
17617TIP3    H152728   9.671   0.794   4.633
17617TIP3    H252729   9.731   0.823   4.769
17618TIP3   OH252730   9.605   0.255   4.156
17618TIP3    H152731   9.522   0.245   4.203
17618TIP3    H252732   9.585   0.314   4.084
17619TIP3   OH252733   9.824   0.302   4.993
17619TIP3    H152734   9.779   0.309   5.077
17619TIP3    H252735   9.770   0.352   4.932
17620TIP3   OH252736   1.753   0.623   4.788
17620TIP3    H152737   1.690   0.651   4.721
17620TIP3    H252738   1.774   0.533   4.765
17621TIP3   OH252739   0.845   0.460   4.334
17621TIP3    H152740   0.807   0.390   4.386
17621TIP3    H252741   0.917   0.418   4.286
17622TIP3   OH252742   1.349   0.388   4.189
17622TIP3    H152743   1.396   0.442   4.125
17622TIP3    H252744   1.259   0.421   4.187
17623TIP3   OH252745   1.482   0.502   3.973
17623TIP3    H152746   1.539   0.434   3.937
17623TIP3    H252747   1.541   0.572   4.000
17624TIP3   OH252748   0.102   0.178   4.338
17624TIP3    H152749   0.014   0.141   4.346
17624TIP3    H252750   0.160   0.103   4.333
17625TIP3   OH252751   9.735   0.066   3.996
17625TIP3    H152752   9.761   0.115   3.918
17625TIP3    H252753   9.697   0.132   4.054
17626TIP3   OH252754   0.572   0.206   4.224
17626TIP3    H152755   0.622   0.254   4.158
17626TIP3    H252756   0.603   0.241   4.308
17627TIP3   OH252757   1.064   0.358   4.195
17627TIP3    H152758   1.066   0.329   4.104
17627TIP3    H252759   1.066   0.277   4.246
17628TIP3   OH252760   1.124   0.299   3.786
17628TIP3    H152761   1.041   0.341   3.810
17628TIP3    H252762   1.116   0.210   3.820
17629TIP3   OH252763   0.035   0.202   3.765
17629TIP3    H152764   0.083   0.146   3.704
17629TIP3    H252765   0.103   0.259   3.802
17630TIP3   OH252766   0.510   0.400   3.860
17630TIP3    H152767   0.570   0.349   3.914
17630TIP3    H252768   0.529   0.491   3.883
17631TIP3   OH252769   0.309   0.457   5.212
17631TIP3    H152770   0.275   0.394   5.276
17631TIP3    H252771   0.401   0.466   5.235
17632TIP3   OH252772   0.546   0.451   5.343
17632TIP3    H152773   0.631   0.445   5.298
17632TIP3    H252774   0.550   0.384   5.411
17633TIP3   OH252775   1.517   0.494   5.224
17633TIP3    H152776   1.559   0.503   5.309
17633TIP3    H252777   1.584   0.523   5.161
17634TIP3   OH252778   6.104   5.722   0.888
17634TIP3    H152779   6.009   5.710   0.877
17634TIP3    H252780   6.141   5.688   0.806
17635TIP3   OH252781   5.989   6.244   0.810
17635TIP3    H152782   6.031   6.251   0.724
17635TIP3    H252783   5.991   6.150   0.830
17636TIP3   OH252784   5.675   5.805   0.913
17636TIP3    H152785   5.703   5.850   0.992
17636TIP3    H252786   5.711   5.858   0.842
17637TIP3   OH252787   7.462   5.687   1.171
17637TIP3    H152788   7.403   5.747   1.125
17637TIP3    H252789   7.420   5.601   1.163
17638TIP3   OH252790   7.763   5.938   1.263
17638TIP3    H152791   7.691   5.966   1.320
17638TIP3    H252792   7.730   5.950   1.174
17639TIP3   OH252793   7.431   6.368   1.190
17639TIP3    H152794   7.520   6.360   1.156
17639TIP3    H252795   7.442   6.388   1.283
17640TIP3   OH252796   7.312   5.876   1.047
17640TIP3    H152797   7.321   5.971   1.035
17640TIP3    H252798   7.235   5.866   1.103
17641TIP3   OH252799   7.669   6.364   1.045
17641TIP3    H152800   7.646   6.275   1.018
17641TIP3    H252801   7.658   6.417   0.966
17642TIP3   OH252802   7.580   6.151   0.923
17642TIP3    H152803   7.576   6.143   0.827
17642TIP3    H252804   7.582   6.060   0.954
17643TIP3   OH252805   7.282   5.580   0.957
17643TIP3    H152806   7.194   5.580   0.919
17643TIP3    H252807   7.331   5.644   0.905
17644TIP3   OH252808   7.335   5.295   0.502
17644TIP3    H152809   7.331   5.323   0.594
17644TIP3    H252810   7.345   5.200   0.507
17645TIP3   OH252811   7.633   5.654   0.919
17645TIP3    H152812   7.619   5.581   0.979
17645TIP3    H252813   7.727   5.669   0.920
17646TIP3   OH252814   7.577   5.476   0.693
17646TIP3    H152815   7.597   5.563   0.729
17646TIP3    H252816   7.559   5.492   0.601
17647TIP3   OH252817   7.279   6.144   1.026
17647TIP3    H152818   7.274   6.136   0.931
17647TIP3    H252819   7.188   6.148   1.055
17648TIP3   OH252820   7.850   6.082   0.242
17648TIP3    H152821   7.845   6.176   0.224
17648TIP3    H252822   7.938   6.056   0.213
17649TIP3   OH252823   7.150   6.278   0.778
17649TIP3    H152824   7.119   6.361   0.742
17649TIP3    H252825   7.071   6.235   0.810
17650TIP3   OH252826   7.345   6.311   0.357
17650TIP3    H152827   7.402   6.242   0.323
17650TIP3    H252828   7.365   6.315   0.450
17651TIP3   OH252829   7.432   6.332   0.633
17651TIP3    H152830   7.401   6.251   0.674
17651TIP3    H252831   7.494   6.368   0.697
17652TIP3   OH252832   7.559   5.518   0.420
17652TIP3    H152833   7.473   5.531   0.382
17652TIP3    H252834   7.618   5.570   0.365
17653TIP3   OH252835   7.410   5.134   0.966
17653TIP3    H152836   7.459   5.215   0.956
17653TIP3    H252837   7.368   5.121   0.880
17654TIP3   OH252838   6.755   5.129   0.795
17654TIP3    H152839   6.785   5.105   0.882
17654TIP3    H252840   6.809   5.203   0.770
17655TIP3   OH252841   7.024   5.593   0.889
17655TIP3    H152842   6.953   5.534   0.913
17655TIP3    H252843   7.004   5.675   0.934
17656TIP3   OH252844   7.617   5.198   0.723
17656TIP3    H152845   7.648   5.178   0.812
17656TIP3    H252846   7.603   5.293   0.724
17657TIP3   OH252847   7.313   5.907   0.516
17657TIP3    H152848   7.289   6.000   0.522
17657TIP3    H252849   7.229   5.860   0.521
17658TIP3   OH252850   8.135   5.210   0.504
17658TIP3    H152851   8.069   5.189   0.439
17658TIP3    H252852   8.120   5.302   0.525
17659TIP3   OH252853   7.788   6.153   0.503
17659TIP3    H152854   7.863   6.141   0.562
17659TIP3    H252855   7.817   6.116   0.420
17660TIP3   OH252856   6.729   6.195   0.971
17660TIP3    H152857   6.665   6.205   1.041
17660TIP3    H252858   6.796   6.260   0.990
17661TIP3   OH252859   7.557   5.871   0.410
17661TIP3    H152860   7.603   5.827   0.482
17661TIP3    H252861   7.467   5.880   0.440
17662TIP3   OH252862   7.853   6.355   0.227
17662TIP3    H152863   7.903   6.432   0.202
17662TIP3    H252864   7.765   6.388   0.247
17663TIP3   OH252865   7.703   5.753   0.618
17663TIP3    H152866   7.689   5.806   0.696
17663TIP3    H252867   7.785   5.785   0.581
17664TIP3   OH252868   6.835   5.862   0.379
17664TIP3    H152869   6.849   5.773   0.346
17664TIP3    H252870   6.802   5.850   0.468
17665TIP3   OH252871   6.798   5.855   0.664
17665TIP3    H152872   6.848   5.774   0.667
17665TIP3    H252873   6.795   5.886   0.754
17666TIP3   OH252874   7.090   5.911   0.717
17666TIP3    H152875   7.065   5.996   0.752
17666TIP3    H252876   7.042   5.905   0.634
17667TIP3   OH252877   6.710   6.188   0.659
17667TIP3    H152878   6.740   6.264   0.608
17667TIP3    H252879   6.661   6.226   0.732
17668TIP3   OH252880   6.561   5.749   0.749
17668TIP3    H152881   6.624   5.807   0.706
17668TIP3    H252882   6.609   5.667   0.762
17669TIP3   OH252883   7.710   6.512   1.269
17669TIP3    H152884   7.701   6.466   1.186
17669TIP3    H252885   7.776   6.580   1.252
17670TIP3   OH252886   7.096   6.080   0.282
17670TIP3    H152887   7.147   6.096   0.361
17670TIP3    H252888   7.159   6.047   0.218
17671TIP3   OH252889   7.495   6.103   0.259
17671TIP3    H152890   7.531   6.035   0.316
17671TIP3    H252891   7.549   6.099   0.181
17672TIP3   OH252892   6.684   5.632   0.493
17672TIP3    H152893   6.662   5.606   0.582
17672TIP3    H252894   6.746   5.565   0.463
17673TIP3   OH252895   7.288   5.755   0.255
17673TIP3    H152896   7.246   5.766   0.340
17673TIP3    H252897   7.305   5.661   0.248
17674TIP3   OH252898   6.871   5.372   0.901
17674TIP3    H152899   6.913   5.357   0.986
17674TIP3    H252900   6.933   5.336   0.838
17675TIP3   OH252901   6.989   5.272   0.680
17675TIP3    H152902   6.957   5.202   0.624
17675TIP3    H252903   7.039   5.329   0.622
17676TIP3   OH252904   7.762   5.607   0.243
17676TIP3    H152905   7.757   5.556   0.162
17676TIP3    H252906   7.741   5.696   0.217
17677TIP3   OH252907   6.814   6.387   0.505
17677TIP3    H152908   6.906   6.368   0.485
17677TIP3    H252909   6.779   6.421   0.424
17678TIP3   OH252910   6.363   5.589   0.843
17678TIP3    H152911   6.424   5.660   0.822
17678TIP3    H252912   6.305   5.584   0.767
17679TIP3   OH252913   8.116   6.565   1.213
17679TIP3    H152914   8.116   6.656   1.243
17679TIP3    H252915   8.036   6.557   1.161
17680TIP3   OH252916   7.958   5.823   0.566
17680TIP3    H152917   7.999   5.902   0.533
17680TIP3    H252918   8.018   5.790   0.633
17681TIP3   OH252919   8.148   5.732   0.747
17681TIP3    H152920   8.153   5.649   0.795
17681TIP3    H252921   8.119   5.796   0.811
17682TIP3   OH252922   8.085   5.975   1.181
17682TIP3    H152923   8.153   5.919   1.218
17682TIP3    H252924   8.132   6.049   1.143
17683TIP3   OH252925   8.006   5.651   0.364
17683TIP3    H152926   7.928   5.646   0.310
17683TIP3    H252927   7.987   5.718   0.429
17684TIP3   OH252928   7.939   5.176   0.321
17684TIP3    H152929   7.907   5.263   0.344
17684TIP3    H252930   7.872   5.141   0.262
17685TIP3   OH252931   7.767   5.430   1.050
17685TIP3    H152932   7.831   5.402   0.984
17685TIP3    H252933   7.820   5.473   1.117
17686TIP3   OH252934   7.929   5.095   0.792
17686TIP3    H152935   7.862   5.085   0.860
17686TIP3    H252936   7.884   5.070   0.711
17687TIP3   OH252937   7.650   6.457   0.777
17687TIP3    H152938   7.697   6.442   0.695
17687TIP3    H252939   7.681   6.542   0.807
17688TIP3   OH252940   6.330   6.131   1.069
17688TIP3    H152941   6.322   6.035   1.071
17688TIP3    H252942   6.283   6.157   0.990
17689TIP3   OH252943   7.053   6.345   0.371
17689TIP3    H152944   7.148   6.356   0.381
17689TIP3    H252945   7.044   6.266   0.319
17690TIP3   OH252946   7.761   6.422   0.532
17690TIP3    H152947   7.768   6.327   0.521
17690TIP3    H252948   7.710   6.451   0.457
17691TIP3   OH252949   6.270   6.102   0.520
17691TIP3    H152950   6.266   6.106   0.615
17691TIP3    H252951   6.362   6.120   0.499
17692TIP3   OH252952   9.258   5.926   0.546
17692TIP3    H152953   9.235   6.014   0.519
17692TIP3    H252954   9.199   5.869   0.498
17693TIP3   OH252955   9.334   5.896   0.813
17693TIP3    H152956   9.360   5.805   0.826
17693TIP3    H252957   9.310   5.901   0.720
17694TIP3   OH252958   8.598   5.673   1.219
17694TIP3    H152959   8.586   5.733   1.293
17694TIP3    H252960   8.673   5.709   1.171
17695TIP3   OH252961   9.539   6.238   0.603
17695TIP3    H152962   9.551   6.169   0.668
17695TIP3    H252963   9.545   6.320   0.653
17696TIP3   OH252964   8.565   6.249   0.952
17696TIP3    H152965   8.489   6.205   0.914
17696TIP3    H252966   8.639   6.194   0.928
17697TIP3   OH252967   8.283   5.319   0.744
17697TIP3    H152968   8.242   5.377   0.680
17697TIP3    H252969   8.265   5.230   0.712
17698TIP3   OH252970   8.293   5.725   1.012
17698TIP3    H152971   8.251   5.642   0.990
17698TIP3    H252972   8.328   5.757   0.930
17699TIP3   OH252973   9.488   5.661   0.963
17699TIP3    H152974   9.570   5.618   0.987
17699TIP3    H252975   9.455   5.610   0.889
17700TIP3   OH252976   8.424   5.469   1.149
17700TIP3    H152977   8.507   5.507   1.176
17700TIP3    H252978   8.447   5.400   1.087
17701TIP3   OH252979   8.940   5.689   0.822
17701TIP3    H152980   9.031   5.665   0.839
17701TIP3    H252981   8.912   5.629   0.753
17702TIP3   OH252982   0.317   5.675   1.252
17702TIP3    H152983   0.248   5.708   1.194
17702TIP3    H252984   0.312   5.580   1.242
17703TIP3   OH252985   9.171   6.146   0.396
17703TIP3    H152986   9.135   6.121   0.311
17703TIP3    H252987   9.120   6.222   0.422
17704TIP3   OH252988   8.823   6.023   1.144
17704TIP3    H152989   8.803   6.030   1.237
17704TIP3    H252990   8.893   6.087   1.129
17705TIP3   OH252991   8.719   5.405   1.206
17705TIP3    H152992   8.748   5.481   1.256
17705TIP3    H252993   8.740   5.427   1.115
17706TIP3   OH252994   8.873   6.281   1.293
17706TIP3    H152995   8.900   6.302   1.203
17706TIP3    H252996   8.779   6.299   1.294
17707TIP3   OH252997   8.144   5.997   0.472
17707TIP3    H152998   8.137   6.059   0.399
17707TIP3    H252999   8.126   6.049   0.550
17708TIP3   OH253000   9.531   6.480   0.753
17708TIP3    H153001   9.435   6.484   0.759
17708TIP3    H253002   9.556   6.561   0.709
17709TIP3   OH253003   9.289   6.479   0.438
17709TIP3    H153004   9.343   6.407   0.406
17709TIP3    H253005   9.330   6.557   0.401
17710TIP3   OH253006   9.428   6.253   0.351
17710TIP3    H153007   9.346   6.206   0.365
17710TIP3    H253008   9.476   6.243   0.432
17711TIP3   OH253009   9.809   6.388   1.087
17711TIP3    H153010   9.795   6.310   1.033
17711TIP3    H253011   9.787   6.461   1.029
17712TIP3   OH253012   9.113   5.770   0.369
17712TIP3    H153013   9.029   5.806   0.342
17712TIP3    H253014   9.163   5.762   0.287
17713TIP3   OH253015   9.065   5.578   0.061
17713TIP3    H153016   9.134   5.623   0.110
17713TIP3    H253017   9.111   5.510   0.012
17714TIP3   OH253018   0.179   6.010   0.941
17714TIP3    H153019   0.100   6.064   0.947
17714TIP3    H253020   0.210   6.024   0.852
17715TIP3   OH253021   9.439   5.869   0.335
17715TIP3    H153022   9.389   5.897   0.412
17715TIP3    H253023   9.527   5.852   0.369
17716TIP3   OH253024   9.714   5.899   1.282
17716TIP3    H153025   9.704   5.984   1.324
17716TIP3    H253026   9.629   5.883   1.240
17717TIP3   OH253027   8.709   5.804   0.646
17717TIP3    H153028   8.651   5.761   0.583
17717TIP3    H253029   8.765   5.733   0.679
17718TIP3   OH253030   8.824   6.318   0.758
17718TIP3    H153031   8.780   6.286   0.679
17718TIP3    H253032   8.913   6.284   0.752
17719TIP3   OH253033   8.796   5.768   1.048
17719TIP3    H153034   8.846   5.756   0.968
17719TIP3    H253035   8.816   5.857   1.076
17720TIP3   OH253036   9.014   6.368   1.507
17720TIP3    H153037   8.947   6.348   1.573
17720TIP3    H253038   8.981   6.325   1.427
17721TIP3   OH253039   9.295   5.715   0.155
17721TIP3    H153040   9.348   5.778   0.204
17721TIP3    H253041   9.326   5.722   0.065
17722TIP3   OH253042   9.031   6.388   0.436
17722TIP3    H153043   9.117   6.429   0.449
17722TIP3    H253044   8.984   6.448   0.379
17723TIP3   OH253045   8.731   6.426   1.526
17723TIP3    H153046   8.734   6.481   1.448
17723TIP3    H253047   8.637   6.415   1.544
17724TIP3   OH253048   8.528   5.659   0.506
17724TIP3    H153049   8.452   5.699   0.463
17724TIP3    H253050   8.515   5.565   0.495
17725TIP3   OH253051   6.353   1.706   7.773
17725TIP3    H153052   6.343   1.799   7.751
17725TIP3    H253053   6.444   1.686   7.753
17726TIP3   OH253054   8.071   6.284   1.168
17726TIP3    H153055   8.149   6.254   1.122
17726TIP3    H253056   8.081   6.379   1.174
17727TIP3   OH253057   0.229   6.722   1.161
17727TIP3    H153058   0.235   6.628   1.179
17727TIP3    H253059   0.147   6.749   1.204
17728TIP3   OH253060   9.230   6.503   1.329
17728TIP3    H153061   9.255   6.582   1.377
17728TIP3    H253062   9.138   6.517   1.307
17729TIP3   OH253063   8.938   6.604   0.253
17729TIP3    H153064   8.899   6.586   0.167
17729TIP3    H253065   8.906   6.691   0.277
17730TIP3   OH253066   8.332   6.513   0.587
17730TIP3    H153067   8.396   6.499   0.656
17730TIP3    H253068   8.289   6.428   0.577
17731TIP3   OH253069   5.863   1.930   7.875
17731TIP3    H153070   5.913   1.856   7.840
17731TIP3    H253071   5.900   1.944   7.962
17732TIP3   OH253072   9.193   6.599   0.137
17732TIP3    H153073   9.116   6.590   0.193
17732TIP3    H253074   9.267   6.607   0.198
17733TIP3   OH253075   0.154   5.878   1.426
17733TIP3    H153076   0.071   5.882   1.379
17733TIP3    H253077   0.167   5.785   1.442
17734TIP3   OH253078   9.641   5.708   1.480
17734TIP3    H153079   9.625   5.760   1.559
17734TIP3    H253080   9.674   5.772   1.416
17735TIP3   OH253081   6.114   1.068   7.890
17735TIP3    H153082   6.055   1.076   7.815
17735TIP3    H253083   6.184   1.131   7.872
17736TIP3   OH253084   8.961   5.589   1.200
17736TIP3    H153085   8.960   5.628   1.288
17736TIP3    H253086   8.897   5.640   1.150
17737TIP3   OH253087   8.801   5.536   0.648
17737TIP3    H153088   8.725   5.485   0.676
17737TIP3    H253089   8.839   5.487   0.576
17738TIP3   OH253090   9.229   5.567   0.515
17738TIP3    H153091   9.178   5.637   0.475
17738TIP3    H253092   9.283   5.532   0.444
17739TIP3   OH253093   9.418   5.563   0.712
17739TIP3    H153094   9.354   5.580   0.643
17739TIP3    H253095   9.461   5.483   0.686
17740TIP3   OH253096   9.468   5.819   1.189
17740TIP3    H153097   9.463   5.779   1.102
17740TIP3    H253098   9.425   5.756   1.247
17741TIP3   OH253099   8.597   5.369   0.717
17741TIP3    H153100   8.552   5.409   0.791
17741TIP3    H253101   8.597   5.275   0.736
17742TIP3   OH253102   8.871   5.351   0.457
17742TIP3    H153103   8.895   5.265   0.421
17742TIP3    H253104   8.790   5.374   0.412
17743TIP3   OH253105   8.652   5.408   0.301
17743TIP3    H153106   8.593   5.350   0.255
17743TIP3    H253107   8.701   5.453   0.232
17744TIP3   OH253108   9.774   7.078   1.238
17744TIP3    H153109   9.765   7.099   1.146
17744TIP3    H253110   9.844   7.135   1.270
17745TIP3   OH253111   9.190   5.590   0.885
17745TIP3    H153112   9.256   5.569   0.819
17745TIP3    H253113   9.154   5.506   0.912
17746TIP3   OH253114   9.207   5.437   1.253
17746TIP3    H153115   9.125   5.477   1.225
17746TIP3    H253116   9.252   5.505   1.303
17747TIP3   OH253117   8.877   5.882   0.282
17747TIP3    H153118   8.799   5.835   0.254
17747TIP3    H253119   8.847   5.939   0.353
17748TIP3   OH253120   9.766   6.181   0.917
17748TIP3    H153121   9.805   6.230   0.844
17748TIP3    H253122   9.692   6.135   0.878
17749TIP3   OH253123   9.335   6.246   1.281
17749TIP3    H153124   9.327   6.151   1.273
17749TIP3    H253125   9.322   6.263   1.375
17750TIP3   OH253126   9.400   5.506   0.314
17750TIP3    H153127   9.496   5.513   0.316
17750TIP3    H253128   9.373   5.569   0.247
17751TIP3   OH253129   8.545   5.897   0.998
17751TIP3    H153130   8.515   5.882   0.908
17751TIP3    H253131   8.618   5.837   1.009
17752TIP3   OH253132   9.030   6.074   0.162
17752TIP3    H153133   8.977   6.154   0.160
17752TIP3    H253134   8.973   6.008   0.201
17753TIP3   OH253135   9.483   6.515   1.199
17753TIP3    H153136   9.501   6.548   1.287
17753TIP3    H253137   9.516   6.584   1.141
17754TIP3   OH253138   9.803   5.582   0.098
17754TIP3    H153139   9.757   5.531   0.031
17754TIP3    H253140   9.797   5.672   0.068
17755TIP3   OH253141   0.254   6.439   1.184
17755TIP3    H153142   0.162   6.428   1.161
17755TIP3    H253143   0.301   6.418   1.103
17756TIP3   OH253144   9.552   6.397   0.044
17756TIP3    H153145   9.514   6.335   0.106
17756TIP3    H253146   9.561   6.348  -0.037
17757TIP3   OH253147   9.573   6.033   0.790
17757TIP3    H153148   9.484   6.011   0.817
17757TIP3    H253149   9.609   5.952   0.755
17758TIP3   OH253150   8.648   6.264   0.546
17758TIP3    H153151   8.645   6.346   0.497
17758TIP3    H253152   8.565   6.261   0.593
17759TIP3   OH253153   8.249   5.550   0.322
17759TIP3    H153154   8.297   5.632   0.332
17759TIP3    H253155   8.157   5.576   0.319
17760TIP3   OH253156   8.766   6.029   0.476
17760TIP3    H153157   8.734   6.113   0.508
17760TIP3    H253158   8.757   5.969   0.550
17761TIP3   OH253159   8.952   6.624   1.002
17761TIP3    H153160   8.986   6.698   0.952
17761TIP3    H253161   8.993   6.632   1.088
17762TIP3   OH253162   8.568   6.505   0.441
17762TIP3    H153163   8.481   6.519   0.479
17762TIP3    H253164   8.608   6.592   0.441
17763TIP3   OH253165   6.047   1.511   7.920
17763TIP3    H153166   6.095   1.475   7.994
17763TIP3    H253167   5.959   1.472   7.927
17764TIP3   OH253168   9.545   6.753   1.055
17764TIP3    H153169   9.463   6.721   1.018
17764TIP3    H253170   9.572   6.824   0.998
17765TIP3   OH253171   6.343   1.977   7.719
17765TIP3    H153172   6.349   2.032   7.640
17765TIP3    H253173   6.279   2.022   7.774
17766TIP3   OH253174   9.480   6.012   0.100
17766TIP3    H153175   9.460   5.981   0.188
17766TIP3    H253176   9.573   6.038   0.105
17767TIP3   OH253177   8.331   6.383   1.223
17767TIP3    H153178   8.352   6.321   1.292
17767TIP3    H253179   8.267   6.443   1.263
17768TIP3   OH253180   5.397   1.483   7.948
17768TIP3    H153181   5.406   1.392   7.918
17768TIP3    H253182   5.388   1.476   8.043
17769TIP3   OH253183   8.613   6.109   0.221
17769TIP3    H153184   8.668   6.092   0.297
17769TIP3    H253185   8.606   6.204   0.217
17770TIP3   OH253186   8.328   5.804   0.395
17770TIP3    H153187   8.257   5.853   0.438
17770TIP3    H253188   8.356   5.862   0.324
17771TIP3   OH253189   8.872   6.294   0.151
17771TIP3    H153190   8.784   6.317   0.181
17771TIP3    H253191   8.902   6.370   0.101
17772TIP3   OH253192   9.071   5.385   0.657
17772TIP3    H153193   9.129   5.444   0.609
17772TIP3    H253194   9.002   5.364   0.595
17773TIP3   OH253195   9.378   5.671   1.411
17773TIP3    H153196   9.348   5.717   1.489
17773TIP3    H253197   9.472   5.656   1.426
17774TIP3   OH253198   8.615   6.381   0.206
17774TIP3    H153199   8.599   6.447   0.139
17774TIP3    H253200   8.596   6.425   0.289
17775TIP3   OH253201   9.631   5.769   0.709
17775TIP3    H153202   9.560   5.707   0.727
17775TIP3    H253203   9.703   5.740   0.765
17776TIP3   OH253204   8.367   5.986   0.193
17776TIP3    H153205   8.440   6.047   0.207
17776TIP3    H253206   8.398   5.926   0.125
17777TIP3   OH253207   8.278   5.279   0.268
17777TIP3    H153208   8.277   5.369   0.301
17777TIP3    H253209   8.245   5.227   0.341
17778TIP3   OH253210   9.618   6.722   0.666
17778TIP3    H153211   9.565   6.763   0.598
17778TIP3    H253212   9.708   6.747   0.645
17779TIP3   OH253213   8.255   6.250   0.580
17779TIP3    H153214   8.178   6.230   0.634
17779TIP3    H253215   8.220   6.260   0.491
17780TIP3   OH253216   5.545   1.685   7.833
17780TIP3    H153217   5.498   1.616   7.879
17780TIP3    H253218   5.618   1.641   7.791
17781TIP3   OH253219   9.546   6.609   1.451
17781TIP3    H153220   9.488   6.607   1.527
17781TIP3    H253221   9.617   6.669   1.476
17782TIP3   OH253222   5.987   1.720   7.751
17782TIP3    H153223   6.026   1.656   7.811
17782TIP3    H253224   6.044   1.717   7.674
17783TIP3   OH253225   8.480   5.790   0.042
17783TIP3    H153226   8.531   5.765   0.120
17783TIP3    H253227   8.546   5.810  -0.024
17784TIP3   OH253228   5.794   1.396   7.896
17784TIP3    H153229   5.774   1.410   7.989
17784TIP3    H253230   5.772   1.305   7.880
17785TIP3   OH253231   9.642   6.304   1.285
17785TIP3    H153232   9.710   6.328   1.222
17785TIP3    H253233   9.568   6.360   1.264
17786TIP3   OH253234   8.649   5.725   0.252
17786TIP3    H153235   8.627   5.692   0.339
17786TIP3    H253236   8.700   5.655   0.211
17787TIP3   OH253237   8.795   5.541   0.110
17787TIP3    H153238   8.764   5.552   0.020
17787TIP3    H253239   8.890   5.551   0.105
17788TIP3   OH253240   6.319   1.208   7.773
17788TIP3    H153241   6.299   1.174   7.686
17788TIP3    H253242   6.300   1.302   7.767
17789TIP3   OH253243   9.263   5.989   1.283
17789TIP3    H153244   9.321   5.922   1.246
17789TIP3    H253245   9.196   5.938   1.330
17790TIP3   OH253246   9.744   6.121   1.449
17790TIP3    H153247   9.691   6.185   1.403
17790TIP3    H253248   9.834   6.142   1.425
17791TIP3   OH253249   8.618   6.594   0.034
17791TIP3    H153250   8.711   6.581   0.015
17791TIP3    H253251   8.584   6.638  -0.044
17792TIP3   OH253252   8.096   5.992   0.166
17792TIP3    H153253   8.190   5.998   0.181
17792TIP3    H253254   8.081   5.899   0.146
17793TIP3   OH253255   8.019   6.510   0.529
17793TIP3    H153256   7.924   6.495   0.526
17793TIP3    H253257   8.042   6.496   0.621
17794TIP3   OH253258   8.066   6.436   0.790
17794TIP3    H153259   8.029   6.348   0.776
17794TIP3    H253260   8.136   6.422   0.853
17795TIP3   OH253261   0.075   6.809   0.656
17795TIP3    H153262   0.094   6.835   0.746
17795TIP3    H253263   0.113   6.879   0.602
17796TIP3   OH253264   0.094   6.823   0.937
17796TIP3    H153265   0.045   6.742   0.922
17796TIP3    H253266   0.160   6.799   1.003
17797TIP3   OH253267   0.133   6.541   1.524
17797TIP3    H153268   0.044   6.557   1.495
17797TIP3    H253269   0.176   6.626   1.519
17798TIP3   OH253270   9.757   6.050   0.120
17798TIP3    H153271   9.808   6.125   0.090
17798TIP3    H253272   9.807   6.015   0.194
17799TIP3   OH253273   0.098   5.910   0.315
17799TIP3    H153274   0.028   5.881   0.373
17799TIP3    H253275   0.165   5.946   0.374
17800TIP3   OH253276   0.128   6.319   0.745
17800TIP3    H153277   0.180   6.251   0.703
17800TIP3    H253278   0.136   6.395   0.687
17801TIP3   OH253279   9.732   6.594   0.925
17801TIP3    H153280   9.662   6.646   0.963
17801TIP3    H253281   9.692   6.549   0.851
17802TIP3   OH253282   6.506   1.202   7.975
17802TIP3    H153283   6.442   1.208   7.904
17802TIP3    H253284   6.494   1.282   8.026
17803TIP3   OH253285   6.394   0.895   7.874
17803TIP3    H153286   6.337   0.972   7.882
17803TIP3    H253287   6.341   0.831   7.827
17804TIP3   OH253288   9.682   5.788   0.442
17804TIP3    H153289   9.681   5.695   0.418
17804TIP3    H253290   9.670   5.787   0.537
17805TIP3   OH253291   8.329   5.864   1.237
17805TIP3    H153292   8.323   5.817   1.154
17805TIP3    H253293   8.410   5.914   1.231
17806TIP3   OH253294   0.192   6.216   1.361
17806TIP3    H153295   0.256   6.151   1.331
17806TIP3    H253296   0.203   6.290   1.301
17807TIP3   OH253297   0.363   6.006   1.310
17807TIP3    H153298   0.289   5.954   1.342
17807TIP3    H253299   0.439   5.966   1.351
17808TIP3   OH253300   9.679   5.527   0.338
17808TIP3    H153301   9.725   5.449   0.371
17808TIP3    H253302   9.724   5.548   0.256
17809TIP3   OH253303   0.033   5.675   0.866
17809TIP3    H153304   0.113   5.689   0.816
17809TIP3    H253305   0.056   5.700   0.955
17810TIP3   OH253306   0.111   5.797   1.105
17810TIP3    H153307   0.041   5.833   1.159
17810TIP3    H253308   0.140   5.871   1.050
17811TIP3   OH253309   9.411   6.674   0.291
17811TIP3    H153310   9.478   6.678   0.223
17811TIP3    H253311   9.436   6.741   0.354
17812TIP3   OH253312   8.701   6.582   1.289
17812TIP3    H153313   8.660   6.574   1.203
17812TIP3    H253314   8.795   6.582   1.271
17813TIP3   OH253315   9.280   6.743   1.432
17813TIP3    H153316   9.323   6.740   1.517
17813TIP3    H253317   9.328   6.809   1.383
17814TIP3   OH253318   9.366   6.906   1.209
17814TIP3    H153319   9.436   6.858   1.163
17814TIP3    H253320   9.413   6.969   1.263
17815TIP3   OH253321   8.386   7.009   1.236
17815TIP3    H153322   8.320   6.940   1.226
17815TIP3    H253323   8.403   7.013   1.330
17816TIP3   OH253324   8.670   6.797   1.022
17816TIP3    H153325   8.641   6.706   1.017
17816TIP3    H253326   8.676   6.825   0.931
17817TIP3   OH253327   9.035   6.830   0.847
17817TIP3    H153328   8.972   6.835   0.775
17817TIP3    H253329   9.117   6.860   0.808
17818TIP3   OH253330   9.309   6.683   0.945
17818TIP3    H153331   9.237   6.712   1.001
17818TIP3    H253332   9.305   6.741   0.869
17819TIP3   OH253333   9.587   6.926   0.855
17819TIP3    H153334   9.500   6.958   0.831
17819TIP3    H253335   9.607   6.860   0.788
17820TIP3   OH253336   8.344   6.639   1.085
17820TIP3    H153337   8.265   6.604   1.127
17820TIP3    H253338   8.399   6.562   1.070
17821TIP3   OH253339   8.526   6.440   0.752
17821TIP3    H153340   8.541   6.373   0.819
17821TIP3    H253341   8.606   6.493   0.754
17822TIP3   OH253342   8.763   6.572   0.817
17822TIP3    H153343   8.794   6.490   0.779
17822TIP3    H253344   8.834   6.600   0.875
17823TIP3   OH253345   8.096   6.309   0.361
17823TIP3    H153346   8.019   6.303   0.305
17823TIP3    H253347   8.083   6.389   0.411
17824TIP3   OH253348   5.612   1.903   7.985
17824TIP3    H153349   5.695   1.930   7.945
17824TIP3    H253350   5.579   1.834   7.927
17825TIP3   OH253351   9.584   6.666   0.073
17825TIP3    H153352   9.579   6.571   0.065
17825TIP3    H253353   9.539   6.700  -0.004
17826TIP3   OH253354   8.176   6.361   0.027
17826TIP3    H153355   8.173   6.381   0.121
17826TIP3    H253356   8.259   6.313   0.016
17827TIP3   OH253357   9.771   6.805   1.241
17827TIP3    H153358   9.699   6.780   1.183
17827TIP3    H253359   9.773   6.900   1.238
17828TIP3   OH253360   1.263   6.193   0.018
17828TIP3    H153361   1.232   6.279  -0.010
17828TIP3    H253362   1.191   6.133  -0.006
17829TIP3   OH253363   1.261   6.171   0.456
17829TIP3    H153364   1.304   6.132   0.531
17829TIP3    H253365   1.211   6.099   0.417
17830TIP3   OH253366   0.553   6.063   0.765
17830TIP3    H153367   0.592   6.006   0.831
17830TIP3    H253368   0.625   6.082   0.705
17831TIP3   OH253369   1.537   6.489   0.097
17831TIP3    H153370   1.498   6.432   0.163
17831TIP3    H253371   1.554   6.571   0.142
17832TIP3   OH253372   0.559   6.466   0.451
17832TIP3    H153373   0.538   6.373   0.455
17832TIP3    H253374   0.655   6.468   0.444
17833TIP3   OH253375   0.230   5.680   0.230
17833TIP3    H153376   0.190   5.763   0.256
17833TIP3    H253377   0.159   5.632   0.186
17834TIP3   OH253378   0.326   5.989   0.458
17834TIP3    H153379   0.376   5.912   0.484
17834TIP3    H253380   0.392   6.056   0.438
17835TIP3   OH253381   1.194   6.910   0.102
17835TIP3    H153382   1.221   6.851   0.031
17835TIP3    H253383   1.200   6.856   0.181
17836TIP3   OH253384   1.083   6.400   0.447
17836TIP3    H153385   1.120   6.315   0.426
17836TIP3    H253386   1.158   6.455   0.468
17837TIP3   OH253387   0.457   5.757   0.539
17837TIP3    H153388   0.536   5.726   0.583
17837TIP3    H253389   0.460   5.715   0.453
17838TIP3   OH253390   0.868   5.974   0.369
17838TIP3    H153391   0.963   5.959   0.367
17838TIP3    H253392   0.830   5.893   0.337
17839TIP3   OH253393   7.677   1.781   7.890
17839TIP3    H153394   7.647   1.760   7.801
17839TIP3    H253395   7.634   1.865   7.910
17840TIP3   OH253396   0.910   6.325   0.651
17840TIP3    H153397   0.854   6.396   0.683
17840TIP3    H253398   0.962   6.365   0.581
17841TIP3   OH253399   0.694   5.647   0.618
17841TIP3    H153400   0.749   5.720   0.648
17841TIP3    H253401   0.757   5.578   0.596
17842TIP3   OH253402   0.746   6.533   0.744
17842TIP3    H153403   0.735   6.622   0.711
17842TIP3    H253404   0.662   6.513   0.786
17843TIP3   OH253405   6.656   1.624   8.005
17843TIP3    H153406   6.624   1.641   7.917
17843TIP3    H253407   6.677   1.710   8.041
17844TIP3   OH253408   1.567   6.735   0.238
17844TIP3    H153409   1.474   6.729   0.263
17844TIP3    H253410   1.573   6.816   0.188
17845TIP3   OH253411   7.814   2.142   7.886
17845TIP3    H153412   7.867   2.063   7.875
17845TIP3    H253413   7.873   2.213   7.862
17846TIP3   OH253414   7.972   1.925   7.842
17846TIP3    H153415   7.956   1.845   7.793
17846TIP3    H253416   8.010   1.895   7.925
17847TIP3   OH253417   7.616   1.423   7.861
17847TIP3    H153418   7.534   1.468   7.843
17847TIP3    H253419   7.665   1.430   7.779
17848TIP3   OH253420   7.566   1.215   7.589
17848TIP3    H153421   7.635   1.267   7.629
17848TIP3    H253422   7.606   1.131   7.569
17849TIP3   OH253423   7.965   1.496   7.820
17849TIP3    H153424   7.916   1.526   7.896
17849TIP3    H253425   8.048   1.463   7.856
17850TIP3   OH253426   0.678   6.100   0.209
17850TIP3    H153427   0.648   6.036   0.145
17850TIP3    H253428   0.749   6.055   0.255
17851TIP3   OH253429   0.825   6.515   0.362
17851TIP3    H153430   0.801   6.504   0.270
17851TIP3    H253431   0.912   6.477   0.369
17852TIP3   OH253432   0.763   6.103   0.586
17852TIP3    H153433   0.805   6.066   0.508
17852TIP3    H253434   0.817   6.179   0.608
17853TIP3   OH253435   1.309   6.728   0.329
17853TIP3    H153436   1.301   6.811   0.376
17853TIP3    H253437   1.285   6.662   0.393
17854TIP3   OH253438   0.940   6.631   0.916
17854TIP3    H153439   0.879   6.689   0.962
17854TIP3    H253440   0.884   6.581   0.856
17855TIP3   OH253441   7.797   1.360   7.652
17855TIP3    H153442   7.858   1.401   7.713
17855TIP3    H253443   7.826   1.389   7.565
17856TIP3   OH253444   0.673   6.176   1.091
17856TIP3    H153445   0.671   6.270   1.076
17856TIP3    H253446   0.589   6.144   1.056
17857TIP3   OH253447   7.561   2.034   7.908
17857TIP3    H153448   7.647   2.077   7.906
17857TIP3    H253449   7.504   2.092   7.858
17858TIP3   OH253450   0.724   6.788   0.995
17858TIP3    H153451   0.705   6.798   0.902
17858TIP3    H253452   0.639   6.776   1.037
17859TIP3   OH253453   0.546   5.934   0.013
17859TIP3    H153454   0.468   5.984  -0.009
17859TIP3    H253455   0.516   5.869   0.076
17860TIP3   OH253456   8.152   1.964   7.263
17860TIP3    H153457   8.144   2.057   7.241
17860TIP3    H253458   8.243   1.943   7.245
17861TIP3   OH253459   0.331   6.348   0.937
17861TIP3    H153460   0.259   6.331   0.876
17861TIP3    H253461   0.364   6.261   0.960
17862TIP3   OH253462   0.182   6.556   0.609
17862TIP3    H153463   0.272   6.581   0.628
17862TIP3    H253464   0.130   6.635   0.628
17863TIP3   OH253465   1.124   6.769   0.767
17863TIP3    H153466   1.114   6.861   0.792
17863TIP3    H253467   1.059   6.722   0.820
17864TIP3   OH253468   7.456   2.253   7.734
17864TIP3    H153469   7.411   2.234   7.652
17864TIP3    H253470   7.417   2.335   7.764
17865TIP3   OH253471   0.351   6.727   0.104
17865TIP3    H153472   0.394   6.717   0.189
17865TIP3    H253473   0.299   6.647   0.093
17866TIP3   OH253474   7.659   2.192   7.359
17866TIP3    H153475   7.707   2.118   7.323
17866TIP3    H253476   7.693   2.204   7.447
17867TIP3   OH253477   7.709   2.229   7.630
17867TIP3    H153478   7.622   2.233   7.670
17867TIP3    H253479   7.765   2.191   7.697
17868TIP3   OH253480   0.506   6.554   0.892
17868TIP3    H153481   0.552   6.540   0.974
17868TIP3    H253482   0.438   6.487   0.891
17869TIP3   OH253483   7.900   1.400   7.405
17869TIP3    H153484   7.840   1.400   7.330
17869TIP3    H253485   7.978   1.444   7.373
17870TIP3   OH253486   0.838   5.861   0.705
17870TIP3    H153487   0.796   5.866   0.790
17870TIP3    H253488   0.819   5.946   0.664
17871TIP3   OH253489   0.729   5.770   0.253
17871TIP3    H153490   0.649   5.725   0.280
17871TIP3    H253491   0.755   5.727   0.172
17872TIP3   OH253492   7.714   1.204   7.993
17872TIP3    H153493   7.673   1.279   7.951
17872TIP3    H253494   7.793   1.188   7.942
17873TIP3   OH253495   1.342   5.866   0.211
17873TIP3    H153496   1.281   5.863   0.137
17873TIP3    H253497   1.406   5.798   0.192
17874TIP3   OH253498   0.698   5.902   0.936
17874TIP3    H153499   0.767   5.951   0.981
17874TIP3    H253500   0.671   5.835   0.999
17875TIP3   OH253501   0.488   5.633   0.293
17875TIP3    H153502   0.398   5.650   0.266
17875TIP3    H253503   0.499   5.538   0.282
17876TIP3   OH253504   7.324   1.015   8.024
17876TIP3    H153505   7.416   0.990   8.018
17876TIP3    H253506   7.284   0.981   7.944
17877TIP3   OH253507   7.174   0.988   7.784
17877TIP3    H153508   7.131   1.057   7.834
17877TIP3    H253509   7.217   1.033   7.712
17878TIP3   OH253510   1.667   7.416   0.727
17878TIP3    H153511   1.661   7.413   0.631
17878TIP3    H253512   1.752   7.376   0.747
17879TIP3   OH253513   0.624   6.459   1.122
17879TIP3    H153514   0.720   6.456   1.123
17879TIP3    H253515   0.599   6.476   1.212
17880TIP3   OH253516   1.140   5.929   0.393
17880TIP3    H153517   1.212   5.895   0.340
17880TIP3    H253518   1.146   5.879   0.475
17881TIP3   OH253519   1.105   5.820   0.650
17881TIP3    H153520   1.010   5.826   0.647
17881TIP3    H253521   1.127   5.833   0.743
17882TIP3   OH253522   7.379   1.549   7.796
17882TIP3    H153523   7.303   1.496   7.772
17882TIP3    H253524   7.353   1.593   7.877
17883TIP3   OH253525   1.746   6.355   0.313
17883TIP3    H153526   1.748   6.439   0.358
17883TIP3    H253527   1.654   6.329   0.313
17884TIP3   OH253528   1.300   6.569   0.877
17884TIP3    H153529   1.291   6.482   0.838
17884TIP3    H253530   1.229   6.620   0.838
17885TIP3   OH253531   7.947   1.139   7.870
17885TIP3    H153532   8.042   1.137   7.876
17885TIP3    H253533   7.927   1.106   7.782
17886TIP3   OH253534   0.539   6.177   0.435
17886TIP3    H153535   0.578   6.161   0.349
17886TIP3    H253536   0.606   6.151   0.497
17887TIP3   OH253537   7.540   1.717   7.653
17887TIP3    H153538   7.493   1.800   7.650
17887TIP3    H253539   7.482   1.658   7.699
17888TIP3   OH253540   0.406   6.106   1.060
17888TIP3    H153541   0.399   6.074   1.150
17888TIP3    H253542   0.335   6.062   1.013
17889TIP3   OH253543   1.372   6.789   0.640
17889TIP3    H153544   1.286   6.780   0.681
17889TIP3    H253545   1.363   6.864   0.581
17890TIP3   OH253546   8.435   1.184   7.719
17890TIP3    H153547   8.457   1.114   7.657
17890TIP3    H253548   8.374   1.240   7.672
17891TIP3   OH253549   8.074   2.033   7.526
17891TIP3    H153550   8.045   1.963   7.584
17891TIP3    H253551   8.093   1.989   7.443
17892TIP3   OH253552   1.467   6.298   0.310
17892TIP3    H153553   1.389   6.266   0.355
17892TIP3    H253554   1.493   6.226   0.253
17893TIP3   OH253555   0.675   6.528   0.123
17893TIP3    H153556   0.671   6.602   0.063
17893TIP3    H253557   0.588   6.525   0.163
17894TIP3   OH253558   6.759   1.192   7.870
17894TIP3    H153559   6.801   1.277   7.883
17894TIP3    H253560   6.673   1.201   7.912
17895TIP3   OH253561   0.746   6.286   0.014
17895TIP3    H153562   0.733   6.375   0.048
17895TIP3    H253563   0.724   6.229   0.088
17896TIP3   OH253564   0.949   6.848   0.560
17896TIP3    H153565   0.984   6.924   0.514
17896TIP3    H253566   1.022   6.815   0.612
17897TIP3   OH253567   7.125   2.126   7.971
17897TIP3    H153568   7.036   2.133   8.007
17897TIP3    H253569   7.160   2.215   7.976
17898TIP3   OH253570   1.339   6.502   0.513
17898TIP3    H153571   1.389   6.568   0.560
17898TIP3    H253572   1.403   6.462   0.454
17899TIP3   OH253573   7.840   1.775   7.416
17899TIP3    H153574   7.876   1.756   7.503
17899TIP3    H253575   7.753   1.735   7.417
17900TIP3   OH253576   1.548   7.072   0.593
17900TIP3    H153577   1.594   6.993   0.564
17900TIP3    H253578   1.525   7.117   0.512
17901TIP3   OH253579   8.138   2.234   7.215
17901TIP3    H153580   8.145   2.289   7.136
17901TIP3    H253581   8.071   2.277   7.267
17902TIP3   OH253582   7.981   1.711   7.645
17902TIP3    H153583   7.971   1.634   7.702
17902TIP3    H253584   8.072   1.709   7.618
17903TIP3   OH253585   0.384   6.748   0.722
17903TIP3    H153586   0.434   6.689   0.779
17903TIP3    H253587   0.395   6.835   0.761
17904TIP3   OH253588   7.185   1.763   7.444
17904TIP3    H153589   7.194   1.672   7.414
17904TIP3    H253590   7.173   1.756   7.539
17905TIP3   OH253591   7.127   1.753   7.717
17905TIP3    H153592   7.188   1.730   7.787
17905TIP3    H253593   7.123   1.849   7.719
17906TIP3   OH253594   6.854   1.447   7.923
17906TIP3    H153595   6.790   1.497   7.972
17906TIP3    H253596   6.875   1.502   7.848
17907TIP3   OH253597   7.395   1.943   7.639
17907TIP3    H153598   7.309   1.966   7.675
17907TIP3    H253599   7.417   2.017   7.583
17908TIP3   OH253600   1.063   5.580   0.022
17908TIP3    H153601   1.100   5.668   0.013
17908TIP3    H253602   1.078   5.557   0.114
17909TIP3   OH253603   7.144   2.025   7.718
17909TIP3    H153604   7.126   2.097   7.657
17909TIP3    H253605   7.135   2.064   7.805
17910TIP3   OH253606   1.573   6.041   0.234
17910TIP3    H153607   1.496   5.986   0.249
17910TIP3    H253608   1.620   6.039   0.317
17911TIP3   OH253609   6.883   1.619   7.706
17911TIP3    H153610   6.954   1.683   7.715
17911TIP3    H253611   6.914   1.559   7.638
17912TIP3   OH253612   6.752   0.914   7.861
17912TIP3    H153613   6.760   1.008   7.878
17912TIP3    H253614   6.671   0.889   7.906
17913TIP3   OH253615   1.575   6.993   0.138
17913TIP3    H153616   1.527   7.047   0.075
17913TIP3    H253617   1.666   7.019   0.127
17914TIP3   OH253618   0.169   6.512   0.080
17914TIP3    H153619   0.126   6.550   0.157
17914TIP3    H253620   0.125   6.552   0.005
17915TIP3   OH253621   0.383   7.049   1.159
17915TIP3    H153622   0.465   7.056   1.208
17915TIP3    H253623   0.372   6.955   1.145
17916TIP3   OH253624   0.832   6.899   1.218
17916TIP3    H153625   0.927   6.894   1.205
17916TIP3    H253626   0.796   6.871   1.134
17917TIP3   OH253627   7.345   1.944   7.315
17917TIP3    H153628   7.297   1.880   7.366
17917TIP3    H253629   7.417   1.894   7.275
17918TIP3   OH253630   7.781   1.979   7.239
17918TIP3    H153631   7.819   1.917   7.302
17918TIP3    H253632   7.839   1.973   7.163
17919TIP3   OH253633   0.464   6.444   1.365
17919TIP3    H153634   0.501   6.357   1.375
17919TIP3    H253635   0.387   6.432   1.310
17920TIP3   OH253636   7.003   1.435   7.546
17920TIP3    H153637   7.056   1.408   7.621
17920TIP3    H253638   7.067   1.463   7.481
17921TIP3   OH253639   0.888   6.409   1.096
17921TIP3    H153640   0.938   6.469   1.040
17921TIP3    H253641   0.953   6.372   1.155
17922TIP3   OH253642   7.587   1.668   7.389
17922TIP3    H153643   7.563   1.686   7.480
17922TIP3    H253644   7.570   1.574   7.378
17923TIP3   OH253645   0.608   6.211   1.358
17923TIP3    H153646   0.614   6.190   1.265
17923TIP3    H253647   0.695   6.194   1.393
17924TIP3   OH253648   7.173   1.366   7.756
17924TIP3    H153649   7.152   1.345   7.847
17924TIP3    H253650   7.219   1.289   7.724
17925TIP3   OH253651   0.921   6.057   0.998
17925TIP3    H153652   0.869   6.136   1.002
17925TIP3    H253653   0.974   6.067   0.919
17926TIP3   OH253654   7.296   1.166   7.601
17926TIP3    H153655   7.269   1.202   7.517
17926TIP3    H253656   7.388   1.188   7.609
17927TIP3   OH253657   8.111   1.483   7.242
17927TIP3    H153658   8.090   1.446   7.156
17927TIP3    H253659   8.087   1.576   7.234
17928TIP3   OH253660   1.064   6.127   0.774
17928TIP3    H153661   1.151   6.130   0.733
17928TIP3    H253662   1.015   6.197   0.731
17929TIP3   OH253663   7.149   2.233   7.536
17929TIP3    H153664   7.238   2.215   7.507
17929TIP3    H253665   7.108   2.277   7.461
17930TIP3   OH253666   6.609   1.621   7.716
17930TIP3    H153667   6.704   1.633   7.714
17930TIP3    H253668   6.595   1.535   7.677
17931TIP3   OH253669   9.779   6.826   0.177
17931TIP3    H153670   9.714   6.773   0.130
17931TIP3    H253671   9.822   6.764   0.236
17932TIP3   OH253672   0.125   6.651   0.336
17932TIP3    H153673   0.118   6.583   0.403
17932TIP3    H253674   0.178   6.720   0.376
17933TIP3   OH253675   1.834   7.079   0.133
17933TIP3    H153676   1.837   7.101   0.227
17933TIP3    H253677   1.874   7.155   0.090
17934TIP3   OH253678   1.820   7.114   0.408
17934TIP3    H153679   1.778   7.030   0.429
17934TIP3    H253680   1.910   7.104   0.440
17935TIP3   OH253681   8.250   1.704   7.582
17935TIP3    H153682   8.316   1.771   7.564
17935TIP3    H253683   8.275   1.668   7.668
17936TIP3   OH253684   8.319   1.587   7.818
17936TIP3    H153685   8.267   1.521   7.863
17936TIP3    H253686   8.405   1.584   7.861
17937TIP3   OH253687   1.936   6.579   0.183
17937TIP3    H153688   1.874   6.520   0.141
17937TIP3    H253689   1.924   6.663   0.138
17938TIP3   OH253690   1.694   6.871   0.455
17938TIP3    H153691   1.754   6.806   0.493
17938TIP3    H253692   1.653   6.825   0.381
17939TIP3   OH253693   8.319   1.496   7.418
17939TIP3    H153694   8.254   1.491   7.347
17939TIP3    H253695   8.293   1.572   7.469
17940TIP3   OH253696   8.246   1.173   7.328
17940TIP3    H153697   8.158   1.202   7.304
17940TIP3    H253698   8.234   1.124   7.409
17941TIP3   OH253699   8.183   1.396   7.968
17941TIP3    H153700   8.183   1.301   7.955
17941TIP3    H253701   8.146   1.407   8.056
17942TIP3   OH253702   0.290   6.098   0.706
17942TIP3    H153703   0.285   6.060   0.619
17942TIP3    H253704   0.384   6.095   0.728
17943TIP3   OH253705   8.223   1.119   7.884
17943TIP3    H153706   8.223   1.025   7.866
17943TIP3    H253707   8.282   1.156   7.818
17944TIP3   OH253708   0.274   5.751   0.752
17944TIP3    H153709   0.326   5.745   0.672
17944TIP3    H253710   0.328   5.801   0.813
17945TIP3   OH253711   7.956   2.350   7.794
17945TIP3    H153712   8.010   2.340   7.716
17945TIP3    H253713   7.993   2.426   7.839
17946TIP3   OH253714   0.498   6.773   1.161
17946TIP3    H153715   0.408   6.746   1.144
17946TIP3    H253716   0.511   6.757   1.255
17947TIP3   OH253717   0.726   6.811   0.715
17947TIP3    H153718   0.673   6.885   0.686
17947TIP3    H253719   0.808   6.819   0.666
17948TIP3   OH253720   1.109   7.037   0.823
17948TIP3    H153721   1.143   7.038   0.913
17948TIP3    H253722   1.173   7.087   0.773
17949TIP3   OH253723   1.313   7.186   0.717
17949TIP3    H153724   1.387   7.144   0.673
17949TIP3    H253725   1.353   7.251   0.775
17950TIP3   OH253726   0.386   7.040   0.771
17950TIP3    H153727   0.297   7.058   0.741
17950TIP3    H253728   0.405   7.111   0.833
17951TIP3   OH253729   0.616   7.044   0.618
17951TIP3    H153730   0.532   7.046   0.665
17951TIP3    H253731   0.593   7.068   0.528
17952TIP3   OH253732   1.030   7.062   0.406
17952TIP3    H153733   0.957   7.072   0.345
17952TIP3    H253734   1.041   7.148   0.445
17953TIP3   OH253735   1.288   6.974   0.445
17953TIP3    H153736   1.200   7.006   0.427
17953TIP3    H253737   1.346   7.041   0.409
17954TIP3   OH253738   1.475   7.157   0.340
17954TIP3    H153739   1.481   7.244   0.300
17954TIP3    H253740   1.508   7.097   0.273
17955TIP3   OH253741   0.303   6.831   0.469
17955TIP3    H153742   0.322   6.807   0.560
17955TIP3    H253743   0.374   6.793   0.418
17956TIP3   OH253744   0.502   6.705   0.335
17956TIP3    H153745   0.514   6.622   0.382
17956TIP3    H253746   0.588   6.747   0.339
17957TIP3   OH253747   0.766   6.793   0.359
17957TIP3    H153748   0.788   6.701   0.344
17957TIP3    H253749   0.821   6.819   0.433
17958TIP3   OH253750   6.589   2.004   7.856
17958TIP3    H153751   6.505   1.978   7.819
17958TIP3    H253752   6.598   2.097   7.833
17959TIP3   OH253753   7.405   2.164   7.464
17959TIP3    H153754   7.488   2.193   7.426
17959TIP3    H253755   7.375   2.095   7.405
17960TIP3   OH253756   8.098   2.302   7.561
17960TIP3    H153757   8.095   2.207   7.554
17960TIP3    H253758   8.054   2.334   7.483
17961TIP3   OH253759   6.697   1.986   7.525
17961TIP3    H153760   6.699   2.004   7.619
17961TIP3    H253761   6.781   1.945   7.506
17962TIP3   OH253762   1.651   7.121   0.846
17962TIP3    H153763   1.615   7.105   0.759
17962TIP3    H253764   1.731   7.171   0.831
17963TIP3   OH253765   8.587   1.314   7.903
17963TIP3    H153766   8.580   1.409   7.890
17963TIP3    H253767   8.522   1.277   7.843
17964TIP3   OH253768   8.590   1.590   7.878
17964TIP3    H153769   8.678   1.608   7.911
17964TIP3    H253770   8.584   1.640   7.796
17965TIP3   OH253771   9.413   2.061   7.408
17965TIP3    H153772   9.394   2.038   7.317
17965TIP3    H253773   9.388   2.154   7.415
17966TIP3   OH253774   8.454   1.875   7.493
17966TIP3    H153775   8.424   1.890   7.403
17966TIP3    H253776   8.473   1.963   7.526
17967TIP3   OH253777   9.377   1.431   7.077
17967TIP3    H153778   9.462   1.443   7.120
17967TIP3    H253779   9.380   1.342   7.042
17968TIP3   OH253780   9.342   2.332   7.408
17968TIP3    H153781   9.371   2.407   7.459
17968TIP3    H253782   9.293   2.369   7.335
17969TIP3   OH253783   8.887   1.642   7.548
17969TIP3    H153784   8.810   1.672   7.499
17969TIP3    H253785   8.866   1.551   7.572
17970TIP3   OH253786   1.937   6.831   0.076
17970TIP3    H153787   2.026   6.860   0.098
17970TIP3    H253788   1.882   6.907   0.094
17971TIP3   OH253789   9.250   2.517   7.216
17971TIP3    H153790   9.210   2.497   7.131
17971TIP3    H253791   9.211   2.601   7.241
17972TIP3   OH253792   8.669   2.368   7.574
17972TIP3    H153793   8.716   2.359   7.656
17972TIP3    H253794   8.618   2.288   7.566
17973TIP3   OH253795   9.458   2.422   6.860
17973TIP3    H153796   9.509   2.347   6.830
17973TIP3    H253797   9.490   2.438   6.949
17974TIP3   OH253798   9.509   2.487   7.124
17974TIP3    H153799   9.425   2.484   7.169
17974TIP3    H253800   9.573   2.502   7.194
17975TIP3   OH253801   9.628   1.659   6.842
17975TIP3    H153802   9.644   1.630   6.752
17975TIP3    H253803   9.661   1.748   6.845
17976TIP3   OH253804   8.955   1.354   7.341
17976TIP3    H153805   8.874   1.342   7.291
17976TIP3    H253806   9.022   1.365   7.274
17977TIP3   OH253807   9.136   1.863   7.287
17977TIP3    H153808   9.085   1.784   7.272
17977TIP3    H253809   9.142   1.871   7.382
17978TIP3   OH253810   9.329   1.965   7.122
17978TIP3    H153811   9.296   2.055   7.120
17978TIP3    H253812   9.269   1.918   7.179
17979TIP3   OH253813   0.147   2.296   6.938
17979TIP3    H153814   0.178   2.236   7.004
17979TIP3    H253815   0.062   2.261   6.912
17980TIP3   OH253816   8.945   2.121   7.586
17980TIP3    H153817   8.972   2.199   7.538
17980TIP3    H253818   8.851   2.134   7.601
17981TIP3   OH253819   8.585   1.451   7.373
17981TIP3    H153820   8.626   1.538   7.376
17981TIP3    H253821   8.493   1.468   7.394
17982TIP3   OH253822   9.068   1.871   7.556
17982TIP3    H153823   9.015   1.950   7.559
17982TIP3    H253824   9.004   1.799   7.561
17983TIP3   OH253825   8.916   2.374   7.453
17983TIP3    H153826   8.826   2.385   7.482
17983TIP3    H253827   8.953   2.462   7.454
17984TIP3   OH253828   9.629   1.959   6.895
17984TIP3    H153829   9.627   1.977   6.989
17984TIP3    H253830   9.540   1.932   6.874
17985TIP3   OH253831   2.155   6.982   0.180
17985TIP3    H153832   2.167   6.911   0.242
17985TIP3    H253833   2.180   7.061   0.229
17986TIP3   OH253834   8.983   2.000   6.914
17986TIP3    H153835   8.993   1.909   6.887
17986TIP3    H253836   8.964   1.994   7.008
17987TIP3   OH253837   8.923   2.008   7.182
17987TIP3    H153838   9.000   1.972   7.225
17987TIP3    H253839   8.931   2.102   7.194
17988TIP3   OH253840   8.664   1.717   7.406
17988TIP3    H153841   8.593   1.764   7.450
17988TIP3    H253842   8.682   1.769   7.327
17989TIP3   OH253843   9.213   2.208   7.132
17989TIP3    H153844   9.126   2.224   7.168
17989TIP3    H253845   9.226   2.280   7.070
17990TIP3   OH253846   8.956   2.277   7.202
17990TIP3    H153847   8.933   2.349   7.142
17990TIP3    H253848   8.941   2.313   7.289
17991TIP3   OH253849   8.679   1.881   7.180
17991TIP3    H153850   8.751   1.944   7.186
17991TIP3    H253851   8.710   1.816   7.117
17992TIP3   OH253852   8.527   1.182   7.328
17992TIP3    H153853   8.554   1.272   7.348
17992TIP3    H253854   8.431   1.186   7.331
17993TIP3   OH253855   8.501   2.141   7.568
17993TIP3    H153856   8.464   2.181   7.647
17993TIP3    H253857   8.453   2.183   7.496
17994TIP3   OH253858   9.131   2.203   6.808
17994TIP3    H153859   9.083   2.132   6.851
17994TIP3    H253860   9.206   2.161   6.766
17995TIP3   OH253861   9.593   2.205   6.760
17995TIP3    H153862   9.629   2.120   6.784
17995TIP3    H253863   9.624   2.221   6.671
17996TIP3   OH253864   8.803   1.688   7.034
17996TIP3    H153865   8.854   1.665   7.112
17996TIP3    H253866   8.869   1.705   6.967
17997TIP3   OH253867   9.367   1.888   6.861
17997TIP3    H153868   9.343   1.909   6.952
17997TIP3    H253869   9.340   1.796   6.851
17998TIP3   OH253870   8.975   1.639   7.255
17998TIP3    H153871   8.956   1.608   7.343
17998TIP3    H253872   9.021   1.566   7.214
17999TIP3   OH253873   9.105   1.434   7.121
17999TIP3    H153874   9.077   1.447   7.030
17999TIP3    H253875   9.200   1.437   7.117
18000TIP3   OH253876   8.942   2.489   7.024
18000TIP3    H153877   9.032   2.473   6.996
18000TIP3    H253878   8.901   2.531   6.949
18001TIP3   OH253879   8.409   1.879   7.213
18001TIP3    H153880   8.503   1.894   7.202
18001TIP3    H253881   8.392   1.796   7.169
18002TIP3   OH253882   8.303   2.458   7.650
18002TIP3    H153883   8.238   2.405   7.604
18002TIP3    H253884   8.351   2.396   7.705
18003TIP3   OH253885   8.450   2.284   7.805
18003TIP3    H153886   8.434   2.228   7.881
18003TIP3    H253887   8.503   2.356   7.839
18004TIP3   OH253888   9.703   2.584   7.297
18004TIP3    H153889   9.772   2.563   7.234
18004TIP3    H253890   9.749   2.628   7.368
18005TIP3   OH253891   2.154   7.281   0.171
18005TIP3    H153892   2.062   7.309   0.176
18005TIP3    H253893   2.199   7.335   0.236
18006TIP3   OH253894   2.392   7.255   0.036
18006TIP3    H153895   2.310   7.248   0.086
18006TIP3    H253896   2.370   7.310  -0.039
18007TIP3   OH253897   8.619   2.468   7.929
18007TIP3    H153898   8.635   2.454   8.022
18007TIP3    H253899   8.696   2.432   7.885
18008TIP3   OH253900   8.830   2.350   7.796
18008TIP3    H153901   8.850   2.286   7.865
18008TIP3    H253902   8.911   2.401   7.786
18009TIP3   OH253903   9.065   2.495   7.845
18009TIP3    H153904   9.146   2.452   7.873
18009TIP3    H253905   9.028   2.531   7.926
18010TIP3   OH253906   8.379   2.265   7.356
18010TIP3    H153907   8.296   2.237   7.317
18010TIP3    H253908   8.391   2.355   7.326
18011TIP3   OH253909   9.199   2.423   6.952
18011TIP3    H153910   9.285   2.443   6.915
18011TIP3    H253911   9.164   2.355   6.895
18012TIP3   OH253912   0.102   2.530   7.094
18012TIP3    H153913   0.124   2.448   7.050
18012TIP3    H253914   0.064   2.584   7.025
18013TIP3   OH253915   8.502   2.254   7.004
18013TIP3    H153916   8.506   2.274   7.097
18013TIP3    H253917   8.585   2.209   6.985
18014TIP3   OH253918   5.518   7.668   1.229
18014TIP3    H153919   5.500   7.700   1.141
18014TIP3    H253920   5.447   7.703   1.283
18015TIP3   OH253921   5.156   6.911   0.735
18015TIP3    H153922   5.238   6.952   0.761
18015TIP3    H253923   5.169   6.818   0.752
18016TIP3   OH253924   5.317   7.068   0.924
18016TIP3    H153925   5.392   7.090   0.980
18016TIP3    H253926   5.313   7.139   0.860
18017TIP3   OH253927   5.665   7.631   0.296
18017TIP3    H153928   5.673   7.726   0.300
18017TIP3    H253929   5.754   7.599   0.308
18018TIP3   OH253930   4.928   7.821   0.947
18018TIP3    H153931   4.893   7.907   0.922
18018TIP3    H253932   4.977   7.838   1.028
18019TIP3   OH253933   5.276   7.889   0.504
18019TIP3    H153934   5.322   7.828   0.448
18019TIP3    H253935   5.223   7.834   0.562
18020TIP3   OH253936   5.183   7.907   0.841
18020TIP3    H153937   5.090   7.886   0.836
18020TIP3    H253938   5.205   7.895   0.934
18021TIP3   OH253939   5.298   7.207   0.340
18021TIP3    H153940   5.303   7.114   0.366
18021TIP3    H253941   5.388   7.230   0.317
18022TIP3   OH253942   7.263   8.517   7.367
18022TIP3    H153943   7.180   8.469   7.363
18022TIP3    H253944   7.240   8.600   7.410
18023TIP3   OH253945   5.360   6.799   0.927
18023TIP3    H153946   5.428   6.788   0.993
18023TIP3    H253947   5.342   6.893   0.925
18024TIP3   OH253948   5.113   7.426   0.767
18024TIP3    H153949   5.155   7.496   0.817
18024TIP3    H253950   5.024   7.458   0.750
18025TIP3   OH253951   5.921   6.878   0.767
18025TIP3    H153952   5.941   6.826   0.689
18025TIP3    H253953   5.863   6.947   0.736
18026TIP3   OH253954   5.544   7.698   0.570
18026TIP3    H153955   5.502   7.629   0.621
18026TIP3    H253956   5.631   7.662   0.548
18027TIP3   OH253957   5.397   7.526   0.712
18027TIP3    H153958   5.398   7.457   0.778
18027TIP3    H253959   5.333   7.498   0.647
18028TIP3   OH253960   5.708   7.901   0.330
18028TIP3    H153961   5.762   7.977   0.308
18028TIP3    H253962   5.624   7.937   0.357
18029TIP3   OH253963   5.453   7.360   0.930
18029TIP3    H153964   5.412   7.341   1.015
18029TIP3    H253965   5.532   7.409   0.953
18030TIP3   OH253966   4.708   7.362   0.505
18030TIP3    H153967   4.753   7.289   0.464
18030TIP3    H253968   4.654   7.322   0.573
18031TIP3   OH253969   4.879   7.585   0.780
18031TIP3    H153970   4.870   7.582   0.875
18031TIP3    H253971   4.897   7.677   0.760
18032TIP3   OH253972   4.509   7.684   0.927
18032TIP3    H153973   4.573   7.710   0.861
18032TIP3    H253974   4.530   7.738   1.004
18033TIP3   OH253975   4.850   7.587   0.410
18033TIP3    H153976   4.848   7.500   0.449
18033TIP3    H253977   4.943   7.610   0.407
18034TIP3   OH253978   5.378   7.681   0.360
18034TIP3    H153979   5.457   7.686   0.413
18034TIP3    H253980   5.411   7.668   0.271
18035TIP3   OH253981   4.575   7.246   0.717
18035TIP3    H153982   4.632   7.187   0.766
18035TIP3    H253983   4.507   7.189   0.681
18036TIP3   OH253984   5.014   7.354   0.491
18036TIP3    H153985   5.094   7.400   0.515
18036TIP3    H253986   5.032   7.262   0.510
18037TIP3   OH253987   4.818   6.758   0.814
18037TIP3    H153988   4.722   6.751   0.810
18037TIP3    H253989   4.836   6.847   0.783
18038TIP3   OH253990   5.560   7.110   0.408
18038TIP3    H153991   5.597   7.117   0.320
18038TIP3    H253992   5.581   7.193   0.450
18039TIP3   OH253993   4.673   7.844   0.784
18039TIP3    H153994   4.746   7.906   0.787
18039TIP3    H253995   4.645   7.845   0.693
18040TIP3   OH253996   5.723   7.445   0.789
18040TIP3    H153997   5.729   7.540   0.800
18040TIP3    H253998   5.796   7.410   0.839
18041TIP3   OH253999   5.932   7.331   0.936
18041TIP3    H154000   5.886   7.274   0.996
18041TIP3    H254001   6.008   7.362   0.986
18042TIP3   OH254002   5.911   7.173   0.710
18042TIP3    H154003   5.891   7.227   0.633
18042TIP3    H254004   5.923   7.236   0.781
18043TIP3   OH254005   5.673   6.766   0.461
18043TIP3    H154006   5.684   6.850   0.505
18043TIP3    H254007   5.674   6.702   0.532
18044TIP3   OH254008   5.644   6.581   0.668
18044TIP3    H154009   5.733   6.546   0.665
18044TIP3    H254010   5.588   6.505   0.686
18045TIP3   OH254011   5.889   6.479   0.629
18045TIP3    H154012   5.950   6.407   0.618
18045TIP3    H254013   5.943   6.558   0.622
18046TIP3   OH254014   5.422   7.957   1.033
18046TIP3    H154015   5.452   7.894   0.968
18046TIP3    H254016   5.503   7.991   1.072
18047TIP3   OH254017   4.920   7.821   0.628
18047TIP3    H154018   4.948   7.908   0.600
18047TIP3    H254019   4.858   7.793   0.561
18048TIP3   OH254020   5.666   7.972   0.636
18048TIP3    H154021   5.586   7.958   0.687
18048TIP3    H254022   5.636   8.005   0.552
18049TIP3   OH254023   4.160   7.570   0.735
18049TIP3    H154024   4.166   7.665   0.730
18049TIP3    H254025   4.227   7.539   0.674
18050TIP3   OH254026   7.080   7.486   0.644
18050TIP3    H154027   7.058   7.571   0.605
18050TIP3    H254028   7.014   7.426   0.610
18051TIP3   OH254029   7.145   7.479   1.061
18051TIP3    H154030   7.196   7.484   1.141
18051TIP3    H254031   7.088   7.403   1.073
18052TIP3   OH254032   7.380   7.805   0.662
18052TIP3    H154033   7.368   7.731   0.721
18052TIP3    H254034   7.399   7.879   0.720
18053TIP3   OH254035   6.416   7.827   1.174
18053TIP3    H154036   6.413   7.746   1.124
18053TIP3    H254037   6.485   7.879   1.132
18054TIP3   OH254038   6.082   7.046   0.913
18054TIP3    H154039   6.152   7.107   0.888
18054TIP3    H254040   6.032   7.034   0.832
18055TIP3   OH254041   6.149   7.377   1.108
18055TIP3    H154042   6.131   7.296   1.156
18055TIP3    H254043   6.240   7.398   1.130
18056TIP3   OH254044   6.960   8.231   0.697
18056TIP3    H154045   6.992   8.146   0.667
18056TIP3    H254046   6.917   8.212   0.780
18057TIP3   OH254047   6.946   7.709   1.096
18057TIP3    H154048   6.969   7.655   1.020
18057TIP3    H254049   7.025   7.758   1.116
18058TIP3   OH254050   7.885   7.052   1.117
18058TIP3    H154051   7.966   7.096   1.144
18058TIP3    H254052   7.915   6.976   1.068
18059TIP3   OH254053   7.311   7.233   1.129
18059TIP3    H154054   7.328   7.141   1.110
18059TIP3    H254055   7.364   7.280   1.064
18060TIP3   OH254056   6.700   6.902   1.100
18060TIP3    H154057   6.611   6.901   1.064
18060TIP3    H254058   6.695   6.847   1.178
18061TIP3   OH254059   7.332   6.937   0.683
18061TIP3    H154060   7.354   6.947   0.775
18061TIP3    H254061   7.412   6.962   0.636
18062TIP3   OH254062   6.721   7.201   1.020
18062TIP3    H154063   6.811   7.229   1.036
18062TIP3    H254064   6.686   7.182   1.107
18063TIP3   OH254065   8.043   7.213   1.292
18063TIP3    H154066   7.974   7.271   1.259
18063TIP3    H254067   8.001   7.162   1.361
18064TIP3   OH254068   6.976   7.704   0.528
18064TIP3    H154069   6.947   7.687   0.438
18064TIP3    H254070   6.928   7.782   0.555
18065TIP3   OH254071   7.679   6.914   0.923
18065TIP3    H154072   7.682   6.915   1.019
18065TIP3    H254073   7.762   6.951   0.895
18066TIP3   OH254074   6.010   7.475   0.660
18066TIP3    H154075   5.924   7.467   0.620
18066TIP3    H254076   6.015   7.566   0.690
18067TIP3   OH254077   7.390   8.019   0.838
18067TIP3    H154078   7.296   8.030   0.852
18067TIP3    H254079   7.414   8.093   0.781
18068TIP3   OH254080   7.659   6.930   1.199
18068TIP3    H154081   7.584   6.982   1.227
18068TIP3    H254082   7.731   6.993   1.193
18069TIP3   OH254083   7.114   8.044   0.542
18069TIP3    H154084   7.164   7.969   0.510
18069TIP3    H254085   7.172   8.120   0.527
18070TIP3   OH254086   7.272   7.855   0.419
18070TIP3    H154087   7.265   7.769   0.376
18070TIP3    H254088   7.317   7.836   0.502
18071TIP3   OH254089   7.554   7.955   1.274
18071TIP3    H154090   7.647   7.938   1.264
18071TIP3    H254091   7.549   8.032   1.330
18072TIP3   OH254092   6.906   7.362   0.465
18072TIP3    H154093   6.826   7.415   0.457
18072TIP3    H254094   6.953   7.378   0.383
18073TIP3   OH254095   6.912   7.129   0.200
18073TIP3    H154096   6.975   7.192   0.237
18073TIP3    H254097   6.967   7.064   0.156
18074TIP3   OH254098   7.868   7.521   1.007
18074TIP3    H154099   7.787   7.567   1.032
18074TIP3    H254100   7.891   7.557   0.921
18075TIP3   OH254101   7.280   7.419   0.458
18075TIP3    H154102   7.230   7.444   0.536
18075TIP3    H254103   7.363   7.387   0.491
18076TIP3   OH254104   7.515   7.438   1.362
18076TIP3    H154105   7.517   7.419   1.456
18076TIP3    H254106   7.428   7.475   1.347
18077TIP3   OH254107   6.529   7.369   0.920
18077TIP3    H154108   6.468   7.298   0.900
18077TIP3    H254109   6.611   7.325   0.942
18078TIP3   OH254110   6.614   7.905   1.000
18078TIP3    H154111   6.621   7.854   0.919
18078TIP3    H254112   6.669   7.859   1.063
18079TIP3   OH254113   6.852   7.274   1.273
18079TIP3    H154114   6.767   7.265   1.317
18079TIP3    H254115   6.891   7.352   1.312
18080TIP3   OH254116   7.134   8.088   0.914
18080TIP3    H154117   7.089   8.132   0.986
18080TIP3    H254118   7.072   8.021   0.885
18081TIP3   OH254119   7.105   7.315   0.275
18081TIP3    H154120   7.170   7.357   0.331
18081TIP3    H254121   7.146   7.314   0.188
18082TIP3   OH254122   6.856   7.954   0.569
18082TIP3    H154123   6.947   7.983   0.560
18082TIP3    H254124   6.807   8.012   0.510
18083TIP3   OH254125   7.619   6.493   0.311
18083TIP3    H154126   7.540   6.510   0.363
18083TIP3    H254127   7.635   6.576   0.265
18084TIP3   OH254128   6.430   7.438   0.636
18084TIP3    H154129   6.370   7.409   0.568
18084TIP3    H254130   6.491   7.364   0.647
18085TIP3   OH254131   4.201   3.261   7.923
18085TIP3    H154132   4.193   3.355   7.907
18085TIP3    H254133   4.291   3.240   7.900
18086TIP3   OH254134   7.965   8.312   1.288
18086TIP3    H154135   7.877   8.282   1.269
18086TIP3    H254136   7.953   8.399   1.327
18087TIP3   OH254137   7.020   7.978   1.427
18087TIP3    H154138   6.951   8.038   1.397
18087TIP3    H254139   6.975   7.895   1.442
18088TIP3   OH254140   6.764   8.159   0.388
18088TIP3    H154141   6.722   8.142   0.304
18088TIP3    H254142   6.727   8.242   0.418
18089TIP3   OH254143   6.184   7.997   0.665
18089TIP3    H154144   6.223   7.958   0.743
18089TIP3    H254145   6.090   8.000   0.685
18090TIP3   OH254146   6.971   8.112   0.016
18090TIP3    H154147   7.021   8.038  -0.019
18090TIP3    H254148   7.004   8.123   0.105
18091TIP3   OH254149   7.019   8.150   0.286
18091TIP3    H154150   6.933   8.148   0.327
18091TIP3    H254151   7.078   8.112   0.351
18092TIP3   OH254152   7.217   7.251   0.034
18092TIP3    H154153   7.167   7.255  -0.047
18092TIP3    H254154   7.298   7.297   0.015
18093TIP3   OH254155   6.894   6.699   0.287
18093TIP3    H154156   6.881   6.708   0.382
18093TIP3    H254157   6.859   6.612   0.267
18094TIP3   OH254158   6.561   7.082   0.840
18094TIP3    H154159   6.507   7.020   0.889
18094TIP3    H254160   6.622   7.117   0.905
18095TIP3   OH254161   7.033   7.134   0.537
18095TIP3    H154162   6.993   7.211   0.498
18095TIP3    H254163   7.100   7.107   0.474
18096TIP3   OH254164   7.150   7.088   0.821
18096TIP3    H154165   7.188   7.176   0.820
18096TIP3    H254166   7.195   7.041   0.752
18097TIP3   OH254167   6.505   6.630   0.253
18097TIP3    H154168   6.534   6.659   0.339
18097TIP3    H254169   6.479   6.710   0.207
18098TIP3   OH254170   6.126   6.728   0.864
18098TIP3    H154171   6.197   6.744   0.803
18098TIP3    H254172   6.060   6.794   0.844
18099TIP3   OH254173   7.221   7.403   1.326
18099TIP3    H154174   7.243   7.324   1.277
18099TIP3    H254175   7.226   7.377   1.418
18100TIP3   OH254176   6.918   6.743   1.044
18100TIP3    H154177   6.850   6.807   1.063
18100TIP3    H254178   6.934   6.700   1.129
18101TIP3   OH254179   6.444   6.878   0.988
18101TIP3    H154180   6.356   6.891   1.023
18101TIP3    H254181   6.436   6.806   0.926
18102TIP3   OH254182   6.729   6.989   0.543
18102TIP3    H154183   6.768   7.067   0.504
18102TIP3    H254184   6.642   6.982   0.502
18103TIP3   OH254185   7.352   6.975   1.227
18103TIP3    H154186   7.280   7.030   1.258
18103TIP3    H254187   7.314   6.887   1.221
18104TIP3   OH254188   6.472   6.998   0.420
18104TIP3    H154189   6.426   6.921   0.388
18104TIP3    H254190   6.519   7.031   0.344
18105TIP3   OH254191   7.527   8.787   1.390
18105TIP3    H154192   7.584   8.749   1.323
18105TIP3    H254193   7.456   8.724   1.400
18106TIP3   OH254194   7.003   7.237   1.055
18106TIP3    H154195   7.056   7.158   1.056
18106TIP3    H254196   6.963   7.241   1.142
18107TIP3   OH254197   6.436   6.637   0.853
18107TIP3    H154198   6.430   6.576   0.926
18107TIP3    H254199   6.530   6.653   0.842
18108TIP3   OH254200   6.671   7.518   0.453
18108TIP3    H154201   6.607   7.448   0.437
18108TIP3    H254202   6.671   7.530   0.548
18109TIP3   OH254203   7.647   7.674   0.998
18109TIP3    H154204   7.701   7.744   0.963
18109TIP3    H254205   7.566   7.717   1.026
18110TIP3   OH254206   7.150   6.796   0.302
18110TIP3    H154207   7.055   6.783   0.293
18110TIP3    H254208   7.161   6.890   0.312
18111TIP3   OH254209   7.215   7.060   0.343
18111TIP3    H154210   7.307   7.059   0.369
18111TIP3    H254211   7.205   7.140   0.292
18112TIP3   OH254212   6.420   7.415   1.187
18112TIP3    H154213   6.469   7.425   1.106
18112TIP3    H254214   6.472   7.354   1.240
18113TIP3   OH254215   6.851   7.630   0.288
18113TIP3    H154216   6.818   7.719   0.276
18113TIP3    H254217   6.785   7.586   0.342
18114TIP3   OH254218   7.281   7.928   1.408
18114TIP3    H154219   7.188   7.945   1.425
18114TIP3    H254220   7.320   8.015   1.404
18115TIP3   OH254221   7.665   7.148   0.210
18115TIP3    H154222   7.610   7.102   0.147
18115TIP3    H254223   7.664   7.239   0.181
18116TIP3   OH254224   7.786   8.058   1.427
18116TIP3    H154225   7.812   8.034   1.516
18116TIP3    H254226   7.862   8.040   1.373
18117TIP3   OH254227   7.392   7.970   0.191
18117TIP3    H154228   7.352   7.921   0.263
18117TIP3    H254229   7.402   7.906   0.121
18118TIP3   OH254230   7.349   7.610   0.853
18118TIP3    H154231   7.326   7.553   0.927
18118TIP3    H254232   7.430   7.573   0.818
18119TIP3   OH254233   6.556   7.820   0.738
18119TIP3    H154234   6.556   7.900   0.686
18119TIP3    H254235   6.472   7.778   0.717
18120TIP3   OH254236   6.122   7.098   0.495
18120TIP3    H154237   6.130   7.191   0.472
18120TIP3    H254238   6.027   7.082   0.495
18121TIP3   OH254239   6.670   7.570   0.724
18121TIP3    H154240   6.648   7.663   0.730
18121TIP3    H254241   6.586   7.524   0.730
18122TIP3   OH254242   6.859   8.174   1.314
18122TIP3    H154243   6.792   8.186   1.246
18122TIP3    H254244   6.942   8.189   1.269
18123TIP3   OH254245   6.448   8.038   0.597
18123TIP3    H154246   6.354   8.034   0.612
18123TIP3    H254247   6.470   8.131   0.603
18124TIP3   OH254248   7.171   7.831   1.173
18124TIP3    H154249   7.195   7.850   1.264
18124TIP3    H254250   7.225   7.756   1.149
18125TIP3   OH254251   7.149   7.691   0.065
18125TIP3    H154252   7.193   7.667   0.147
18125TIP3    H254253   7.067   7.641   0.067
18126TIP3   OH254254   7.430   8.352   1.236
18126TIP3    H154255   7.426   8.426   1.296
18126TIP3    H254256   7.365   8.372   1.169
18127TIP3   OH254257   4.188   3.535   7.881
18127TIP3    H154258   4.202   3.593   7.807
18127TIP3    H254259   4.118   3.576   7.931
18128TIP3   OH254260   7.308   7.621   0.277
18128TIP3    H154261   7.298   7.549   0.340
18128TIP3    H254262   7.401   7.625   0.259
18129TIP3   OH254263   6.510   7.650   0.078
18129TIP3    H154264   6.515   7.560   0.045
18129TIP3    H254265   6.492   7.641   0.171
18130TIP3   OH254266   6.449   7.668   0.347
18130TIP3    H154267   6.524   7.637   0.398
18130TIP3    H254268   6.455   7.763   0.350
18131TIP3   OH254269   6.190   7.363   0.493
18131TIP3    H154270   6.123   7.397   0.552
18131TIP3    H254271   6.195   7.429   0.424
18132TIP3   OH254272   7.218   6.721   0.555
18132TIP3    H154273   7.190   6.741   0.466
18132TIP3    H254274   7.238   6.806   0.594
18133TIP3   OH254275   6.728   7.866   0.284
18133TIP3    H154276   6.639   7.884   0.316
18133TIP3    H254277   6.747   7.940   0.226
18134TIP3   OH254278   6.998   6.897   0.665
18134TIP3    H154279   7.014   6.976   0.614
18134TIP3    H254280   6.936   6.924   0.733
18135TIP3   OH254281   7.113   6.740   0.857
18135TIP3    H154282   7.041   6.755   0.919
18135TIP3    H254283   7.097   6.802   0.786
18136TIP3   OH254284   6.471   7.938   0.347
18136TIP3    H154285   6.446   8.009   0.288
18136TIP3    H254286   6.466   7.977   0.434
18137TIP3   OH254287   6.618   6.719   0.480
18137TIP3    H154288   6.566   6.779   0.533
18137TIP3    H254289   6.707   6.728   0.513
18138TIP3   OH254290   7.476   7.261   0.824
18138TIP3    H154291   7.385   7.291   0.822
18138TIP3    H254292   7.515   7.309   0.898
18139TIP3   OH254293   6.198   7.565   0.307
18139TIP3    H154294   6.272   7.622   0.325
18139TIP3    H254295   6.231   7.501   0.244
18140TIP3   OH254296   6.161   6.892   0.323
18140TIP3    H154297   6.164   6.962   0.389
18140TIP3    H254298   6.124   6.817   0.369
18141TIP3   OH254299   7.445   8.253   0.717
18141TIP3    H154300   7.393   8.329   0.691
18141TIP3    H254301   7.535   8.285   0.721
18142TIP3   OH254302   6.034   7.737   0.737
18142TIP3    H154303   6.017   7.782   0.820
18142TIP3    H254304   6.003   7.799   0.670
18143TIP3   OH254305   3.387   3.241   7.978
18143TIP3    H154306   3.341   3.168   8.020
18143TIP3    H254307   3.462   3.199   7.934
18144TIP3   OH254308   3.829   3.280   7.901
18144TIP3    H154309   3.864   3.215   7.962
18144TIP3    H254310   3.886   3.273   7.824
18145TIP3   OH254311   6.324   7.356   0.186
18145TIP3    H154312   6.371   7.329   0.265
18145TIP3    H254313   6.392   7.364   0.119
18146TIP3   OH254314   6.908   7.561   0.031
18146TIP3    H154315   6.878   7.574   0.121
18146TIP3    H254316   6.888   7.469   0.012
18147TIP3   OH254317   7.452   7.721   1.419
18147TIP3    H154318   7.534   7.763   1.392
18147TIP3    H254319   7.389   7.792   1.423
18148TIP3   OH254320   6.518   7.298   0.389
18148TIP3    H154321   6.543   7.265   0.476
18148TIP3    H254322   6.560   7.238   0.328
18149TIP3   OH254323   6.642   7.111   0.237
18149TIP3    H154324   6.613   7.107   0.146
18149TIP3    H254325   6.738   7.109   0.231
18150TIP3   OH254326   4.160   2.775   7.928
18150TIP3    H154327   4.147   2.734   7.842
18150TIP3    H254328   4.136   2.867   7.915
18151TIP3   OH254329   6.460   8.160   0.184
18151TIP3    H154330   6.551   8.144   0.157
18151TIP3    H254331   6.420   8.203   0.109
18152TIP3   OH254332   5.927   7.541   0.305
18152TIP3    H154333   6.020   7.562   0.314
18152TIP3    H254334   5.926   7.459   0.255
18153TIP3   OH254335   5.918   8.010   0.719
18153TIP3    H154336   5.829   8.000   0.685
18153TIP3    H254337   5.913   7.978   0.809
18154TIP3   OH254338   5.995   7.929   0.968
18154TIP3    H154339   5.958   7.898   1.050
18154TIP3    H254340   6.020   8.020   0.985
18155TIP3   OH254341   7.698   8.351   0.749
18155TIP3    H154342   7.686   8.407   0.825
18155TIP3    H254343   7.765   8.396   0.697
18156TIP3   OH254344   7.698   8.441   1.014
18156TIP3    H154345   7.643   8.363   1.024
18156TIP3    H254346   7.787   8.407   1.012
18157TIP3   OH254347   7.582   7.624   0.247
18157TIP3    H154348   7.642   7.692   0.219
18157TIP3    H254349   7.626   7.582   0.321
18158TIP3   OH254350   7.706   7.475   0.439
18158TIP3    H154351   7.638   7.430   0.490
18158TIP3    H254352   7.765   7.511   0.506
18159TIP3   OH254353   7.766   7.872   0.863
18159TIP3    H154354   7.826   7.811   0.821
18159TIP3    H254355   7.770   7.951   0.810
18160TIP3   OH254356   7.556   8.193   1.018
18160TIP3    H154357   7.488   8.183   1.085
18160TIP3    H254358   7.521   8.148   0.941
18161TIP3   OH254359   7.639   7.397   0.099
18161TIP3    H154360   7.567   7.390   0.037
18161TIP3    H254361   7.618   7.474   0.151
18162TIP3   OH254362   7.502   7.029   0.028
18162TIP3    H154363   7.440   7.059  -0.039
18162TIP3    H254364   7.497   6.933   0.024
18163TIP3   OH254365   7.513   7.314   0.554
18163TIP3    H154366   7.510   7.226   0.518
18163TIP3    H254367   7.517   7.302   0.649
18164TIP3   OH254368   7.944   7.793   1.466
18164TIP3    H154369   7.960   7.700   1.478
18164TIP3    H254370   7.849   7.802   1.476
18165TIP3   OH254371   7.899   7.521   1.494
18165TIP3    H154372   7.852   7.458   1.549
18165TIP3    H254373   7.989   7.490   1.494
18166TIP3   OH254374   7.460   6.756   0.001
18166TIP3    H154375   7.521   6.733   0.071
18166TIP3    H254376   7.377   6.716   0.028
18167TIP3   OH254377   7.480   7.083   0.404
18167TIP3    H154378   7.502   6.993   0.431
18167TIP3    H254379   7.547   7.106   0.341
18168TIP3   OH254380   7.699   7.212   1.002
18168TIP3    H154381   7.705   7.205   0.907
18168TIP3    H254382   7.773   7.162   1.035
18169TIP3   OH254383   7.830   7.355   1.220
18169TIP3    H154384   7.740   7.328   1.239
18169TIP3    H254385   7.824   7.398   1.135
18170TIP3   OH254386   7.531   6.826   0.467
18170TIP3    H154387   7.616   6.818   0.510
18170TIP3    H254388   7.497   6.736   0.466
18171TIP3   OH254389   7.680   6.716   0.166
18171TIP3    H154390   7.728   6.655   0.109
18171TIP3    H254391   7.737   6.792   0.174
18172TIP3   OH254392   6.193   6.471   0.933
18172TIP3    H154393   6.137   6.438   1.004
18172TIP3    H254394   6.183   6.566   0.937
18173TIP3   OH254395   7.255   8.258   0.450
18173TIP3    H154396   7.312   8.250   0.374
18173TIP3    H254397   7.298   8.324   0.505
18174TIP3   OH254398   6.619   8.066   1.416
18174TIP3    H154399   6.535   8.112   1.419
18174TIP3    H254400   6.629   8.039   1.324
18175TIP3   OH254401   7.151   8.438   1.456
18175TIP3    H154402   7.184   8.349   1.444
18175TIP3    H254403   7.121   8.441   1.547
18176TIP3   OH254404   6.404   8.232   1.369
18176TIP3    H154405   6.451   8.314   1.382
18176TIP3    H254406   6.415   8.212   1.276
18177TIP3   OH254407   6.900   8.282   0.969
18177TIP3    H154408   6.811   8.264   0.999
18177TIP3    H254409   6.901   8.376   0.952
18178TIP3   OH254410   7.074   8.222   1.159
18178TIP3    H154411   7.007   8.251   1.097
18178TIP3    H254412   7.144   8.288   1.150
18179TIP3   OH254413   7.489   8.588   0.803
18179TIP3    H154414   7.456   8.592   0.893
18179TIP3    H254415   7.419   8.546   0.754
18180TIP3   OH254416   6.120   8.132   1.297
18180TIP3    H154417   6.125   8.200   1.364
18180TIP3    H254418   6.210   8.123   1.265
18181TIP3   OH254419   6.324   7.941   0.904
18181TIP3    H154420   6.281   7.860   0.932
18181TIP3    H254421   6.416   7.916   0.891
18182TIP3   OH254422   6.688   8.107   0.813
18182TIP3    H154423   6.738   8.035   0.775
18182TIP3    H254424   6.660   8.074   0.899
18183TIP3   OH254425   7.211   6.752   1.187
18183TIP3    H154426   7.138   6.700   1.221
18183TIP3    H254427   7.261   6.690   1.134
18184TIP3   OH254428   7.683   6.650   0.994
18184TIP3    H154429   7.687   6.735   0.950
18184TIP3    H254430   7.590   6.639   1.015
18185TIP3   OH254431   7.771   6.787   0.583
18185TIP3    H154432   7.800   6.725   0.650
18185TIP3    H254433   7.824   6.866   0.599
18186TIP3   OH254434   6.282   6.269   0.768
18186TIP3    H154435   6.377   6.274   0.781
18186TIP3    H254436   6.246   6.331   0.831
18187TIP3   OH254437   6.737   6.535   1.084
18187TIP3    H154438   6.760   6.605   1.022
18187TIP3    H254439   6.739   6.578   1.170
18188TIP3   OH254440   7.416   6.628   1.043
18188TIP3    H154441   7.412   6.656   0.951
18188TIP3    H254442   7.406   6.533   1.039
18189TIP3   OH254443   7.435   6.570   0.506
18189TIP3    H154444   7.348   6.610   0.519
18189TIP3    H254445   7.428   6.484   0.547
18190TIP3   OH254446   5.942   7.856   0.469
18190TIP3    H154447   5.858   7.860   0.423
18190TIP3    H254448   5.964   7.947   0.486
18191TIP3   OH254449   6.325   6.659   0.487
18191TIP3    H154450   6.322   6.587   0.423
18191TIP3    H254451   6.273   6.627   0.560
18192TIP3   OH254452   6.880   6.684   0.557
18192TIP3    H154453   6.946   6.616   0.573
18192TIP3    H254454   6.920   6.764   0.591
18193TIP3   OH254455   6.715   8.088   0.114
18193TIP3    H154456   6.799   8.114   0.075
18193TIP3    H254457   6.684   8.017   0.058
18194TIP3   OH254458   7.412   8.236   0.223
18194TIP3    H154459   7.414   8.141   0.215
18194TIP3    H254460   7.369   8.267   0.143
18195TIP3   OH254461   6.020   7.902   0.167
18195TIP3    H154462   6.013   7.901   0.263
18195TIP3    H254463   6.104   7.861   0.149
18196TIP3   OH254464   7.697   8.308   1.279
18196TIP3    H154465   7.607   8.297   1.248
18196TIP3    H254466   7.687   8.344   1.368
18197TIP3   OH254467   8.910   7.739   0.155
18197TIP3    H154468   8.877   7.827   0.132
18197TIP3    H254469   8.838   7.680   0.130
18198TIP3   OH254470   8.899   7.748   0.557
18198TIP3    H154471   8.962   7.728   0.626
18198TIP3    H254472   8.857   7.664   0.538
18199TIP3   OH254473   8.202   7.650   0.797
18199TIP3    H154474   8.194   7.591   0.873
18199TIP3    H254475   8.294   7.647   0.774
18200TIP3   OH254476   9.182   8.052   0.243
18200TIP3    H154477   9.166   7.985   0.309
18200TIP3    H254478   9.198   8.132   0.293
18201TIP3   OH254479   8.212   8.085   0.649
18201TIP3    H154480   8.182   7.994   0.636
18201TIP3    H254481   8.304   8.084   0.621
18202TIP3   OH254482   7.871   7.254   0.379
18202TIP3    H154483   7.824   7.336   0.393
18202TIP3    H254484   7.808   7.198   0.333
18203TIP3   OH254485   7.958   7.535   0.553
18203TIP3    H154486   8.026   7.476   0.586
18203TIP3    H254487   8.000   7.583   0.482
18204TIP3   OH254488   8.837   8.471   0.246
18204TIP3    H154489   8.855   8.410   0.174
18204TIP3    H254490   8.853   8.419   0.326
18205TIP3   OH254491   8.717   7.974   0.557
18205TIP3    H154492   8.761   7.894   0.528
18205TIP3    H254493   8.788   8.031   0.588
18206TIP3   OH254494   9.769   7.285   0.575
18206TIP3    H154495   9.776   7.371   0.617
18206TIP3    H254496   9.797   7.300   0.485
18207TIP3   OH254497   9.132   7.455   0.596
18207TIP3    H154498   9.183   7.379   0.625
18207TIP3    H254499   9.081   7.422   0.522
18208TIP3   OH254500   8.480   7.113   0.547
18208TIP3    H154501   8.452   7.179   0.484
18208TIP3    H254502   8.424   7.037   0.529
18209TIP3   OH254503   9.169   7.220   0.203
18209TIP3    H154504   9.235   7.219   0.273
18209TIP3    H254505   9.216   7.252   0.127
18210TIP3   OH254506   8.115   7.342   0.666
18210TIP3    H154507   8.205   7.335   0.698
18210TIP3    H254508   8.114   7.287   0.587
18211TIP3   OH254509   8.527   7.525   0.495
18211TIP3    H154510   8.622   7.511   0.498
18211TIP3    H254511   8.491   7.445   0.458
18212TIP3   OH254512   9.800   7.503   0.756
18212TIP3    H154513   9.711   7.536   0.743
18212TIP3    H254514   9.821   7.523   0.847
18213TIP3   OH254515   8.498   7.125   0.976
18213TIP3    H154516   8.440   7.186   0.931
18213TIP3    H254517   8.442   7.052   1.002
18214TIP3   OH254518   8.778   7.947   0.035
18214TIP3    H154519   8.752   7.930  -0.055
18214TIP3    H254520   8.737   8.031   0.056
18215TIP3   OH254521   8.583   7.879   0.776
18215TIP3    H154522   8.536   7.948   0.822
18215TIP3    H254523   8.622   7.923   0.700
18216TIP3   OH254524   9.337   7.259   0.411
18216TIP3    H154525   9.309   7.231   0.498
18216TIP3    H254526   9.400   7.329   0.428
18217TIP3   OH254527   8.365   7.257   0.756
18217TIP3    H154528   8.426   7.322   0.790
18217TIP3    H254529   8.414   7.210   0.688
18218TIP3   OH254530   8.442   8.067   0.919
18218TIP3    H154531   8.403   8.152   0.901
18218TIP3    H254532   8.376   8.020   0.970
18219TIP3   OH254533   7.771   7.800   0.144
18219TIP3    H154534   7.742   7.818   0.055
18219TIP3    H254535   7.794   7.887   0.179
18220TIP3   OH254536   9.210   8.296   0.392
18220TIP3    H154537   9.122   8.291   0.429
18220TIP3    H254538   9.211   8.379   0.343
18221TIP3   OH254539   9.561   7.234   0.762
18221TIP3    H154540   9.473   7.220   0.728
18221TIP3    H254541   9.617   7.239   0.684
18222TIP3   OH254542   8.823   6.804   0.676
18222TIP3    H154543   8.797   6.718   0.710
18222TIP3    H254544   8.756   6.864   0.707
18223TIP3   OH254545   8.906   8.322   0.018
18223TIP3    H154546   8.958   8.242   0.013
18223TIP3    H254547   8.968   8.392  -0.002
18224TIP3   OH254548   9.071   8.107  -0.007
18224TIP3    H154549   9.075   8.028  -0.061
18224TIP3    H254550   9.111   8.082   0.076
18225TIP3   OH254551   9.455   8.173   0.734
18225TIP3    H154552   9.429   8.102   0.676
18225TIP3    H254553   9.441   8.252   0.683
18226TIP3   OH254554   5.461   2.968   8.004
18226TIP3    H154555   5.381   3.017   7.988
18226TIP3    H254556   5.508   2.970   7.921
18227TIP3   OH254557   5.436   2.779   7.690
18227TIP3    H154558   5.502   2.827   7.741
18227TIP3    H254559   5.486   2.713   7.642
18228TIP3   OH254560   9.620   7.853   0.602
18228TIP3    H154561   9.534   7.894   0.597
18228TIP3    H254562   9.657   7.862   0.514
18229TIP3   OH254563   9.094   7.676  -0.037
18229TIP3    H154564   9.039   7.701   0.038
18229TIP3    H254565   9.177   7.649   0.003
18230TIP3   OH254566   9.327   7.724   0.893
18230TIP3    H154567   9.317   7.803   0.947
18230TIP3    H254568   9.250   7.725   0.836
18231TIP3   OH254569   8.301   7.653   0.386
18231TIP3    H154570   8.271   7.595   0.316
18231TIP3    H254571   8.381   7.612   0.419
18232TIP3   OH254572   8.457   8.090   0.507
18232TIP3    H154573   8.427   8.070   0.418
18232TIP3    H254574   8.544   8.050   0.512
18233TIP3   OH254575   8.463   7.638   0.736
18233TIP3    H154576   8.489   7.608   0.649
18233TIP3    H254577   8.507   7.722   0.747
18234TIP3   OH254578   8.969   8.301   0.518
18234TIP3    H154579   8.959   8.377   0.576
18234TIP3    H254580   8.957   8.226   0.576
18235TIP3   OH254581   8.638   8.191   1.063
18235TIP3    H154582   8.581   8.256   1.103
18235TIP3    H254583   8.580   8.136   1.011
18236TIP3   OH254584   5.655   2.920   7.800
18236TIP3    H154585   5.715   2.976   7.849
18236TIP3    H254586   5.684   2.926   7.709
18237TIP3   OH254587   8.414   7.679   1.050
18237TIP3    H154588   8.388   7.771   1.050
18237TIP3    H254589   8.339   7.633   1.012
18238TIP3   OH254590   8.659   8.198   0.045
18238TIP3    H154591   8.740   8.249   0.040
18238TIP3    H254592   8.603   8.236  -0.023
18239TIP3   OH254593   8.454   8.380   1.141
18239TIP3    H154594   8.424   8.377   1.051
18239TIP3    H254595   8.373   8.378   1.193
18240TIP3   OH254596   6.173   2.143   7.858
18240TIP3    H154597   6.096   2.165   7.910
18240TIP3    H254598   6.184   2.217   7.799
18241TIP3   OH254599   8.190   7.496   0.175
18241TIP3    H154600   8.116   7.545   0.141
18241TIP3    H254601   8.158   7.406   0.182
18242TIP3   OH254602   5.994   3.520   7.408
18242TIP3    H154603   5.987   3.613   7.387
18242TIP3    H254604   6.084   3.497   7.387
18243TIP3   OH254605   8.035   7.989   0.943
18243TIP3    H154606   7.946   8.023   0.939
18243TIP3    H254607   8.025   7.897   0.966
18244TIP3   OH254608   7.818   8.105   0.733
18244TIP3    H154609   7.908   8.132   0.713
18244TIP3    H254610   7.771   8.186   0.751
18245TIP3   OH254611   9.675   8.558   0.803
18245TIP3    H154612   9.681   8.463   0.810
18245TIP3    H254613   9.597   8.581   0.853
18246TIP3   OH254614   8.779   8.361   0.900
18246TIP3    H154615   8.770   8.447   0.941
18246TIP3    H254616   8.730   8.302   0.957
18247TIP3   OH254617   5.279   3.850   7.840
18247TIP3    H154618   5.238   3.886   7.762
18247TIP3    H254619   5.259   3.913   7.910
18248TIP3   OH254620   7.991   8.293   0.240
18248TIP3    H154621   8.042   8.283   0.320
18248TIP3    H254622   7.943   8.211   0.232
18249TIP3   OH254623   5.520   3.755   7.490
18249TIP3    H154624   5.560   3.671   7.469
18249TIP3    H254625   5.523   3.759   7.585
18250TIP3   OH254626   5.534   3.784   7.767
18250TIP3    H154627   5.442   3.798   7.790
18250TIP3    H254628   5.573   3.745   7.845
18251TIP3   OH254629   9.552   7.665   1.074
18251TIP3    H154630   9.481   7.676   1.010
18251TIP3    H254631   9.577   7.573   1.066
18252TIP3   OH254632   8.186   8.182   1.077
18252TIP3    H154633   8.253   8.137   1.129
18252TIP3    H254634   8.146   8.113   1.024
18253TIP3   OH254635   8.618   6.944   0.776
18253TIP3    H154636   8.540   6.927   0.724
18253TIP3    H254637   8.594   7.017   0.833
18254TIP3   OH254638   9.176   7.055   1.067
18254TIP3    H154639   9.252   7.012   1.106
18254TIP3    H254640   9.153   6.999   0.992
18255TIP3   OH254641   9.324   7.459   0.986
18255TIP3    H154642   9.289   7.456   1.075
18255TIP3    H254643   9.299   7.546   0.953
18256TIP3   OH254644   5.736   2.915   7.541
18256TIP3    H154645   5.686   2.914   7.460
18256TIP3    H254646   5.821   2.953   7.516
18257TIP3   OH254647   5.442   2.317   7.849
18257TIP3    H154648   5.405   2.324   7.937
18257TIP3    H254649   5.408   2.234   7.815
18258TIP3   OH254650   8.542   7.421   0.885
18258TIP3    H154651   8.536   7.432   0.980
18258TIP3    H254652   8.521   7.507   0.849
18259TIP3   OH254653   8.383   7.315   0.391
18259TIP3    H154654   8.291   7.295   0.411
18259TIP3    H254655   8.395   7.282   0.302
18260TIP3   OH254656   8.854   7.382   0.133
18260TIP3    H154657   8.805   7.454   0.093
18260TIP3    H254658   8.913   7.351   0.065
18261TIP3   OH254659   9.082   7.705   1.212
18261TIP3    H154660   9.053   7.642   1.278
18261TIP3    H254661   9.177   7.708   1.221
18262TIP3   OH254662   9.006   7.382   0.364
18262TIP3    H154663   8.946   7.406   0.293
18262TIP3    H254664   9.065   7.318   0.325
18263TIP3   OH254665   8.473   7.440   1.161
18263TIP3    H154666   8.438   7.520   1.122
18263TIP3    H254667   8.398   7.382   1.169
18264TIP3   OH254668   5.112   2.294   7.833
18264TIP3    H154669   5.103   2.302   7.928
18264TIP3    H254670   5.035   2.338   7.797
18265TIP3   OH254671   7.979   6.969   0.588
18265TIP3    H154672   8.060   6.990   0.634
18265TIP3    H254673   8.008   6.916   0.513
18266TIP3   OH254674   7.845   6.939   0.184
18266TIP3    H154675   7.887   6.973   0.105
18266TIP3    H254676   7.782   7.007   0.209
18267TIP3   OH254677   9.082   7.671   0.753
18267TIP3    H154678   9.106   7.598   0.696
18267TIP3    H254679   9.057   7.630   0.836
18268TIP3   OH254680   8.746   7.087   0.461
18268TIP3    H154681   8.658   7.086   0.497
18268TIP3    H254682   8.803   7.106   0.536
18269TIP3   OH254683   8.136   7.204   0.434
18269TIP3    H154684   8.044   7.205   0.407
18269TIP3    H254685   8.167   7.116   0.410
18270TIP3   OH254686   8.398   7.188   0.150
18270TIP3    H154687   8.493   7.198   0.140
18270TIP3    H254688   8.363   7.206   0.063
18271TIP3   OH254689   9.259   7.213   0.669
18271TIP3    H154690   9.211   7.237   0.748
18271TIP3    H254691   9.271   7.119   0.675
18272TIP3   OH254692   5.013   2.590   7.909
18272TIP3    H154693   4.952   2.538   7.856
18272TIP3    H254694   5.065   2.638   7.844
18273TIP3   OH254695   9.390   8.890   0.891
18273TIP3    H154696   9.385   8.903   0.797
18273TIP3    H254697   9.469   8.937   0.918
18274TIP3   OH254698   8.321   8.103   1.327
18274TIP3    H154699   8.411   8.104   1.358
18274TIP3    H254700   8.276   8.042   1.386
18275TIP3   OH254701   8.800   7.475   0.541
18275TIP3    H154702   8.868   7.436   0.485
18275TIP3    H254703   8.802   7.424   0.621
18276TIP3   OH254704   8.269   6.962   0.391
18276TIP3    H154705   8.247   6.881   0.437
18276TIP3    H254706   8.292   6.934   0.303
18277TIP3   OH254707   8.786   7.336   0.786
18277TIP3    H154708   8.702   7.370   0.819
18277TIP3    H254709   8.852   7.373   0.845
18278TIP3   OH254710   5.223   3.110   7.951
18278TIP3    H154711   5.149   3.053   7.927
18278TIP3    H254712   5.198   3.146   8.036
18279TIP3   OH254713   9.382   7.981   0.551
18279TIP3    H154714   9.419   8.031   0.478
18279TIP3    H254715   9.304   7.940   0.515
18280TIP3   OH254716   5.694   2.423   7.855
18280TIP3    H154717   5.601   2.401   7.849
18280TIP3    H254718   5.696   2.518   7.863
18281TIP3   OH254719   8.889   8.046   0.942
18281TIP3    H154720   8.893   7.980   1.012
18281TIP3    H254721   8.830   8.113   0.976
18282TIP3   OH254722   5.753   2.688   7.922
18282TIP3    H154723   5.849   2.691   7.930
18282TIP3    H254724   5.731   2.765   7.870
18283TIP3   OH254725   8.179   7.818   0.579
18283TIP3    H154726   8.220   7.768   0.509
18283TIP3    H254727   8.183   7.760   0.655
18284TIP3   OH254728   5.382   3.267   7.793
18284TIP3    H154729   5.338   3.352   7.784
18284TIP3    H254730   5.322   3.214   7.847
18285TIP3   OH254731   8.201   7.728   1.306
18285TIP3    H154732   8.191   7.736   1.401
18285TIP3    H254733   8.156   7.647   1.283
18286TIP3   OH254734   8.873   7.870   1.155
18286TIP3    H154735   8.803   7.805   1.158
18286TIP3    H254736   8.953   7.820   1.172
18287TIP3   OH254737   9.057   8.358   0.858
18287TIP3    H154738   8.962   8.348   0.851
18287TIP3    H254739   9.071   8.389   0.947
18288TIP3   OH254740   6.168   2.772   7.739
18288TIP3    H154741   6.113   2.725   7.676
18288TIP3    H254742   6.171   2.862   7.707
18289TIP3   OH254743   9.696   8.284   0.819
18289TIP3    H154744   9.605   8.254   0.822
18289TIP3    H254745   9.730   8.247   0.737
18290TIP3   OH254746   5.928   3.592   7.675
18290TIP3    H154747   5.888   3.525   7.731
18290TIP3    H254748   5.940   3.548   7.590
18291TIP3   OH254749   9.159   7.848   0.440
18291TIP3    H154750   9.066   7.827   0.457
18291TIP3    H254751   9.195   7.767   0.404
18292TIP3   OH254752   8.314   8.080   0.264
18292TIP3    H154753   8.317   8.154   0.204
18292TIP3    H254754   8.220   8.066   0.281
18293TIP3   OH254755   4.617   2.750   7.979
18293TIP3    H154756   4.660   2.832   8.000
18293TIP3    H254757   4.532   2.755   8.024
18294TIP3   OH254758   8.392   7.828   0.182
18294TIP3    H154759   8.380   7.919   0.208
18294TIP3    H254760   8.363   7.777   0.258
18295TIP3   OH254761   8.591   8.425   0.707
18295TIP3    H154762   8.631   8.496   0.658
18295TIP3    H254763   8.661   8.390   0.762
18296TIP3   OH254764   8.235   8.301   0.108
18296TIP3    H154765   8.144   8.311   0.138
18296TIP3    H254766   8.272   8.389   0.114
18297TIP3   OH254767   8.951   8.073   0.677
18297TIP3    H154768   8.933   8.067   0.771
18297TIP3    H254769   9.022   8.010   0.663
18298TIP3   OH254770   5.690   3.321   7.572
18298TIP3    H154771   5.729   3.306   7.659
18298TIP3    H254772   5.605   3.277   7.576
18299TIP3   OH254773   9.218   8.558   0.736
18299TIP3    H154774   9.146   8.499   0.761
18299TIP3    H254775   9.180   8.613   0.668
18300TIP3   OH254776   5.987   3.792   7.364
18300TIP3    H154777   6.001   3.854   7.292
18300TIP3    H254778   5.918   3.833   7.417
18301TIP3   OH254779   8.286   7.254   1.193
18301TIP3    H154780   8.202   7.248   1.238
18301TIP3    H254781   8.326   7.168   1.207
18302TIP3   OH254782   5.851   3.277   7.799
18302TIP3    H154783   5.835   3.201   7.855
18302TIP3    H254784   5.945   3.272   7.779
18303TIP3   OH254785   8.128   8.320   0.787
18303TIP3    H154786   8.150   8.231   0.761
18303TIP3    H254787   8.076   8.311   0.867
18304TIP3   OH254788   5.029   3.279   7.576
18304TIP3    H154789   5.036   3.186   7.554
18304TIP3    H254790   5.012   3.280   7.670
18305TIP3   OH254791   4.971   3.320   7.846
18305TIP3    H154792   5.039   3.297   7.909
18305TIP3    H254793   4.973   3.416   7.843
18306TIP3   OH254794   7.971   7.622   0.062
18306TIP3    H154795   7.903   7.670   0.109
18306TIP3    H254796   7.993   7.679  -0.012
18307TIP3   OH254797   9.137   7.273   0.902
18307TIP3    H154798   9.196   7.342   0.932
18307TIP3    H254799   9.149   7.202   0.965
18308TIP3   OH254800   9.030   6.998   0.116
18308TIP3    H154801   9.007   7.017   0.025
18308TIP3    H254802   9.071   7.079   0.148
18309TIP3   OH254803   5.243   3.500   7.758
18309TIP3    H154804   5.166   3.542   7.796
18309TIP3    H254805   5.238   3.520   7.664
18310TIP3   OH254806   8.675   7.189   0.210
18310TIP3    H154807   8.736   7.258   0.183
18310TIP3    H254808   8.703   7.166   0.298
18311TIP3   OH254809   9.025   7.557   0.988
18311TIP3    H154810   9.038   7.610   1.068
18311TIP3    H254811   8.975   7.481   1.018
18312TIP3   OH254812   8.843   6.886   0.279
18312TIP3    H154813   8.827   6.957   0.342
18312TIP3    H254814   8.914   6.918   0.224
18313TIP3   OH254815   5.000   3.594   7.848
18313TIP3    H154816   4.984   3.668   7.789
18313TIP3    H254817   4.989   3.631   7.936
18314TIP3   OH254818   8.348   6.916   0.114
18314TIP3    H154819   8.343   7.011   0.128
18314TIP3    H254820   8.442   6.896   0.118
18315TIP3   OH254821   9.589   7.394   0.985
18315TIP3    H154822   9.494   7.406   0.994
18315TIP3    H254823   9.599   7.339   0.908
18316TIP3   OH254824   9.258   7.591   0.361
18316TIP3    H154825   9.184   7.539   0.392
18316TIP3    H254826   9.333   7.557   0.410
18317TIP3   OH254827   4.732   3.176   7.846
18317TIP3    H154828   4.801   3.242   7.851
18317TIP3    H254829   4.762   3.113   7.781
18318TIP3   OH254830   4.633   2.470   7.962
18318TIP3    H154831   4.648   2.564   7.976
18318TIP3    H254832   4.565   2.466   7.895
18319TIP3   OH254833   9.231   8.561   0.306
18319TIP3    H154834   9.186   8.613   0.238
18319TIP3    H254835   9.324   8.574   0.288
18320TIP3   OH254836   8.362   6.877   0.693
18320TIP3    H154837   8.307   6.817   0.643
18320TIP3    H254838   8.359   6.843   0.783
18321TIP3   OH254839   7.820   8.067   0.225
18321TIP3    H154840   7.780   8.104   0.304
18321TIP3    H254841   7.775   8.110   0.152
18322TIP3   OH254842   8.074   8.588   1.190
18322TIP3    H154843   8.152   8.554   1.234
18322TIP3    H254844   8.007   8.588   1.258
18323TIP3   OH254845   8.476   8.587   1.331
18323TIP3    H154846   8.548   8.566   1.391
18323TIP3    H254847   8.484   8.521   1.262
18324TIP3   OH254848   5.188   3.481   7.482
18324TIP3    H154849   5.138   3.406   7.514
18324TIP3    H254850   5.262   3.442   7.435
18325TIP3   OH254851   9.101   8.447   1.116
18325TIP3    H154852   9.112   8.377   1.180
18325TIP3    H254853   9.178   8.502   1.127
18326TIP3   OH254854   5.628   3.520   7.393
18326TIP3    H154855   5.663   3.458   7.457
18326TIP3    H254856   5.689   3.515   7.319
18327TIP3   OH254857   8.177   7.956   1.509
18327TIP3    H154858   8.108   7.896   1.480
18327TIP3    H254859   8.131   8.039   1.524
18328TIP3   OH254860   4.846   2.981   7.692
18328TIP3    H154861   4.897   2.957   7.769
18328TIP3    H254862   4.911   2.992   7.622
18329TIP3   OH254863   8.787   8.101   1.271
18329TIP3    H154864   8.737   8.128   1.193
18329TIP3    H254865   8.827   8.018   1.246
18330TIP3   OH254866   5.438   3.201   7.533
18330TIP3    H154867   5.410   3.214   7.624
18330TIP3    H254868   5.412   3.111   7.513
18331TIP3   OH254869   9.230   8.137   0.899
18331TIP3    H154870   9.304   8.162   0.842
18331TIP3    H254871   9.162   8.201   0.878
18332TIP3   OH254872   8.192   7.679   1.583
18332TIP3    H154873   8.270   7.637   1.619
18332TIP3    H254874   8.151   7.723   1.658
18333TIP3   OH254875   5.019   2.925   7.904
18333TIP3    H154876   5.003   2.892   7.992
18333TIP3    H254877   5.071   2.856   7.862
18334TIP3   OH254878   8.679   7.671   1.133
18334TIP3    H154879   8.585   7.677   1.115
18334TIP3    H254880   8.720   7.669   1.046
18335TIP3   OH254881   5.165   2.748   7.745
18335TIP3    H154882   5.135   2.750   7.655
18335TIP3    H254883   5.260   2.757   7.740
18336TIP3   OH254884   9.148   8.016   1.269
18336TIP3    H154885   9.193   7.981   1.191
18336TIP3    H254886   9.142   7.941   1.328
18337TIP3   OH254887   5.959   3.028   7.420
18337TIP3    H154888   5.942   2.986   7.336
18337TIP3    H254889   5.937   3.120   7.406
18338TIP3   OH254890   8.750   7.466   1.304
18338TIP3    H154891   8.752   7.385   1.254
18338TIP3    H254892   8.728   7.534   1.241
18339TIP3   OH254893   8.771   7.119   0.974
18339TIP3    H154894   8.784   7.158   0.888
18339TIP3    H254895   8.677   7.126   0.989
18340TIP3   OH254896   8.767   7.703   0.880
18340TIP3    H154897   8.852   7.725   0.842
18340TIP3    H254898   8.706   7.766   0.842
18341TIP3   OH254899   9.347   7.697   1.287
18341TIP3    H154900   9.356   7.606   1.316
18341TIP3    H254901   9.423   7.712   1.230
18342TIP3   OH254902   9.343   7.955   1.062
18342TIP3    H154903   9.293   8.019   1.012
18342TIP3    H254904   9.433   7.964   1.030
18343TIP3   OH254905   8.639   7.521   1.542
18343TIP3    H154906   8.551   7.552   1.522
18343TIP3    H254907   8.678   7.503   1.457
18344TIP3   OH254908   8.903   6.919   1.128
18344TIP3    H154909   8.885   7.002   1.084
18344TIP3    H254910   8.839   6.858   1.091
18345TIP3   OH254911   9.012   7.504   1.379
18345TIP3    H154912   9.030   7.481   1.470
18345TIP3    H254913   8.921   7.480   1.365
18346TIP3   OH254914   9.236   7.433   1.237
18346TIP3    H154915   9.151   7.453   1.276
18346TIP3    H254916   9.270   7.362   1.291
18347TIP3   OH254917   9.553   7.336   1.374
18347TIP3    H154918   9.493   7.261   1.369
18347TIP3    H254919   9.505   7.401   1.425
18348TIP3   OH254920   8.401   7.339   1.489
18348TIP3    H154921   8.395   7.245   1.471
18348TIP3    H254922   8.439   7.344   1.577
18349TIP3   OH254923   9.121   6.962   1.397
18349TIP3    H154924   9.123   6.869   1.419
18349TIP3    H254925   9.061   6.968   1.323
18350TIP3   OH254926   9.046   7.214   1.542
18350TIP3    H154927   9.025   7.132   1.586
18350TIP3    H254928   8.977   7.274   1.572
18351TIP3   OH254929   4.969   3.805   7.670
18351TIP3    H154930   5.024   3.884   7.666
18351TIP3    H254931   4.945   3.789   7.579
18352TIP3   OH254932   4.457   3.177   7.857
18352TIP3    H154933   4.553   3.186   7.854
18352TIP3    H254934   4.440   3.091   7.818
18353TIP3   OH254935   7.620   8.385   0.315
18353TIP3    H154936   7.552   8.334   0.270
18353TIP3    H254937   7.667   8.321   0.368
18354TIP3   OH254938   7.757   8.201   0.466
18354TIP3    H154939   7.736   8.137   0.534
18354TIP3    H254940   7.810   8.267   0.510
18355TIP3   OH254941   9.503   8.608   0.297
18355TIP3    H154942   9.523   8.637   0.386
18355TIP3    H254943   9.560   8.662   0.242
18356TIP3   OH254944   9.520   8.640   0.578
18356TIP3    H154945   9.474   8.556   0.573
18356TIP3    H254946   9.589   8.626   0.642
18357TIP3   OH254947   9.580   8.348   1.154
18357TIP3    H154948   9.510   8.354   1.219
18357TIP3    H254949   9.623   8.434   1.157
18358TIP3   OH254950   6.127   3.242   7.761
18358TIP3    H154951   6.184   3.312   7.729
18358TIP3    H254952   6.175   3.202   7.833
18359TIP3   OH254953   6.260   3.097   7.958
18359TIP3    H154954   6.193   3.058   8.014
18359TIP3    H254955   6.324   3.133   8.020
18360TIP3   OH254956   9.575   8.119   0.399
18360TIP3    H154957   9.624   8.051   0.353
18360TIP3    H254958   9.575   8.193   0.338
18361TIP3   OH254959   9.384   8.396   0.587
18361TIP3    H154960   9.318   8.443   0.638
18361TIP3    H254961   9.335   8.357   0.514
18362TIP3   OH254962   6.159   3.013   7.609
18362TIP3    H154963   6.091   3.013   7.542
18362TIP3    H254964   6.142   3.093   7.660
18363TIP3   OH254965   6.023   2.658   7.537
18363TIP3    H154966   6.006   2.699   7.452
18363TIP3    H254967   6.006   2.565   7.524
18364TIP3   OH254968   9.323   7.576   0.091
18364TIP3    H154969   9.326   7.482   0.076
18364TIP3    H254970   9.303   7.585   0.184
18365TIP3   OH254971   7.929   7.668   0.787
18365TIP3    H154972   7.921   7.628   0.700
18365TIP3    H254973   8.023   7.683   0.798
18366TIP3   OH254974   9.592   7.990   0.948
18366TIP3    H154975   9.660   7.925   0.930
18366TIP3    H254976   9.578   8.033   0.863
18367TIP3   OH254977   9.774   7.781   0.950
18367TIP3    H154978   9.701   7.739   0.995
18367TIP3    H254979   9.850   7.729   0.975
18368TIP3   OH254980   5.981   2.386   7.514
18368TIP3    H154981   6.042   2.363   7.584
18368TIP3    H254982   5.897   2.351   7.543
18369TIP3   OH254983   6.046   2.682   7.978
18369TIP3    H154984   6.093   2.600   7.993
18369TIP3    H254985   6.087   2.719   7.900
18370TIP3   OH254986   9.479   7.481   0.495
18370TIP3    H154987   9.563   7.498   0.454
18370TIP3    H254988   9.490   7.511   0.586
18371TIP3   OH254989   9.545   7.621   0.731
18371TIP3    H154990   9.469   7.647   0.782
18371TIP3    H254991   9.574   7.702   0.688
18372TIP3   OH254992   8.144   7.408   1.485
18372TIP3    H154993   8.239   7.409   1.478
18372TIP3    H254994   8.123   7.319   1.512
18373TIP3   OH254995   0.205   7.237   1.252
18373TIP3    H154996   0.267   7.172   1.221
18373TIP3    H254997   0.171   7.279   1.173
18374TIP3   OH254998   9.433   7.055   0.031
18374TIP3    H154999   9.472   7.041   0.117
18374TIP3    H255000   9.370   6.983   0.022
18375TIP3   OH255001   8.172   7.056   0.773
18375TIP3    H155002   8.233   6.986   0.751
18375TIP3    H255003   8.224   7.137   0.767
18376TIP3   OH255004   8.035   7.300   0.929
18376TIP3    H155005   8.041   7.310   0.834
18376TIP3    H255006   7.959   7.353   0.954
18377TIP3   OH255007   0.062   7.334   1.037
18377TIP3    H155008  -0.023   7.371   1.061
18377TIP3    H255009   0.040   7.253   0.991
18378TIP3   OH255010   6.208   2.340   7.672
18378TIP3    H155011   6.251   2.286   7.606
18378TIP3    H255012   6.261   2.419   7.677
18379TIP3   OH255013   7.954   6.781   0.376
18379TIP3    H155014   7.879   6.764   0.433
18379TIP3    H255015   7.920   6.839   0.308
18380TIP3   OH255016   5.807   3.901   7.949
18380TIP3    H155017   5.858   3.892   7.868
18380TIP3    H255018   5.842   3.980   7.990
18381TIP3   OH255019   8.161   6.842   1.223
18381TIP3    H155020   8.121   6.883   1.300
18381TIP3    H255021   8.148   6.905   1.153
18382TIP3   OH255022   8.236   8.364   1.308
18382TIP3    H155023   8.145   8.347   1.282
18382TIP3    H255024   8.273   8.278   1.327
18383TIP3   OH255025   8.390   8.339   0.878
18383TIP3    H155026   8.303   8.351   0.840
18383TIP3    H255027   8.450   8.378   0.814
18384TIP3   OH255028   8.760   8.608   1.021
18384TIP3    H155029   8.796   8.600   1.110
18384TIP3    H255030   8.824   8.662   0.974
18385TIP3   OH255031   8.945   8.756   0.884
18385TIP3    H155032   8.997   8.704   0.822
18385TIP3    H255033   9.010   8.809   0.931
18386TIP3   OH255034   9.788   7.079   0.956
18386TIP3    H155035   9.702   7.064   0.917
18386TIP3    H255036   9.831   6.994   0.955
18387TIP3   OH255037   8.261   8.599   0.725
18387TIP3    H155038   8.203   8.590   0.800
18387TIP3    H255039   8.239   8.524   0.669
18388TIP3   OH255040   8.693   8.626   0.552
18388TIP3    H155041   8.634   8.636   0.477
18388TIP3    H255042   8.696   8.714   0.591
18389TIP3   OH255043   8.949   8.562   0.624
18389TIP3    H155044   8.858   8.577   0.597
18389TIP3    H255045   9.000   8.621   0.568
18390TIP3   OH255046   9.148   8.723   0.511
18390TIP3    H155047   9.142   8.809   0.470
18390TIP3    H255048   9.175   8.664   0.441
18391TIP3   OH255049   7.931   8.376   0.601
18391TIP3    H155050   7.988   8.379   0.678
18391TIP3    H255051   7.992   8.368   0.527
18392TIP3   OH255052   8.150   8.279   0.462
18392TIP3    H155053   8.161   8.206   0.524
18392TIP3    H255054   8.236   8.321   0.460
18393TIP3   OH255055   8.413   8.365   0.509
18393TIP3    H155056   8.432   8.272   0.494
18393TIP3    H255057   8.471   8.389   0.581
18394TIP3   OH255058   9.479   6.862   0.479
18394TIP3    H155059   9.496   6.935   0.420
18394TIP3    H255060   9.414   6.896   0.541
18395TIP3   OH255061   9.579   7.005   0.261
18395TIP3    H155062   9.649   6.944   0.238
18395TIP3    H255063   9.618   7.091   0.249
18396TIP3   OH255064   8.195   6.737   0.526
18396TIP3    H155065   8.109   6.711   0.492
18396TIP3    H255066   8.241   6.654   0.540
18397TIP3   OH255067   8.009   6.579   0.194
18397TIP3    H155068   8.050   6.632   0.126
18397TIP3    H255069   7.998   6.638   0.268
18398TIP3   OH255070   8.679   6.750   0.450
18398TIP3    H155071   8.720   6.792   0.374
18398TIP3    H255072   8.736   6.772   0.524
18399TIP3   OH255073   9.245   6.847   0.030
18399TIP3    H155074   9.169   6.898   0.059
18399TIP3    H255075   9.231   6.760   0.068
18400TIP3   OH255076   4.432   3.572   8.014
18400TIP3    H155077   4.348   3.539   7.980
18400TIP3    H255078   4.437   3.662   7.984
18401TIP3   OH255079   8.145   6.741   0.009
18401TIP3    H155080   8.195   6.684  -0.050
18401TIP3    H255081   8.211   6.797   0.050
18402TIP3   OH255082   8.623   6.940   0.110
18402TIP3    H155083   8.690   6.888   0.157
18402TIP3    H255084   8.637   7.029   0.140
18403TIP3   OH255085   5.950   3.861   7.712
18403TIP3    H155086   5.945   3.766   7.704
18403TIP3    H255087   5.903   3.894   7.635
18404TIP3   OH255088   8.412   7.055   1.503
18404TIP3    H155089   8.402   6.972   1.550
18404TIP3    H255090   8.501   7.083   1.524
18405TIP3   OH255091   4.547   3.554   7.675
18405TIP3    H155092   4.551   3.566   7.770
18405TIP3    H255093   4.628   3.508   7.654
18406TIP3   OH255094   9.530   7.044   1.367
18406TIP3    H155095   9.544   7.029   1.460
18406TIP3    H255096   9.616   7.074   1.335
18407TIP3   OH255097   9.426   8.617   0.910
18407TIP3    H155098   9.356   8.585   0.853
18407TIP3    H255099   9.414   8.712   0.912
18408TIP3   OH255100   7.440   3.384   7.638
18408TIP3    H155101   7.409   3.471   7.612
18408TIP3    H255102   7.369   3.325   7.612
18409TIP3   OH255103   0.903   7.998   0.063
18409TIP3    H155104   0.956   7.979   0.140
18409TIP3    H255105   0.857   7.915   0.045
18410TIP3   OH255106   0.199   7.853   0.406
18410TIP3    H155107   0.240   7.803   0.476
18410TIP3    H255108   0.272   7.878   0.349
18411TIP3   OH255109   7.708   3.687   7.740
18411TIP3    H155110   7.694   3.620   7.807
18411TIP3    H255111   7.727   3.767   7.789
18412TIP3   OH255112   0.197   8.285   0.089
18412TIP3    H155113   0.178   8.192   0.096
18412TIP3    H255114   0.292   8.289   0.080
18413TIP3   OH255115   6.407   2.870   7.875
18413TIP3    H155116   6.368   2.954   7.899
18413TIP3    H255117   6.336   2.821   7.834
18414TIP3   OH255118   9.756   7.802   0.101
18414TIP3    H155119   9.807   7.725   0.124
18414TIP3    H255120   9.820   7.867   0.074
18415TIP3   OH255121   7.371   4.105   7.757
18415TIP3    H155122   7.393   4.044   7.686
18415TIP3    H255123   7.381   4.054   7.837
18416TIP3   OH255124   0.712   8.218   0.066
18416TIP3    H155125   0.759   8.139   0.039
18416TIP3    H255126   0.781   8.276   0.098
18417TIP3   OH255127   1.732   7.538   0.069
18417TIP3    H155128   1.745   7.621   0.115
18417TIP3    H255129   1.764   7.554  -0.020
18418TIP3   OH255130   1.113   7.703   0.102
18418TIP3    H155131   1.146   7.618   0.130
18418TIP3    H255132   1.078   7.688   0.014
18419TIP3   OH255133   0.473   7.359   0.055
18419TIP3    H155134   0.450   7.433  -0.002
18419TIP3    H255135   0.417   7.288   0.025
18420TIP3   OH255136   7.704   2.847   7.701
18420TIP3    H155137   7.768   2.841   7.772
18420TIP3    H255138   7.753   2.882   7.627
18421TIP3   OH255139   0.101   7.582   0.188
18421TIP3    H155140   0.185   7.562   0.229
18421TIP3    H255141   0.101   7.529   0.108
18422TIP3   OH255142   7.046   3.158   8.010
18422TIP3    H155143   7.140   3.144   8.015
18422TIP3    H255144   7.011   3.076   7.976
18423TIP3   OH255145   1.775   7.750   0.244
18423TIP3    H155146   1.692   7.796   0.235
18423TIP3    H255147   1.812   7.783   0.326
18424TIP3   OH255148   0.448   7.372   0.513
18424TIP3    H155149   0.399   7.406   0.438
18424TIP3    H255150   0.392   7.390   0.589
18425TIP3   OH255151   7.337   3.602   7.502
18425TIP3    H155152   7.295   3.571   7.421
18425TIP3    H255153   7.284   3.678   7.528
18426TIP3   OH255154   0.541   8.144   0.271
18426TIP3    H155155   0.489   8.217   0.305
18426TIP3    H255156   0.591   8.182   0.199
18427TIP3   OH255157   7.861   2.867   7.924
18427TIP3    H155158   7.817   2.847   8.006
18427TIP3    H255159   7.915   2.943   7.943
18428TIP3   OH255160   0.349   7.476   0.276
18428TIP3    H155161   0.404   7.550   0.299
18428TIP3    H255162   0.396   7.433   0.204
18429TIP3   OH255163   0.391   8.349   0.381
18429TIP3    H155164   0.378   8.439   0.351
18429TIP3    H255165   0.313   8.329   0.433
18430TIP3   OH255166   6.299   3.430   7.641
18430TIP3    H155167   6.265   3.448   7.553
18430TIP3    H255168   6.321   3.517   7.675
18431TIP3   OH255169   7.736   3.933   7.881
18431TIP3    H155170   7.648   3.928   7.917
18431TIP3    H255171   7.737   4.017   7.833
18432TIP3   OH255172   1.534   7.418   0.236
18432TIP3    H155173   1.447   7.445   0.207
18432TIP3    H255174   1.593   7.450   0.168
18433TIP3   OH255175   0.793   7.061   0.248
18433TIP3    H155176   0.782   6.968   0.269
18433TIP3    H255177   0.716   7.103   0.286
18434TIP3   OH255178   7.448   3.964   7.529
18434TIP3    H155179   7.502   3.886   7.519
18434TIP3    H255180   7.505   4.036   7.502
18435TIP3   OH255181   7.592   3.737   7.494
18435TIP3    H155182   7.523   3.670   7.488
18435TIP3    H255183   7.642   3.713   7.572
18436TIP3   OH255184   1.444   8.437   0.219
18436TIP3    H155185   1.421   8.365   0.161
18436TIP3    H255186   1.429   8.516   0.166
18437TIP3   OH255187   7.265   3.222   7.492
18437TIP3    H155188   7.181   3.264   7.474
18437TIP3    H255189   7.310   3.221   7.408
18438TIP3   OH255190   7.231   3.035   7.176
18438TIP3    H155191   7.297   3.083   7.227
18438TIP3    H255192   7.279   2.967   7.131
18439TIP3   OH255193   1.612   8.101   0.087
18439TIP3    H155194   1.528   8.147   0.085
18439TIP3    H255195   1.648   8.112  -0.001
18440TIP3   OH255196   7.624   3.312   7.449
18440TIP3    H155197   7.570   3.340   7.523
18440TIP3    H255198   7.708   3.289   7.489
18441TIP3   OH255199   1.312   7.961   0.397
18441TIP3    H155200   1.305   8.045   0.444
18441TIP3    H255201   1.231   7.955   0.347
18442TIP3   OH255202   6.847   3.289   7.855
18442TIP3    H155203   6.811   3.228   7.791
18442TIP3    H255204   6.920   3.241   7.895
18443TIP3   OH255205   6.993   3.715   7.997
18443TIP3    H155206   6.968   3.702   7.905
18443TIP3    H255207   7.081   3.677   8.003
18444TIP3   OH255208   0.411   7.906   0.230
18444TIP3    H155209   0.449   7.870   0.151
18444TIP3    H255210   0.458   7.988   0.244
18445TIP3   OH255211   0.960   8.550   0.005
18445TIP3    H155212   0.950   8.631   0.057
18445TIP3    H255213   0.946   8.480   0.068
18446TIP3   OH255214   0.588   8.441   0.554
18446TIP3    H155215   0.527   8.498   0.600
18446TIP3    H255216   0.533   8.391   0.493
18447TIP3   OH255217   7.454   3.171   7.283
18447TIP3    H155218   7.514   3.230   7.329
18447TIP3    H255219   7.484   3.174   7.192
18448TIP3   OH255220   0.338   7.982   0.709
18448TIP3    H155221   0.343   8.077   0.721
18448TIP3    H255222   0.245   7.964   0.700
18449TIP3   OH255223   7.201   3.843   7.539
18449TIP3    H155224   7.283   3.892   7.544
18449TIP3    H255225   7.141   3.901   7.492
18450TIP3   OH255226   0.378   8.600   0.639
18450TIP3    H155227   0.355   8.612   0.547
18450TIP3    H255228   0.294   8.587   0.683
18451TIP3   OH255229   7.958   2.398   7.343
18451TIP3    H155230   7.884   2.421   7.398
18451TIP3    H255231   7.970   2.474   7.286
18452TIP3   OH255232   6.721   3.129   7.657
18452TIP3    H155233   6.643   3.177   7.628
18452TIP3    H255234   6.690   3.039   7.670
18453TIP3   OH255235   7.791   3.775   6.903
18453TIP3    H155236   7.784   3.868   6.880
18453TIP3    H255237   7.881   3.751   6.880
18454TIP3   OH255238   9.777   8.158   0.591
18454TIP3    H155239   9.707   8.141   0.529
18454TIP3    H255240   9.809   8.071   0.616
18455TIP3   OH255241   9.615   8.355   0.249
18455TIP3    H155242   9.705   8.383   0.268
18455TIP3    H255243   9.561   8.431   0.272
18456TIP3   OH255244   1.674   8.811   0.291
18456TIP3    H155245   1.680   8.716   0.301
18456TIP3    H255246   1.594   8.835   0.337
18457TIP3   OH255247   0.776   8.589   0.418
18457TIP3    H155248   0.766   8.680   0.448
18457TIP3    H255249   0.709   8.540   0.466
18458TIP3   OH255250   7.091   4.063   7.371
18458TIP3    H155251   7.045   4.042   7.289
18458TIP3    H255252   7.053   4.145   7.400
18459TIP3   OH255253   6.526   3.922   7.748
18459TIP3    H155254   6.569   3.913   7.833
18459TIP3    H255255   6.475   3.841   7.738
18460TIP3   OH255256   7.291   4.001   6.995
18460TIP3    H155257   7.342   3.927   6.960
18460TIP3    H255258   7.327   4.014   7.083
18461TIP3   OH255259   7.345   4.042   7.265
18461TIP3    H155260   7.259   4.045   7.307
18461TIP3    H255261   7.402   4.003   7.331
18462TIP3   OH255262   1.557   7.930   0.553
18462TIP3    H155263   1.472   7.940   0.509
18462TIP3    H255264   1.578   7.837   0.544
18463TIP3   OH255265   0.175   8.347   0.554
18463TIP3    H155266   0.226   8.333   0.633
18463TIP3    H255267   0.103   8.284   0.560
18464TIP3   OH255268   0.556   7.154   0.373
18464TIP3    H155269   0.474   7.120   0.338
18464TIP3    H255270   0.532   7.235   0.418
18465TIP3   OH255271   1.091   7.278   0.567
18465TIP3    H155272   1.162   7.251   0.626
18465TIP3    H255273   1.012   7.263   0.617
18466TIP3   OH255274   1.327   7.696   0.488
18466TIP3    H155275   1.275   7.689   0.568
18466TIP3    H255276   1.309   7.784   0.455
18467TIP3   OH255277   7.532   3.141   7.019
18467TIP3    H155278   7.486   3.149   6.935
18467TIP3    H255279   7.614   3.189   7.006
18468TIP3   OH255280   7.244   2.568   7.343
18468TIP3    H155281   7.204   2.577   7.430
18468TIP3    H255282   7.206   2.487   7.308
18469TIP3   OH255283   0.498   7.687   0.379
18469TIP3    H155284   0.452   7.693   0.463
18469TIP3    H255285   0.474   7.768   0.333
18470TIP3   OH255286   6.906   2.943   7.903
18470TIP3    H155287   6.817   2.920   7.928
18470TIP3    H255288   6.916   2.912   7.813
18471TIP3   OH255289   7.387   3.017   7.629
18471TIP3    H155290   7.340   3.090   7.589
18471TIP3    H255291   7.445   2.985   7.560
18472TIP3   OH255292   1.046   7.909   0.705
18472TIP3    H155293   1.017   7.844   0.768
18472TIP3    H255294   1.138   7.924   0.725
18473TIP3   OH255295   7.555   3.031   7.851
18473TIP3    H155296   7.486   3.052   7.788
18473TIP3    H255297   7.603   2.958   7.812
18474TIP3   OH255298   0.337   7.705   0.601
18474TIP3    H155299   0.342   7.771   0.670
18474TIP3    H255300   0.315   7.624   0.647
18475TIP3   OH255301   6.911   2.553   7.321
18475TIP3    H155302   6.900   2.559   7.416
18475TIP3    H255303   6.834   2.596   7.285
18476TIP3   OH255304   9.720   7.221   0.179
18476TIP3    H155305   9.796   7.256   0.225
18476TIP3    H255306   9.753   7.197   0.093
18477TIP3   OH255307   6.357   2.574   7.689
18477TIP3    H155308   6.405   2.610   7.614
18477TIP3    H255309   6.292   2.641   7.709
18478TIP3   OH255310   1.065   7.905   0.275
18478TIP3    H155311   1.089   7.838   0.211
18478TIP3    H255312   1.021   7.857   0.346
18479TIP3   OH255313   7.274   2.731   7.952
18479TIP3    H155314   7.195   2.730   8.005
18479TIP3    H255315   7.346   2.724   8.015
18480TIP3   OH255316   6.666   2.819   7.959
18480TIP3    H155317   6.578   2.825   7.921
18480TIP3    H255318   6.693   2.729   7.942
18481TIP3   OH255319   6.922   2.823   7.657
18481TIP3    H155320   7.017   2.832   7.647
18481TIP3    H255321   6.886   2.839   7.570
18482TIP3   OH255322   1.186   7.441   0.158
18482TIP3    H155323   1.169   7.460   0.250
18482TIP3    H255324   1.117   7.380   0.133
18483TIP3   OH255325   6.813   2.844   7.408
18483TIP3    H155326   6.749   2.795   7.357
18483TIP3    H255327   6.866   2.890   7.343
18484TIP3   OH255328   1.386   9.148   0.376
18484TIP3    H155329   1.383   9.162   0.281
18484TIP3    H255330   1.465   9.195   0.405
18485TIP3   OH255331   0.324   8.254   0.787
18485TIP3    H155332   0.405   8.274   0.834
18485TIP3    H255333   0.255   8.265   0.853
18486TIP3   OH255334   0.787   7.728   0.056
18486TIP3    H155335   0.854   7.680   0.008
18486TIP3    H255336   0.786   7.688   0.143
18487TIP3   OH255337   6.809   2.570   7.942
18487TIP3    H155338   6.781   2.494   7.993
18487TIP3    H255339   6.823   2.535   7.854
18488TIP3   OH255340   0.764   7.633   0.321
18488TIP3    H155341   0.677   7.666   0.345
18488TIP3    H255342   0.824   7.684   0.375
18489TIP3   OH255343   7.025   3.353   7.438
18489TIP3    H155344   6.950   3.300   7.413
18489TIP3    H255345   6.997   3.397   7.519
18490TIP3   OH255346   1.380   8.239   0.039
18490TIP3    H155347   1.417   8.287  -0.035
18490TIP3    H255348   1.301   8.197   0.004
18491TIP3   OH255349   7.495   2.675   7.351
18491TIP3    H155350   7.402   2.652   7.346
18491TIP3    H255351   7.496   2.770   7.361
18492TIP3   OH255352   0.905   8.321   0.458
18492TIP3    H155353   0.956   8.309   0.538
18492TIP3    H255354   0.866   8.408   0.468
18493TIP3   OH255355   7.550   2.942   7.414
18493TIP3    H155356   7.646   2.947   7.424
18493TIP3    H255357   7.528   3.019   7.362
18494TIP3   OH255358   0.183   7.996   0.081
18494TIP3    H155359   0.220   7.976  -0.005
18494TIP3    H255360   0.249   7.966   0.143
18495TIP3   OH255361   7.178   3.516   7.283
18495TIP3    H155362   7.130   3.599   7.279
18495TIP3    H255363   7.122   3.459   7.335
18496TIP3   OH255364   0.065   7.919   0.720
18496TIP3    H155365   0.062   7.890   0.811
18496TIP3    H255366  -0.011   7.877   0.680
18497TIP3   OH255367   0.813   8.063   0.742
18497TIP3    H155368   0.743   8.003   0.715
18497TIP3    H255369   0.894   8.023   0.712
18498TIP3   OH255370   1.046   8.615   0.342
18498TIP3    H155371   0.951   8.600   0.345
18498TIP3    H255372   1.067   8.650   0.428
18499TIP3   OH255373   7.961   3.030   7.229
18499TIP3    H155374   7.903   2.985   7.167
18499TIP3    H255375   7.968   3.119   7.194
18500TIP3   OH255376   1.687   8.534   0.305
18500TIP3    H155377   1.594   8.514   0.303
18500TIP3    H255378   1.722   8.499   0.223
18501TIP3   OH255379   7.706   3.846   7.165
18501TIP3    H155380   7.680   3.775   7.223
18501TIP3    H255381   7.728   3.803   7.082
18502TIP3   OH255382   7.688   3.482   7.938
18502TIP3    H155383   7.598   3.460   7.964
18502TIP3    H255384   7.721   3.401   7.899
18503TIP3   OH255385   6.845   3.718   7.757
18503TIP3    H155386   6.841   3.793   7.698
18503TIP3    H255387   6.756   3.710   7.791
18504TIP3   OH255388   6.402   2.995   7.480
18504TIP3    H155389   6.443   3.079   7.500
18504TIP3    H255390   6.319   2.997   7.528
18505TIP3   OH255391   6.921   3.473   7.657
18505TIP3    H155392   6.906   3.562   7.689
18505TIP3    H255393   6.896   3.416   7.730
18506TIP3   OH255394   0.596   8.660   0.209
18506TIP3    H155395   0.631   8.734   0.159
18506TIP3    H255396   0.670   8.627   0.259
18507TIP3   OH255397   6.762   3.939   7.605
18507TIP3    H155398   6.674   3.945   7.644
18507TIP3    H255399   6.797   4.028   7.612
18508TIP3   OH255400   0.941   8.330   0.183
18508TIP3    H155401   0.927   8.325   0.278
18508TIP3    H255402   1.021   8.281   0.168
18509TIP3   OH255403   7.475   3.585   7.052
18509TIP3    H155404   7.524   3.560   7.130
18509TIP3    H255405   7.392   3.538   7.060
18510TIP3   OH255406   1.202   8.817   0.219
18510TIP3    H155407   1.132   8.756   0.241
18510TIP3    H255408   1.165   8.871   0.149
18511TIP3   OH255409   7.780   4.046   6.856
18511TIP3    H155410   7.792   4.102   6.779
18511TIP3    H255411   7.712   4.090   6.907
18512TIP3   OH255412   0.274   7.453   0.717
18512TIP3    H155413   0.179   7.465   0.719
18512TIP3    H255414   0.293   7.403   0.797
18513TIP3   OH255415   7.648   3.505   7.249
18513TIP3    H155416   7.633   3.447   7.323
18513TIP3    H255417   7.744   3.512   7.242
18514TIP3   OH255418   0.024   8.556   0.372
18514TIP3    H155419   0.077   8.498   0.425
18514TIP3    H255420   0.039   8.643   0.409
18515TIP3   OH255421   6.823   3.545   7.069
18515TIP3    H155422   6.833   3.454   7.042
18515TIP3    H255423   6.809   3.541   7.163
18516TIP3   OH255424   6.764   3.564   7.341
18516TIP3    H155425   6.824   3.539   7.412
18516TIP3    H255426   6.762   3.660   7.344
18517TIP3   OH255427   6.495   3.251   7.551
18517TIP3    H155428   6.430   3.300   7.602
18517TIP3    H255429   6.514   3.307   7.476
18518TIP3   OH255430   1.131   7.506   0.417
18518TIP3    H155431   1.207   7.550   0.455
18518TIP3    H255432   1.116   7.430   0.474
18519TIP3   OH255433   7.556   2.627   7.618
18519TIP3    H155434   7.534   2.644   7.526
18519TIP3    H255435   7.599   2.707   7.648
18520TIP3   OH255436   7.034   3.746   7.274
18520TIP3    H155437   6.950   3.770   7.311
18520TIP3    H255438   7.059   3.820   7.219
18521TIP3   OH255439   7.202   2.826   7.701
18521TIP3    H155440   7.263   2.895   7.675
18521TIP3    H255441   7.226   2.806   7.791
18522TIP3   OH255442   0.969   7.743   0.477
18522TIP3    H155443   0.996   7.788   0.558
18522TIP3    H255444   1.019   7.662   0.477
18523TIP3   OH255445   7.366   2.522   7.789
18523TIP3    H155446   7.341   2.599   7.840
18523TIP3    H255447   7.436   2.552   7.731
18524TIP3   OH255448   6.786   3.838   7.352
18524TIP3    H155449   6.766   3.910   7.293
18524TIP3    H255450   6.776   3.874   7.440
18525TIP3   OH255451   6.878   2.549   7.601
18525TIP3    H155452   6.865   2.640   7.627
18525TIP3    H255453   6.973   2.535   7.607
18526TIP3   OH255454   1.596   7.661   0.483
18526TIP3    H155455   1.501   7.657   0.491
18526TIP3    H255456   1.615   7.627   0.395
18527TIP3   OH255457   7.777   3.223   7.849
18527TIP3    H155458   7.701   3.167   7.859
18527TIP3    H255459   7.844   3.183   7.905
18528TIP3   OH255460   6.523   3.425   7.333
18528TIP3    H155461   6.595   3.488   7.341
18528TIP3    H255462   6.553   3.363   7.267
18529TIP3   OH255463   6.437   2.718   7.472
18529TIP3    H155464   6.435   2.813   7.472
18529TIP3    H255465   6.374   2.693   7.404
18530TIP3   OH255466   7.763   4.198   7.794
18530TIP3    H155467   7.722   4.252   7.727
18530TIP3    H255468   7.857   4.209   7.780
18531TIP3   OH255469   0.298   7.067   0.323
18531TIP3    H155470   0.267   7.036   0.238
18531TIP3    H255471   0.289   6.991   0.381
18532TIP3   OH255472   6.347   3.703   7.719
18532TIP3    H155473   6.300   3.737   7.795
18532TIP3    H255474   6.305   3.744   7.643
18533TIP3   OH255475   0.025   8.857   0.792
18533TIP3    H155476   0.107   8.861   0.841
18533TIP3    H255477   0.010   8.764   0.777
18534TIP3   OH255478   0.485   8.761   0.834
18534TIP3    H155479   0.577   8.735   0.842
18534TIP3    H255480   0.451   8.708   0.762
18535TIP3   OH255481   6.975   3.747   6.956
18535TIP3    H155482   6.928   3.677   7.002
18535TIP3    H255483   7.050   3.703   6.916
18536TIP3   OH255484   1.098   8.709   0.594
18536TIP3    H155485   1.114   8.638   0.657
18536TIP3    H255486   1.173   8.768   0.605
18537TIP3   OH255487   7.418   3.789   6.878
18537TIP3    H155488   7.454   3.726   6.940
18537TIP3    H255489   7.476   3.783   6.802
18538TIP3   OH255490   0.120   8.264   0.979
18538TIP3    H155491   0.137   8.170   0.992
18538TIP3    H255492   0.035   8.268   0.936
18539TIP3   OH255493   6.645   3.239   7.175
18539TIP3    H155494   6.694   3.213   7.253
18539TIP3    H255495   6.711   3.253   7.107
18540TIP3   OH255496   0.743   8.338   0.758
18540TIP3    H155497   0.699   8.359   0.675
18540TIP3    H255498   0.780   8.251   0.744
18541TIP3   OH255499   7.225   3.459   7.019
18541TIP3    H155500   7.199   3.469   7.110
18541TIP3    H255501   7.203   3.369   6.997
18542TIP3   OH255502   1.213   8.389   0.369
18542TIP3    H155503   1.292   8.416   0.322
18542TIP3    H255504   1.151   8.461   0.354
18543TIP3   OH255505   0.231   8.008   0.990
18543TIP3    H155506   0.302   7.987   0.929
18543TIP3    H255507   0.275   8.024   1.073
18544TIP3   OH255508   6.814   3.180   7.390
18544TIP3    H155509   6.792   3.149   7.478
18544TIP3    H255510   6.863   3.108   7.350
18545TIP3   OH255511   0.605   7.890   0.651
18545TIP3    H155512   0.517   7.926   0.662
18545TIP3    H255513   0.632   7.919   0.564
18546TIP3   OH255514   6.960   3.000   7.236
18546TIP3    H155515   6.929   3.003   7.146
18546TIP3    H255516   7.055   3.009   7.229
18547TIP3   OH255517   1.093   8.257   0.718
18547TIP3    H155518   1.163   8.222   0.663
18547TIP3    H255519   1.095   8.203   0.797
18548TIP3   OH255520   7.749   3.282   6.920
18548TIP3    H155521   7.738   3.243   6.834
18548TIP3    H255522   7.727   3.374   6.908
18549TIP3   OH255523   0.703   7.653   0.749
18549TIP3    H155524   0.704   7.585   0.681
18549TIP3    H255525   0.668   7.730   0.704
18550TIP3   OH255526   0.708   7.458   0.544
18550TIP3    H155527   0.735   7.496   0.460
18550TIP3    H255528   0.617   7.432   0.530
18551TIP3   OH255529   0.710   7.987   0.420
18551TIP3    H155530   0.798   8.024   0.409
18551TIP3    H255531   0.653   8.043   0.367
18552TIP3   OH255532   1.314   7.934   0.809
18552TIP3    H155533   1.353   7.847   0.819
18552TIP3    H255534   1.388   7.994   0.805
18553TIP3   OH255535   1.325   8.207   0.535
18553TIP3    H155536   1.274   8.270   0.484
18553TIP3    H255537   1.415   8.218   0.504
18554TIP3   OH255538   0.605   7.719   1.002
18554TIP3    H155539   0.530   7.663   1.021
18554TIP3    H255540   0.626   7.700   0.910
18555TIP3   OH255541   0.826   7.230   0.651
18555TIP3    H155542   0.787   7.309   0.614
18555TIP3    H255543   0.760   7.162   0.637
18556TIP3   OH255544   0.951   7.699   0.858
18556TIP3    H155545   0.937   7.682   0.951
18556TIP3    H255546   0.867   7.680   0.817
18557TIP3   OH255547   1.170   7.636   0.701
18557TIP3    H155548   1.093   7.644   0.757
18557TIP3    H255549   1.244   7.629   0.762
18558TIP3   OH255550   1.385   7.631   0.865
18558TIP3    H155551   1.404   7.538   0.863
18558TIP3    H255552   1.427   7.663   0.945
18559TIP3   OH255553   0.424   7.511   1.062
18559TIP3    H155554   0.426   7.423   1.025
18559TIP3    H255555   0.463   7.501   1.149
18560TIP3   OH255556   0.895   7.201   0.913
18560TIP3    H155557   0.958   7.130   0.898
18560TIP3    H255558   0.859   7.220   0.826
18561TIP3   OH255559   1.017   7.409   1.049
18561TIP3    H155560   0.978   7.343   0.991
18561TIP3    H255561   0.949   7.475   1.059
18562TIP3   OH255562   6.787   4.052   7.173
18562TIP3    H155563   6.874   4.027   7.144
18562TIP3    H255564   6.747   4.095   7.098
18563TIP3   OH255565   6.250   3.433   7.351
18563TIP3    H155566   6.345   3.442   7.348
18563TIP3    H255567   6.232   3.349   7.309
18564TIP3   OH255568   6.153   4.013   7.813
18564TIP3    H155569   6.088   3.961   7.766
18564TIP3    H255570   6.196   3.951   7.871
18565TIP3   OH255571   9.562   8.461  -0.025
18565TIP3    H155572   9.551   8.391   0.039
18565TIP3    H255573   9.615   8.527   0.021
18566TIP3   OH255574   8.036   4.242   7.786
18566TIP3    H155575   8.057   4.272   7.875
18566TIP3    H255576   8.094   4.292   7.730
18567TIP3   OH255577   1.518   8.899   0.065
18567TIP3    H155578   1.472   8.815   0.060
18567TIP3    H255579   1.588   8.884   0.129
18568TIP3   OH255580   1.562   8.606   0.615
18568TIP3    H155581   1.489   8.615   0.676
18568TIP3    H255582   1.610   8.688   0.623
18569TIP3   OH255583   7.928   3.497   7.246
18569TIP3    H155584   7.985   3.569   7.216
18569TIP3    H255585   7.976   3.459   7.320
18570TIP3   OH255586   8.060   3.353   7.445
18570TIP3    H155587   7.993   3.318   7.503
18570TIP3    H255588   8.125   3.392   7.504
18571TIP3   OH255589   8.101   3.754   7.882
18571TIP3    H155590   8.151   3.685   7.839
18571TIP3    H255591   8.105   3.828   7.822
18572TIP3   OH255592   1.376   8.659   0.071
18572TIP3    H155593   1.310   8.707   0.121
18572TIP3    H255594   1.327   8.620  -0.001
18573TIP3   OH255595   7.962   3.270   7.094
18573TIP3    H155596   7.889   3.269   7.031
18573TIP3    H255597   7.948   3.349   7.145
18574TIP3   OH255598   7.807   2.914   7.034
18574TIP3    H155599   7.759   2.951   6.960
18574TIP3    H255600   7.803   2.820   7.022
18575TIP3   OH255601   7.853   3.218   7.581
18575TIP3    H155602   7.857   3.123   7.567
18575TIP3    H255603   7.832   3.227   7.674
18576TIP3   OH255604   9.735   7.891   0.358
18576TIP3    H155605   9.725   7.862   0.268
18576TIP3    H255606   9.830   7.889   0.374
18577TIP3   OH255607   1.576   8.251   0.428
18577TIP3    H155608   1.653   8.196   0.411
18577TIP3    H255609   1.574   8.312   0.354
18578TIP3   OH255610   1.773   8.054   0.437
18578TIP3    H155611   1.695   8.023   0.483
18578TIP3    H255612   1.838   7.985   0.452
18579TIP3   OH255613   7.777   2.641   7.001
18579TIP3    H155614   7.841   2.618   7.069
18579TIP3    H255615   7.694   2.608   7.033
18580TIP3   OH255616   7.843   2.939   7.470
18580TIP3    H155617   7.889   2.856   7.482
18580TIP3    H255618   7.882   2.978   7.392
18581TIP3   OH255619   1.458   7.723  -0.009
18581TIP3    H155620   1.540   7.741  -0.057
18581TIP3    H255621   1.471   7.765   0.076
18582TIP3   OH255622   1.526   7.875   0.220
18582TIP3    H155623   1.454   7.903   0.275
18582TIP3    H255624   1.556   7.954   0.177
18583TIP3   OH255625   0.165   7.593   1.016
18583TIP3    H155626   0.259   7.582   1.028
18583TIP3    H255627   0.127   7.510   1.044
18584TIP3   OH255628   7.961   2.690   7.521
18584TIP3    H155629   8.006   2.676   7.604
18584TIP3    H255630   7.898   2.618   7.515
18585TIP3   OH255631   0.139   7.294   0.337
18585TIP3    H155632   0.191   7.213   0.343
18585TIP3    H255633   0.203   7.362   0.317
18586TIP3   OH255634   9.727   7.564   0.408
18586TIP3    H155635   9.775   7.549   0.327
18586TIP3    H255636   9.749   7.653   0.433
18587TIP3   OH255637   1.852   7.578   0.561
18587TIP3    H155638   1.767   7.619   0.573
18587TIP3    H255639   1.832   7.496   0.514
18588TIP3   OH255640   8.003   2.597   7.159
18588TIP3    H155641   8.054   2.538   7.104
18588TIP3    H255642   8.054   2.678   7.163
18589TIP3   OH255643   6.436   2.452   7.919
18589TIP3    H155644   6.351   2.436   7.960
18589TIP3    H255645   6.416   2.501   7.839
18590TIP3   OH255646   7.588   4.171   7.430
18590TIP3    H155647   7.642   4.156   7.353
18590TIP3    H255648   7.634   4.239   7.479
18591TIP3   OH255649   0.126   7.105   0.713
18591TIP3    H155650   0.075   7.107   0.794
18591TIP3    H255651   0.077   7.161   0.652
18592TIP3   OH255652   0.152   8.579   0.802
18592TIP3    H155653   0.058   8.559   0.795
18592TIP3    H255654   0.172   8.568   0.894
18593TIP3   OH255655   0.367   8.627   0.358
18593TIP3    H155656   0.317   8.702   0.327
18593TIP3    H255657   0.452   8.634   0.314
18594TIP3   OH255658   0.757   8.855   0.496
18594TIP3    H155659   0.795   8.849   0.584
18594TIP3    H255660   0.819   8.908   0.447
18595TIP3   OH255661   0.948   9.006   0.367
18595TIP3    H155662   1.006   8.952   0.314
18595TIP3    H255663   1.007   9.062   0.419
18596TIP3   OH255664   1.724   7.367   0.437
18596TIP3    H155665   1.650   7.375   0.377
18596TIP3    H255666   1.747   7.274   0.434
18597TIP3   OH255667   0.027   8.858   0.407
18597TIP3    H155668  -0.064   8.876   0.384
18597TIP3    H255669   0.049   8.926   0.471
18598TIP3   OH255670   0.257   8.858   0.256
18598TIP3    H155671   0.174   8.860   0.303
18598TIP3    H255672   0.235   8.880   0.166
18599TIP3   OH255673   0.669   8.873   0.048
18599TIP3    H155674   0.597   8.883  -0.014
18599TIP3    H255675   0.678   8.960   0.088
18600TIP3   OH255676   0.932   8.811   0.097
18600TIP3    H155677   0.841   8.830   0.076
18600TIP3    H255678   0.983   8.876   0.048
18601TIP3   OH255679   7.667   4.358   7.997
18601TIP3    H155680   7.667   4.446   7.957
18601TIP3    H255681   7.698   4.301   7.927
18602TIP3   OH255682   9.737   8.639   0.121
18602TIP3    H155683   9.763   8.615   0.210
18602TIP3    H255684   9.808   8.607   0.065
18603TIP3   OH255685   6.674   3.908   7.981
18603TIP3    H155686   6.686   3.823   8.024
18603TIP3    H255687   6.760   3.949   7.985
18604TIP3   OH255688   0.409   8.612   0.006
18604TIP3    H155689   0.429   8.519  -0.011
18604TIP3    H255690   0.464   8.635   0.081
18605TIP3   OH255691   0.966   7.262   0.096
18605TIP3    H155692   0.925   7.191   0.146
18605TIP3    H255693   1.033   7.220   0.043
18606TIP3   OH255694   7.993   2.564   7.980
18606TIP3    H155695   8.032   2.614   7.909
18606TIP3    H255696   7.901   2.589   7.980
18607TIP3   OH255697   8.115   2.636   7.745
18607TIP3    H155698   8.183   2.575   7.716
18607TIP3    H255699   8.154   2.723   7.733
18608TIP3   OH255700   0.206   6.964   0.086
18608TIP3    H155701   0.116   6.933   0.099
18608TIP3    H255702   0.257   6.884   0.075
18609TIP3   OH255703   6.577   2.260   7.758
18609TIP3    H155704   6.597   2.305   7.676
18609TIP3    H255705   6.535   2.326   7.813
18610TIP3   OH255706   7.226   2.378   7.988
18610TIP3    H155707   7.271   2.426   7.919
18610TIP3    H255708   7.265   2.411   8.069
18611TIP3   OH255709   7.707   2.523   7.962
18611TIP3    H155710   7.719   2.492   7.872
18611TIP3    H255711   7.717   2.446   8.017
18612TIP3   OH255712   7.776   2.479   7.533
18612TIP3    H155713   7.697   2.526   7.557
18612TIP3    H255714   7.765   2.391   7.570
18613TIP3   OH255715   6.233   3.821   7.497
18613TIP3    H155716   6.148   3.789   7.465
18613TIP3    H255717   6.237   3.912   7.469
18614TIP3   OH255718   6.675   2.374   7.510
18614TIP3    H155719   6.722   2.312   7.454
18614TIP3    H255720   6.743   2.432   7.544
18615TIP3   OH255721   7.153   2.575   7.605
18615TIP3    H155722   7.212   2.522   7.659
18615TIP3    H255723   7.168   2.665   7.633
18616TIP3   OH255724   7.038   3.969   7.100
18616TIP3    H155725   7.122   3.996   7.062
18616TIP3    H255726   7.008   3.898   7.044
18617TIP3   OH255727   7.738   4.115   7.204
18617TIP3    H155728   7.733   4.020   7.196
18617TIP3    H255729   7.697   4.148   7.124
18618TIP3   OH255730   0.435   7.242   0.969
18618TIP3    H155731   0.401   7.178   1.031
18618TIP3    H255732   0.527   7.252   0.992
18619TIP3   OH255733   0.682   7.255   1.092
18619TIP3    H155734   0.759   7.233   1.040
18619TIP3    H255735   0.678   7.186   1.159
18620TIP3   OH255736   6.345   3.807   7.158
18620TIP3    H155737   6.343   3.812   7.254
18620TIP3    H255738   6.427   3.761   7.138
18621TIP3   OH255739   1.451   7.361   0.882
18621TIP3    H155740   1.480   7.334   0.969
18621TIP3    H255741   1.532   7.374   0.833
18622TIP3   OH255742   1.421   8.875   0.382
18622TIP3    H155743   1.348   8.845   0.329
18622TIP3    H255744   1.410   8.970   0.388
18623TIP3   OH255745   9.206   3.635   7.151
18623TIP3    H155746   9.183   3.724   7.123
18623TIP3    H255747   9.136   3.580   7.117
18624TIP3   OH255748   9.211   3.634   7.541
18624TIP3    H155749   9.254   3.619   7.625
18624TIP3    H255750   9.169   3.551   7.519
18625TIP3   OH255751   8.525   3.494   7.886
18625TIP3    H155752   8.566   3.446   7.957
18625TIP3    H255753   8.598   3.522   7.830
18626TIP3   OH255754   9.497   3.941   7.214
18626TIP3    H155755   9.476   3.875   7.280
18626TIP3    H255756   9.518   4.020   7.264
18627TIP3   OH255757   8.518   3.918   7.577
18627TIP3    H155758   8.500   3.824   7.583
18627TIP3    H255759   8.614   3.923   7.569
18628TIP3   OH255760   8.202   3.122   7.364
18628TIP3    H155761   8.165   3.208   7.388
18628TIP3    H255762   8.129   3.076   7.323
18629TIP3   OH255763   8.285   3.443   7.588
18629TIP3    H155764   8.336   3.366   7.612
18629TIP3    H255765   8.351   3.510   7.566
18630TIP3   OH255766   9.165   4.363   7.242
18630TIP3    H155767   9.189   4.302   7.173
18630TIP3    H255768   9.177   4.313   7.323
18631TIP3   OH255769   9.031   3.856   7.547
18631TIP3    H155770   9.076   3.775   7.521
18631TIP3    H255771   9.101   3.915   7.574
18632TIP3   OH255772   9.427   3.354   7.597
18632TIP3    H155773   9.460   3.269   7.627
18632TIP3    H255774   9.385   3.336   7.514
18633TIP3   OH255775   8.799   2.996   7.543
18633TIP3    H155776   8.779   3.071   7.486
18633TIP3    H255777   8.744   2.926   7.510
18634TIP3   OH255778   9.483   3.099   7.217
18634TIP3    H155779   9.551   3.092   7.285
18634TIP3    H255780   9.529   3.137   7.142
18635TIP3   OH255781   8.420   3.218   7.678
18635TIP3    H155782   8.505   3.204   7.719
18635TIP3    H255783   8.423   3.167   7.597
18636TIP3   OH255784   8.838   3.416   7.494
18636TIP3    H155785   8.932   3.401   7.498
18636TIP3    H255786   8.803   3.333   7.459
18637TIP3   OH255787   8.765   3.016   7.999
18637TIP3    H155788   8.716   3.053   7.926
18637TIP3    H255789   8.709   3.032   8.076
18638TIP3   OH255790   9.117   3.852   7.005
18638TIP3    H155791   9.082   3.827   6.920
18638TIP3    H255792   9.071   3.933   7.027
18639TIP3   OH255793   8.873   3.779   7.763
18639TIP3    H155794   8.823   3.852   7.800
18639TIP3    H255795   8.923   3.819   7.691
18640TIP3   OH255796   9.654   3.098   7.432
18640TIP3    H155797   9.603   3.094   7.513
18640TIP3    H255798   9.713   3.173   7.445
18641TIP3   OH255799   8.670   3.116   7.761
18641TIP3    H155800   8.726   3.191   7.782
18641TIP3    H255801   8.716   3.071   7.690
18642TIP3   OH255802   8.722   3.985   7.873
18642TIP3    H155803   8.711   4.075   7.842
18642TIP3    H255804   8.642   3.965   7.922
18643TIP3   OH255805   8.098   3.688   7.129
18643TIP3    H155806   8.065   3.705   7.041
18643TIP3    H255807   8.119   3.775   7.164
18644TIP3   OH255808   9.529   4.184   7.363
18644TIP3    H155809   9.440   4.178   7.398
18644TIP3    H255810   9.531   4.267   7.316
18645TIP3   OH255811   9.095   2.731   7.697
18645TIP3    H155812   9.096   2.644   7.738
18645TIP3    H255813   9.023   2.777   7.740
18646TIP3   OH255814   9.248   4.223   7.016
18646TIP3    H155815   9.299   4.143   7.004
18646TIP3    H255816   9.308   4.294   6.993
18647TIP3   OH255817   9.398   4.002   6.960
18647TIP3    H155818   9.354   3.922   6.930
18647TIP3    H255819   9.438   3.978   7.043
18648TIP3   OH255820   9.729   4.063   7.725
18648TIP3    H155821   9.715   3.989   7.665
18648TIP3    H255822   9.722   4.141   7.669
18649TIP3   OH255823   9.043   3.477   6.986
18649TIP3    H155824   8.962   3.524   6.965
18649TIP3    H255825   9.087   3.466   6.902
18650TIP3   OH255826   9.031   3.245   6.667
18650TIP3    H155827   9.091   3.300   6.717
18650TIP3    H255828   9.088   3.189   6.614
18651TIP3   OH255829   0.101   3.688   7.463
18651TIP3    H155830   0.033   3.696   7.530
18651TIP3    H255831   0.133   3.777   7.450
18652TIP3   OH255832   9.376   3.556   6.954
18652TIP3    H155833   9.326   3.585   7.030
18652TIP3    H255834   9.461   3.529   6.990
18653TIP3   OH255835   9.605   3.582   7.898
18653TIP3    H155836   9.637   3.668   7.924
18653TIP3    H255837   9.519   3.599   7.860
18654TIP3   OH255838   8.640   3.546   7.342
18654TIP3    H155839   8.606   3.485   7.276
18654TIP3    H255840   8.714   3.500   7.382
18655TIP3   OH255841   8.781   3.970   7.486
18655TIP3    H155842   8.757   3.958   7.394
18655TIP3    H255843   8.868   3.932   7.494
18656TIP3   OH255844   8.737   3.548   7.714
18656TIP3    H155845   8.776   3.511   7.634
18656TIP3    H255846   8.786   3.628   7.730
18657TIP3   OH255847   9.284   4.184   7.481
18657TIP3    H155848   9.273   4.262   7.535
18657TIP3    H255849   9.272   4.111   7.542
18658TIP3   OH255850   2.390   8.694   0.044
18658TIP3    H155851   2.329   8.751   0.090
18658TIP3    H255852   2.335   8.644  -0.017
18659TIP3   OH255853   9.224   3.414   6.779
18659TIP3    H155854   9.282   3.472   6.829
18659TIP3    H255855   9.243   3.435   6.688
18660TIP3   OH255856   2.130   8.241   0.176
18660TIP3    H155857   2.137   8.333   0.203
18660TIP3    H255858   2.036   8.224   0.176
18661TIP3   OH255859   8.997   4.102   7.030
18661TIP3    H155860   9.079   4.151   7.034
18661TIP3    H255861   8.937   4.160   6.983
18662TIP3   OH255862   2.177   8.851   0.121
18662TIP3    H155863   2.154   8.865   0.029
18662TIP3    H255864   2.093   8.841   0.166
18663TIP3   OH255865   9.793   2.658   6.874
18663TIP3    H155866   9.701   2.670   6.897
18663TIP3    H255867   9.806   2.711   6.796
18664TIP3   OH255868   8.520   3.386   7.141
18664TIP3    H155869   8.443   3.436   7.112
18664TIP3    H255870   8.486   3.297   7.155
18665TIP3   OH255871   9.510   4.069   6.400
18665TIP3    H155872   9.535   4.157   6.371
18665TIP3    H255873   9.593   4.026   6.421
18666TIP3   OH255874   1.769   8.415   0.074
18666TIP3    H155875   1.699   8.397   0.011
18666TIP3    H255876   1.804   8.329   0.097
18667TIP3   OH255877   8.150   3.987   7.732
18667TIP3    H155878   8.242   4.010   7.745
18667TIP3    H255879   8.101   4.065   7.761
18668TIP3   OH255880   0.163   4.424   7.787
18668TIP3    H155881   0.163   4.329   7.799
18668TIP3    H255882   0.080   4.453   7.825
18669TIP3   OH255883   9.099   4.232   7.905
18669TIP3    H155884   9.092   4.323   7.935
18669TIP3    H255885   9.036   4.184   7.958
18670TIP3   OH255886   8.879   4.318   6.865
18670TIP3    H155887   8.831   4.295   6.786
18670TIP3    H255888   8.841   4.401   6.893
18671TIP3   OH255889   8.318   4.181   7.237
18671TIP3    H155890   8.364   4.171   7.321
18671TIP3    H255891   8.270   4.099   7.226
18672TIP3   OH255892   9.080   4.285   6.496
18672TIP3    H155893   9.119   4.203   6.467
18672TIP3    H255894   9.111   4.297   6.586
18673TIP3   OH255895   9.134   4.302   6.768
18673TIP3    H155896   9.045   4.302   6.803
18673TIP3    H255897   9.187   4.265   6.838
18674TIP3   OH255898   1.963   8.608   0.034
18674TIP3    H155899   2.015   8.596   0.113
18674TIP3    H255900   1.892   8.544   0.041
18675TIP3   OH255901   8.868   2.814   7.841
18675TIP3    H155902   8.785   2.780   7.806
18675TIP3    H255903   8.842   2.888   7.896
18676TIP3   OH255904   9.271   3.441   6.514
18676TIP3    H155905   9.282   3.351   6.483
18676TIP3    H255906   9.343   3.490   6.474
18677TIP3   OH255907   9.037   2.822   6.831
18677TIP3    H155908   8.993   2.832   6.916
18677TIP3    H255909   8.999   2.742   6.794
18678TIP3   OH255910   8.824   3.325   7.859
18678TIP3    H155911   8.778   3.332   7.942
18678TIP3    H255912   8.804   3.407   7.813
18679TIP3   OH255913   8.701   3.200   7.388
18679TIP3    H155914   8.612   3.177   7.413
18679TIP3    H255915   8.710   3.169   7.297
18680TIP3   OH255916   9.174   3.275   7.118
18680TIP3    H155917   9.125   3.348   7.079
18680TIP3    H255918   9.227   3.240   7.046
18681TIP3   OH255919   9.325   3.289   7.349
18681TIP3    H155920   9.263   3.308   7.279
18681TIP3    H255921   9.375   3.213   7.317
18682TIP3   OH255922   2.129   7.966   0.076
18682TIP3    H155923   2.130   8.035   0.143
18682TIP3    H255924   2.101   7.887   0.123
18683TIP3   OH255925   8.703   2.809   6.809
18683TIP3    H155926   8.693   2.817   6.904
18683TIP3    H255927   8.625   2.851   6.773
18684TIP3   OH255928   8.249   2.858   7.672
18684TIP3    H155929   8.319   2.897   7.723
18684TIP3    H255930   8.286   2.850   7.584
18685TIP3   OH255931   8.148   2.834   7.169
18685TIP3    H155932   8.194   2.870   7.093
18685TIP3    H255933   8.085   2.901   7.193
18686TIP3   OH255934   9.341   3.546   7.774
18686TIP3    H155935   9.381   3.486   7.711
18686TIP3    H255936   9.318   3.491   7.849
18687TIP3   OH255937   9.069   2.984   7.439
18687TIP3    H155938   8.990   2.984   7.493
18687TIP3    H255939   9.141   2.975   7.501
18688TIP3   OH255940   8.461   3.076   7.447
18688TIP3    H155941   8.374   3.081   7.408
18688TIP3    H255942   8.492   2.988   7.427
18689TIP3   OH255943   8.713   3.081   7.140
18689TIP3    H155944   8.808   3.089   7.132
18689TIP3    H255945   8.680   3.098   7.052
18690TIP3   OH255946   9.478   3.089   7.654
18690TIP3    H155947   9.463   3.100   7.748
18690TIP3    H255948   9.415   3.022   7.628
18691TIP3   OH255949   8.607   3.101   6.889
18691TIP3    H155950   8.543   3.050   6.838
18691TIP3    H255951   8.659   3.146   6.822
18692TIP3   OH255952   9.713   4.784   7.876
18692TIP3    H155953   9.716   4.818   7.786
18692TIP3    H255954   9.784   4.830   7.921
18693TIP3   OH255955   2.113   8.513   0.266
18693TIP3    H155956   2.193   8.536   0.312
18693TIP3    H255957   2.044   8.523   0.331
18694TIP3   OH255958   9.108   3.362   7.535
18694TIP3    H155959   9.175   3.317   7.483
18694TIP3    H255960   9.112   3.320   7.621
18695TIP3   OH255961   8.603   2.831   7.419
18695TIP3    H155962   8.573   2.755   7.468
18695TIP3    H255963   8.621   2.797   7.331
18696TIP3   OH255964   9.088   3.265   7.800
18696TIP3    H155965   9.001   3.298   7.820
18696TIP3    H255966   9.147   3.315   7.857
18697TIP3   OH255967   8.812   3.616   6.921
18697TIP3    H155968   8.738   3.560   6.896
18697TIP3    H255969   8.786   3.655   7.003
18698TIP3   OH255970   9.677   3.862   7.546
18698TIP3    H155971   9.726   3.905   7.475
18698TIP3    H255972   9.601   3.823   7.502
18699TIP3   OH255973   9.290   2.917   6.832
18699TIP3    H155974   9.197   2.895   6.825
18699TIP3    H255975   9.292   3.013   6.830
18700TIP3   OH255976   9.194   3.941   7.914
18700TIP3    H155977   9.247   3.909   7.987
18700TIP3    H255978   9.160   4.025   7.944
18701TIP3   OH255979   9.330   3.186   6.904
18701TIP3    H155980   9.424   3.197   6.918
18701TIP3    H255981   9.306   3.259   6.846
18702TIP3   OH255982   8.505   3.628   7.568
18702TIP3    H155983   8.542   3.610   7.482
18702TIP3    H255984   8.573   3.601   7.630
18703TIP3   OH255985   8.975   3.777   6.774
18703TIP3    H155986   8.928   3.860   6.771
18703TIP3    H255987   8.917   3.719   6.823
18704TIP3   OH255988   1.857   8.175   0.199
18704TIP3    H155989   1.853   8.151   0.292
18704TIP3    H255990   1.780   8.133   0.161
18705TIP3   OH255991   2.593   8.307   0.262
18705TIP3    H155992   2.521   8.262   0.217
18705TIP3    H255993   2.654   8.236   0.285
18706TIP3   OH255994   9.368   4.235   7.828
18706TIP3    H155995   9.273   4.230   7.841
18706TIP3    H255996   9.400   4.279   7.907
18707TIP3   OH255997   9.720   3.289   6.751
18707TIP3    H155998   9.757   3.229   6.687
18707TIP3    H255999   9.695   3.366   6.699
18708TIP3   OH256000   0.166   4.150   7.832
18708TIP3    H156001   0.074   4.124   7.822
18708TIP3    H256002   0.211   4.110   7.757
18709TIP3   OH256003   9.510   4.085   6.693
18709TIP3    H156004   9.449   4.047   6.756
18709TIP3    H256005   9.478   4.055   6.608
18710TIP3   OH256006   9.459   3.739   7.417
18710TIP3    H156007   9.368   3.720   7.442
18710TIP3    H256008   9.492   3.657   7.381
18711TIP3   OH256009   8.641   3.972   7.245
18711TIP3    H156010   8.639   4.050   7.188
18711TIP3    H256011   8.550   3.961   7.273
18712TIP3   OH256012   8.202   3.259   6.955
18712TIP3    H156013   8.244   3.342   6.977
18712TIP3    H256014   8.120   3.259   7.005
18713TIP3   OH256015   8.718   3.728   7.146
18713TIP3    H156016   8.705   3.817   7.176
18713TIP3    H256017   8.692   3.673   7.220
18714TIP3   OH256018   8.924   4.297   7.694
18714TIP3    H156019   8.959   4.372   7.645
18714TIP3    H256020   8.997   4.266   7.747
18715TIP3   OH256021   8.558   4.196   7.101
18715TIP3    H156022   8.469   4.205   7.136
18715TIP3    H256023   8.593   4.285   7.104
18716TIP3   OH256024   9.266   3.963   7.651
18716TIP3    H156025   9.240   3.957   7.743
18716TIP3    H256026   9.343   3.908   7.644
18717TIP3   OH256027   9.254   3.827   6.543
18717TIP3    H156028   9.287   3.809   6.631
18717TIP3    H256029   9.168   3.785   6.541
18718TIP3   OH256030   9.509   4.458   7.710
18718TIP3    H156031   9.439   4.393   7.721
18718TIP3    H256032   9.482   4.510   7.634
18719TIP3   OH256033   9.579   4.336   6.350
18719TIP3    H156034   9.623   4.418   6.331
18719TIP3    H256035   9.494   4.361   6.386
18720TIP3   OH256036   2.058   7.724   0.196
18720TIP3    H156037   1.963   7.717   0.206
18720TIP3    H256038   2.093   7.721   0.285
18721TIP3   OH256039   9.372   3.774   6.785
18721TIP3    H156040   9.348   3.703   6.844
18721TIP3    H256041   9.468   3.770   6.781
18722TIP3   OH256042   8.354   4.194   7.861
18722TIP3    H156043   8.405   4.134   7.915
18722TIP3    H256044   8.369   4.280   7.900
18723TIP3   OH256045   8.618   3.803   6.554
18723TIP3    H156046   8.629   3.712   6.526
18723TIP3    H256047   8.604   3.798   6.649
18724TIP3   OH256048   8.562   3.813   6.827
18724TIP3    H156049   8.630   3.786   6.889
18724TIP3    H256050   8.559   3.909   6.835
18725TIP3   OH256051   8.294   3.510   7.037
18725TIP3    H156052   8.230   3.559   7.089
18725TIP3    H256053   8.313   3.567   6.963
18726TIP3   OH256054   9.436   3.128   7.934
18726TIP3    H156055   9.519   3.124   7.980
18726TIP3    H256056   9.386   3.054   7.968
18727TIP3   OH256057   9.342   2.888   7.103
18727TIP3    H156058   9.319   2.909   7.012
18727TIP3    H256059   9.382   2.969   7.136
18728TIP3   OH256060   8.828   4.003   6.766
18728TIP3    H156061   8.744   4.026   6.806
18728TIP3    H256062   8.847   4.076   6.707
18729TIP3   OH256063   8.992   3.081   7.189
18729TIP3    H156064   9.052   3.150   7.162
18729TIP3    H256065   9.018   3.060   7.278
18730TIP3   OH256066   9.287   3.361   7.972
18730TIP3    H156067   9.294   3.375   8.066
18730TIP3    H256068   9.342   3.284   7.955
18731TIP3   OH256069   9.153   2.779   7.268
18731TIP3    H156070   9.130   2.854   7.323
18731TIP3    H256071   9.222   2.812   7.211
18732TIP3   OH256072   8.579   4.085   6.853
18732TIP3    H156073   8.563   4.157   6.792
18732TIP3    H256074   8.571   4.123   6.940
18733TIP3   OH256075   8.665   2.807   7.091
18733TIP3    H156076   8.655   2.899   7.114
18733TIP3    H256077   8.760   2.791   7.095
18734TIP3   OH256078   9.544   3.475   7.348
18734TIP3    H156079   9.462   3.425   7.350
18734TIP3    H256080   9.591   3.448   7.427
18735TIP3   OH256081   8.318   3.682   6.818
18735TIP3    H156082   8.390   3.745   6.827
18735TIP3    H256083   8.348   3.620   6.752
18736TIP3   OH256084   8.223   2.981   6.951
18736TIP3    H156085   8.235   3.075   6.961
18736TIP3    H256086   8.177   2.972   6.867
18737TIP3   OH256087   9.544   4.449   7.277
18737TIP3    H156088   9.496   4.505   7.216
18737TIP3    H256089   9.636   4.470   7.261
18738TIP3   OH256090   8.615   2.713   7.798
18738TIP3    H156091   8.585   2.682   7.713
18738TIP3    H256092   8.608   2.636   7.855
18739TIP3   OH256093   8.144   3.958   7.213
18739TIP3    H156094   8.102   3.994   7.291
18739TIP3    H256095   8.098   4.000   7.140
18740TIP3   OH256096   1.810   9.118   0.283
18740TIP3    H156097   1.893   9.120   0.331
18740TIP3    H256098   1.791   9.025   0.271
18741TIP3   OH256099   2.276   9.026   0.308
18741TIP3    H156100   2.366   8.999   0.326
18741TIP3    H256101   2.247   8.968   0.238
18742TIP3   OH256102   8.767   4.006   6.442
18742TIP3    H156103   8.719   3.936   6.487
18742TIP3    H256104   8.839   3.961   6.398
18743TIP3   OH256105   2.924   8.963   0.059
18743TIP3    H156106   2.910   8.895   0.125
18743TIP3    H256107   2.999   9.013   0.092
18744TIP3   OH256108   9.181   4.054   6.409
18744TIP3    H156109   9.223   3.983   6.457
18744TIP3    H256110   9.227   4.056   6.325
18745TIP3   OH256111   1.914   8.524   0.463
18745TIP3    H156112   1.932   8.431   0.477
18745TIP3    H256113   1.828   8.525   0.421
18746TIP3   OH256114   8.437   3.494   6.660
18746TIP3    H156115   8.489   3.469   6.736
18746TIP3    H256116   8.502   3.508   6.591
18747TIP3   OH256117   2.539   8.588   0.252
18747TIP3    H156118   2.500   8.612   0.168
18747TIP3    H256119   2.572   8.499   0.238
18748TIP3   OH256120   8.998   3.724   6.506
18748TIP3    H156121   8.979   3.737   6.599
18748TIP3    H256122   8.984   3.631   6.492
18749TIP3   OH256123   9.523   4.010   7.894
18749TIP3    H156124   9.596   4.032   7.835
18749TIP3    H256125   9.456   4.075   7.876
18750TIP3   OH256126   2.006   8.268   0.500
18750TIP3    H156127   1.995   8.174   0.514
18750TIP3    H256128   2.065   8.296   0.570
18751TIP3   OH256129   8.611   3.432   6.870
18751TIP3    H156130   8.592   3.399   6.958
18751TIP3    H256131   8.660   3.362   6.828
18752TIP3   OH256132   2.395   8.147   0.133
18752TIP3    H156133   2.306   8.184   0.137
18752TIP3    H256134   2.427   8.171   0.046
18753TIP3   OH256135   8.753   3.250   6.709
18753TIP3    H156136   8.726   3.257   6.617
18753TIP3    H256137   8.848   3.243   6.706
18754TIP3   OH256138   2.857   8.493   0.094
18754TIP3    H156139   2.906   8.533   0.022
18754TIP3    H256140   2.904   8.519   0.173
18755TIP3   OH256141   9.489   3.582   6.403
18755TIP3    H156142   9.467   3.527   6.327
18755TIP3    H256143   9.459   3.669   6.378
18756TIP3   OH256144   2.470   7.891   0.213
18756TIP3    H156145   2.485   7.832   0.139
18756TIP3    H256146   2.448   7.975   0.172
18757TIP3   OH256147   9.029   3.083   8.012
18757TIP3    H156148   9.059   3.121   7.929
18757TIP3    H256149   8.936   3.068   7.999
18758TIP3   OH256150   9.038   3.601   7.896
18758TIP3    H156151   9.129   3.624   7.873
18758TIP3    H256152   8.985   3.668   7.852
18759TIP3   OH256153   9.723   3.827   7.973
18759TIP3    H156154   9.654   3.892   7.956
18759TIP3    H256155   9.797   3.856   7.920
18760TIP3   OH256156   2.364   7.987   0.448
18760TIP3    H156157   2.337   8.079   0.440
18760TIP3    H256158   2.412   7.969   0.367
18761TIP3   OH256159   2.535   7.469   0.156
18761TIP3    H156160   2.520   7.544   0.098
18761TIP3    H256161   2.503   7.393   0.108
18762TIP3   OH256162   2.183   7.774   0.441
18762TIP3    H156163   2.238   7.849   0.418
18762TIP3    H256164   2.211   7.749   0.529
18763TIP3   OH256165   8.583   4.299   6.682
18763TIP3    H156166   8.668   4.279   6.644
18763TIP3    H256167   8.533   4.338   6.609
18764TIP3   OH256168   8.045   3.684   6.840
18764TIP3    H156169   8.140   3.695   6.833
18764TIP3    H256170   8.027   3.600   6.799
18765TIP3   OH256171   7.945   4.267   7.301
18765TIP3    H156172   7.882   4.213   7.254
18765TIP3    H256173   7.991   4.206   7.358
18766TIP3   OH256174   8.091   4.097   7.465
18766TIP3    H156175   8.083   4.027   7.530
18766TIP3    H256176   8.145   4.164   7.507
18767TIP3   OH256177   0.008   4.519   7.265
18767TIP3    H156178   0.026   4.540   7.357
18767TIP3    H256179   0.049   4.591   7.216
18768TIP3   OH256180   0.030   4.529   7.545
18768TIP3    H156181  -0.016   4.446   7.550
18768TIP3    H256182   0.110   4.515   7.596
18769TIP3   OH256183   9.643   3.730   6.799
18769TIP3    H156184   9.700   3.800   6.767
18769TIP3    H256185   9.685   3.700   6.880
18770TIP3   OH256186   9.804   3.622   7.000
18770TIP3    H156187   9.727   3.575   7.032
18770TIP3    H256188   9.853   3.643   7.079
18771TIP3   OH256189   0.061   3.989   7.384
18771TIP3    H156190   0.119   3.948   7.320
18771TIP3    H256191   0.040   4.074   7.345
18772TIP3   OH256192   9.688   4.289   7.570
18772TIP3    H156193   9.619   4.336   7.617
18772TIP3    H256194   9.644   4.251   7.494
18773TIP3   OH256195   9.657   3.522   6.610
18773TIP3    H156196   9.589   3.544   6.547
18773TIP3    H256197   9.650   3.589   6.678
18774TIP3   OH256198   9.601   3.458   7.077
18774TIP3    H156199   9.610   3.364   7.063
18774TIP3    H256200   9.594   3.468   7.172
18775TIP3   OH256201   8.260   3.525   7.846
18775TIP3    H156202   8.250   3.498   7.755
18775TIP3    H256203   8.354   3.524   7.862
18776TIP3   OH256204   9.535   2.841   6.502
18776TIP3    H156205   9.558   2.900   6.574
18776TIP3    H256206   9.440   2.841   6.500
18777TIP3   OH256207   9.605   3.190   6.980
18777TIP3    H156208   9.645   3.103   6.988
18777TIP3    H256209   9.643   3.226   6.900
18778TIP3   OH256210   0.008   3.328   7.481
18778TIP3    H156211   0.095   3.293   7.499
18778TIP3    H256212  -0.010   3.388   7.554
18779TIP3   OH256213   9.779   3.498   7.693
18779TIP3    H156214   9.714   3.517   7.761
18779TIP3    H256215   9.862   3.523   7.733
18780TIP3   OH256216   1.918   7.827   0.470
18780TIP3    H156217   2.013   7.832   0.470
18780TIP3    H256218   1.898   7.747   0.520
18781TIP3   OH256219   9.703   2.935   7.019
18781TIP3    H156220   9.752   2.901   7.095
18781TIP3    H256221   9.644   2.864   6.996
18782TIP3   OH256222   8.458   2.937   7.838
18782TIP3    H156223   8.510   2.857   7.837
18782TIP3    H256224   8.519   3.006   7.815
18783TIP3   OH256225   8.235   3.195   7.893
18783TIP3    H156226   8.288   3.182   7.814
18783TIP3    H256227   8.255   3.285   7.920
18784TIP3   OH256228   0.037   2.818   6.656
18784TIP3    H156229   0.051   2.771   6.574
18784TIP3    H256230   0.039   2.910   6.632
18785TIP3   OH256231   8.229   2.703   7.395
18785TIP3    H156232   8.144   2.691   7.438
18785TIP3    H256233   8.209   2.756   7.318
18786TIP3   OH256234   9.398   4.426   6.919
18786TIP3    H156235   9.446   4.407   6.839
18786TIP3    H256236   9.439   4.505   6.954
18787TIP3   OH256237   1.894   7.361   0.201
18787TIP3    H156238   1.854   7.368   0.287
18787TIP3    H256239   1.843   7.419   0.145
18788TIP3   OH256240   1.949   8.837   0.279
18788TIP3    H156241   1.856   8.817   0.278
18788TIP3    H256242   1.971   8.842   0.372
18789TIP3   OH256243   8.697   4.261   7.844
18789TIP3    H156244   8.646   4.336   7.813
18789TIP3    H256245   8.781   4.269   7.799
18790TIP3   OH256246   9.092   4.497   7.983
18790TIP3    H156247   9.133   4.480   8.068
18790TIP3    H256248   9.157   4.548   7.935
18791TIP3   OH256249   9.285   4.641   7.848
18791TIP3    H156250   9.347   4.583   7.805
18791TIP3    H256251   9.339   4.695   7.905
18792TIP3   OH256252   8.357   4.494   7.895
18792TIP3    H156253   8.266   4.513   7.873
18792TIP3    H256254   8.380   4.560   7.961
18793TIP3   OH256255   8.586   4.493   7.743
18793TIP3    H156256   8.503   4.495   7.791
18793TIP3    H256257   8.562   4.514   7.653
18794TIP3   OH256258   8.994   4.514   7.536
18794TIP3    H156259   8.920   4.522   7.475
18794TIP3    H256260   9.003   4.600   7.575
18795TIP3   OH256261   9.253   4.439   7.579
18795TIP3    H156262   9.161   4.462   7.561
18795TIP3    H256263   9.304   4.506   7.534
18796TIP3   OH256264   9.453   4.610   7.484
18796TIP3    H156265   9.446   4.697   7.446
18796TIP3    H256266   9.484   4.555   7.411
18797TIP3   OH256267   8.266   4.275   7.611
18797TIP3    H156268   8.294   4.254   7.700
18797TIP3    H256269   8.337   4.243   7.555
18798TIP3   OH256270   8.468   4.163   7.468
18798TIP3    H156271   8.480   4.077   7.510
18798TIP3    H256272   8.555   4.203   7.472
18799TIP3   OH256273   8.736   4.248   7.494
18799TIP3    H156274   8.755   4.155   7.479
18799TIP3    H256275   8.793   4.271   7.568
18800TIP3   OH256276   9.299   2.887   7.577
18800TIP3    H156277   9.243   2.824   7.622
18800TIP3    H256278   9.358   2.833   7.525
18801TIP3   OH256279   9.810   2.783   7.463
18801TIP3    H156280   9.831   2.817   7.376
18801TIP3    H256281   9.743   2.843   7.496
18802TIP3   OH256282   0.088   2.860   7.213
18802TIP3    H156283   0.169   2.818   7.185
18802TIP3    H256284   0.104   2.954   7.199
18803TIP3   OH256285   8.526   2.606   7.561
18803TIP3    H156286   8.436   2.574   7.572
18803TIP3    H256287   8.578   2.527   7.549
18804TIP3   OH256288   8.370   2.513   7.238
18804TIP3    H156289   8.391   2.559   7.157
18804TIP3    H256290   8.329   2.579   7.294
18805TIP3   OH256291   9.006   2.630   7.454
18805TIP3    H156292   9.051   2.678   7.385
18805TIP3    H256293   9.035   2.672   7.535
18806TIP3   OH256294   9.487   2.762   7.403
18806TIP3    H156295   9.484   2.821   7.328
18806TIP3    H256296   9.548   2.693   7.377
18807TIP3   OH256297   9.540   2.721   6.985
18807TIP3    H156298   9.459   2.768   7.004
18807TIP3    H256299   9.530   2.636   7.028
18808TIP3   OH256300   8.020   4.080   7.001
18808TIP3    H156301   7.939   4.048   6.962
18808TIP3    H256302   8.028   4.169   6.968
18809TIP3   OH256303   8.463   2.636   6.993
18809TIP3    H156304   8.511   2.577   6.934
18809TIP3    H256305   8.531   2.693   7.029
18810TIP3   OH256306   8.939   2.831   7.090
18810TIP3    H156307   9.000   2.778   7.142
18810TIP3    H256308   8.956   2.921   7.117
18811TIP3   OH256309   8.830   4.224   6.594
18811TIP3    H156310   8.909   4.260   6.553
18811TIP3    H256311   8.801   4.157   6.532
18812TIP3   OH256312   9.533   4.366   6.684
18812TIP3    H156313   9.532   4.270   6.683
18812TIP3    H256314   9.482   4.391   6.607
18813TIP3   OH256315   8.142   4.072   6.645
18813TIP3    H156316   8.147   4.088   6.739
18813TIP3    H256317   8.222   4.025   6.624
18814TIP3   OH256318   9.720   4.510   7.880
18814TIP3    H156319   9.645   4.485   7.826
18814TIP3    H256320   9.718   4.606   7.880
18815TIP3   OH256321   0.097   3.363   6.950
18815TIP3    H156322   0.060   3.449   6.969
18815TIP3    H256323   0.040   3.328   6.881
18816TIP3   OH256324   0.312   3.617   7.102
18816TIP3    H156325   0.308   3.527   7.133
18816TIP3    H256326   0.295   3.612   7.008
18817TIP3   OH256327   0.220   3.989   6.657
18817TIP3    H156328   0.170   3.908   6.663
18817TIP3    H256329   0.162   4.055   6.696
18818TIP3   OH256330   0.258   4.051   7.594
18818TIP3    H156331   0.190   4.061   7.528
18818TIP3    H256332   0.310   3.976   7.565
18819TIP3   OH256333   0.059   4.248   7.286
18819TIP3    H156334   0.133   4.267   7.344
18819TIP3    H256335   0.019   4.333   7.269
18820TIP3   OH256336   0.455   4.235   7.670
18820TIP3    H156337   0.455   4.238   7.766
18820TIP3    H256338   0.382   4.177   7.648
18821TIP3   OH256339   0.162   3.111   7.151
18821TIP3    H156340   0.205   3.195   7.165
18821TIP3    H256341   0.152   3.104   7.057
18822TIP3   OH256342   0.173   3.582   6.403
18822TIP3    H156343   0.208   3.525   6.472
18822TIP3    H256344   0.097   3.535   6.369
18823TIP3   OH256345   0.277   4.313   7.428
18823TIP3    H156346   0.367   4.280   7.417
18823TIP3    H256347   0.288   4.392   7.481
18824TIP3   OH256348   0.091   4.221   6.725
18824TIP3    H156349   0.099   4.296   6.785
18824TIP3    H256350   0.070   4.261   6.641
18825TIP3   OH256351   0.303   4.772   7.742
18825TIP3    H156352   0.347   4.713   7.803
18825TIP3    H256353   0.257   4.715   7.681
18826TIP3   OH256354   9.730   3.906   6.433
18826TIP3    H156355   9.803   3.962   6.406
18826TIP3    H256356   9.714   3.850   6.357
18827TIP3   OH256357   9.708   4.567   6.761
18827TIP3    H156358   9.653   4.496   6.727
18827TIP3    H256359   9.775   4.522   6.813
18828TIP3   OH256360   0.101   4.429   6.905
18828TIP3    H156361   0.125   4.361   6.968
18828TIP3    H256362   0.176   4.488   6.903
18829TIP3   OH256363   0.263   3.840   7.252
18829TIP3    H156364   0.276   3.753   7.217
18829TIP3    H256365   0.245   3.895   7.176
18830TIP3   OH256366   0.309   3.509   7.394
18830TIP3    H156367   0.264   3.453   7.330
18830TIP3    H256368   0.240   3.566   7.428
18831TIP3   OH256369   0.127   3.018   6.886
18831TIP3    H156370   0.043   2.985   6.920
18831TIP3    H256371   0.178   2.939   6.868
18832TIP3   OH256372   0.289   4.712   7.321
18832TIP3    H156373   0.205   4.758   7.316
18832TIP3    H256374   0.284   4.661   7.402
18833TIP3   OH256375   0.534   4.758   7.212
18833TIP3    H156376   0.445   4.742   7.243
18833TIP3    H256377   0.566   4.672   7.187
18834TIP3   OH256378   0.028   4.324   6.480
18834TIP3    H156379  -0.061   4.328   6.445
18834TIP3    H256380   0.057   4.415   6.484
18835TIP3   OH256381   0.082   4.371   6.166
18835TIP3    H156382   0.127   4.418   6.236
18835TIP3    H256383   0.084   4.279   6.193
18836TIP3   OH256384   4.874   9.138   0.858
18836TIP3    H156385   4.864   9.205   0.789
18836TIP3    H256386   4.837   9.059   0.819
18837TIP3   OH256387   5.021   8.992   1.108
18837TIP3    H156388   4.990   9.007   1.197
18837TIP3    H256389   4.945   8.958   1.061
18838TIP3   OH256390   8.469   0.184   0.850
18838TIP3    H156391   8.472   0.098   0.892
18838TIP3    H256392   8.495   0.246   0.919
18839TIP3   OH256393   8.164   0.569   0.926
18839TIP3    H156394   8.186   0.495   0.869
18839TIP3    H256395   8.248   0.597   0.962
18840TIP3   OH256396   7.970   0.077   1.272
18840TIP3    H156397   8.040   0.070   1.207
18840TIP3    H256398   8.013   0.063   1.356
18841TIP3   OH256399   5.686   8.612   1.338
18841TIP3    H156400   5.718   8.701   1.323
18841TIP3    H256401   5.647   8.586   1.255
18842TIP3   OH256402   5.193   8.431   0.798
18842TIP3    H156403   5.219   8.479   0.877
18842TIP3    H256404   5.275   8.400   0.760
18843TIP3   OH256405   8.120   0.062   0.640
18843TIP3    H156406   8.075   0.023   0.565
18843TIP3    H256407   8.067   0.138   0.664
18844TIP3   OH256408   5.509   8.507   1.146
18844TIP3    H156409   5.429   8.467   1.181
18844TIP3    H256410   5.487   8.600   1.137
18845TIP3   OH256411   3.783   9.054   0.791
18845TIP3    H156412   3.767   9.061   0.697
18845TIP3    H256413   3.801   9.144   0.819
18846TIP3   OH256414   8.515   0.378   1.051
18846TIP3    H156415   8.445   0.352   1.111
18846TIP3    H256416   8.493   0.468   1.027
18847TIP3   OH256417   8.243   0.412   0.702
18847TIP3    H156418   8.303   0.339   0.688
18847TIP3    H256419   8.296   0.490   0.685
18848TIP3   OH256420   8.371   0.176   0.598
18848TIP3    H156421   8.289   0.128   0.613
18848TIP3    H256422   8.417   0.172   0.682
18849TIP3   OH256423   8.740   0.295   1.440
18849TIP3    H156424   8.716   0.218   1.389
18849TIP3    H256425   8.713   0.369   1.386
18850TIP3   OH256426   4.767   8.975   0.639
18850TIP3    H156427   4.695   9.018   0.592
18850TIP3    H256428   4.830   8.953   0.571
18851TIP3   OH256429   4.734   8.735   0.336
18851TIP3    H156430   4.793   8.781   0.394
18851TIP3    H256431   4.788   8.668   0.293
18852TIP3   OH256432   5.647   9.099   1.198
18852TIP3    H156433   5.667   9.174   1.253
18852TIP3    H256434   5.708   9.106   1.124
18853TIP3   OH256435   5.148   9.063   0.590
18853TIP3    H156436   5.146   9.126   0.662
18853TIP3    H256437   5.227   9.012   0.606
18854TIP3   OH256438   4.402   9.006   1.071
18854TIP3    H156439   4.351   8.952   1.011
18854TIP3    H256440   4.431   8.945   1.139
18855TIP3   OH256441   7.746   0.180   1.153
18855TIP3    H156442   7.746   0.139   1.066
18855TIP3    H256443   7.820   0.138   1.199
18856TIP3   OH256444   8.313   0.316   1.224
18856TIP3    H156445   8.279   0.401   1.251
18856TIP3    H256446   8.235   0.263   1.207
18857TIP3   OH256447   4.953   8.918   0.441
18857TIP3    H156448   5.020   8.973   0.480
18857TIP3    H256449   4.976   8.915   0.348
18858TIP3   OH256450   7.989   0.293   0.701
18858TIP3    H156451   8.067   0.344   0.720
18858TIP3    H256452   7.931   0.353   0.656
18859TIP3   OH256453   5.504   8.052   0.428
18859TIP3    H156454   5.420   8.042   0.472
18859TIP3    H256455   5.501   8.141   0.391
18860TIP3   OH256456   4.282   8.920   0.830
18860TIP3    H156457   4.222   8.991   0.804
18860TIP3    H256458   4.224   8.849   0.858
18861TIP3   OH256459   8.571   0.196   0.069
18861TIP3    H156460   8.563   0.291   0.060
18861TIP3    H256461   8.661   0.177   0.042
18862TIP3   OH256462   8.988   0.685   1.454
18862TIP3    H156463   8.981   0.590   1.459
18862TIP3    H256464   8.916   0.718   1.507
18863TIP3   OH256465   7.870   0.491   0.537
18863TIP3    H156466   7.822   0.476   0.456
18863TIP3    H256467   7.840   0.577   0.567
18864TIP3   OH256468   7.300   0.319   0.897
18864TIP3    H156469   7.355   0.314   0.975
18864TIP3    H256470   7.245   0.396   0.912
18865TIP3   OH256471   8.079   0.434   0.176
18865TIP3    H156472   8.132   0.364   0.138
18865TIP3    H256473   8.113   0.443   0.265
18866TIP3   OH256474   8.129   0.468   0.447
18866TIP3    H156475   8.040   0.472   0.482
18866TIP3    H256476   8.182   0.436   0.520
18867TIP3   OH256477   5.034   8.848   0.189
18867TIP3    H156478   4.992   8.842   0.103
18867TIP3    H256479   5.121   8.883   0.171
18868TIP3   OH256480   4.730   8.259   0.460
18868TIP3    H156481   4.739   8.271   0.555
18868TIP3    H256482   4.797   8.194   0.438
18869TIP3   OH256483   4.357   8.523   1.170
18869TIP3    H156484   4.264   8.509   1.185
18869TIP3    H256485   4.361   8.586   1.098
18870TIP3   OH256486   4.830   8.696   0.744
18870TIP3    H156487   4.892   8.769   0.746
18870TIP3    H256488   4.876   8.627   0.695
18871TIP3   OH256489   5.033   8.695   0.968
18871TIP3    H156490   5.045   8.768   0.907
18871TIP3    H256491   5.122   8.665   0.988
18872TIP3   OH256492   4.431   8.164   0.427
18872TIP3    H156493   4.500   8.180   0.492
18872TIP3    H256494   4.379   8.244   0.427
18873TIP3   OH256495   4.040   8.234   1.013
18873TIP3    H156496   4.023   8.285   0.934
18873TIP3    H256497   3.955   8.194   1.035
18874TIP3   OH256498   4.530   8.486   0.805
18874TIP3    H156499   4.546   8.580   0.805
18874TIP3    H256500   4.486   8.469   0.721
18875TIP3   OH256501   4.306   8.572   0.598
18875TIP3    H156502   4.287   8.485   0.563
18875TIP3    H256503   4.364   8.612   0.534
18876TIP3   OH256504   8.634   1.026   1.528
18876TIP3    H156505   8.643   0.989   1.440
18876TIP3    H256506   8.724   1.033   1.560
18877TIP3   OH256507   4.502   9.094   0.597
18877TIP3    H156508   4.448   9.016   0.587
18877TIP3    H256509   4.495   9.117   0.690
18878TIP3   OH256510   8.655   0.127   1.243
18878TIP3    H156511   8.711   0.159   1.173
18878TIP3    H256512   8.568   0.120   1.203
18879TIP3   OH256513   4.987   8.402   0.361
18879TIP3    H156514   4.940   8.357   0.431
18879TIP3    H256515   5.004   8.490   0.397
18880TIP3   OH256516   5.064   8.652   0.426
18880TIP3    H156517   5.100   8.657   0.514
18880TIP3    H256518   5.047   8.743   0.402
18881TIP3   OH256519   4.689   9.196   0.434
18881TIP3    H156520   4.659   9.287   0.421
18881TIP3    H256521   4.620   9.156   0.487
18882TIP3   OH256522   5.514   8.704   0.350
18882TIP3    H156523   5.455   8.667   0.284
18882TIP3    H256524   5.517   8.797   0.331
18883TIP3   OH256525   8.981   0.413   1.462
18883TIP3    H156526   8.895   0.374   1.478
18883TIP3    H256527   9.007   0.380   1.376
18884TIP3   OH256528   8.478   0.277   0.358
18884TIP3    H156529   8.444   0.232   0.436
18884TIP3    H256530   8.489   0.207   0.294
18885TIP3   OH256531   5.168   9.234   1.131
18885TIP3    H156532   5.111   9.157   1.138
18885TIP3    H256533   5.252   9.199   1.102
18886TIP3   OH256534   7.616   0.155   0.895
18886TIP3    H156535   7.613   0.228   0.832
18886TIP3    H256536   7.554   0.180   0.963
18887TIP3   OH256537   3.869   8.619   0.692
18887TIP3    H156538   3.921   8.689   0.654
18887TIP3    H256539   3.785   8.659   0.713
18888TIP3   OH256540   4.479   9.159   0.860
18888TIP3    H156541   4.442   9.248   0.861
18888TIP3    H256542   4.440   9.116   0.936
18889TIP3   OH256543   7.538   0.378   0.753
18889TIP3    H156544   7.450   0.374   0.790
18889TIP3    H256545   7.562   0.471   0.760
18890TIP3   OH256546   4.965   9.252   0.190
18890TIP3    H156547   5.027   9.234   0.261
18890TIP3    H256548   4.887   9.201   0.213
18891TIP3   OH256549   8.498   0.664   1.334
18891TIP3    H156550   8.411   0.636   1.361
18891TIP3    H256551   8.488   0.691   1.243
18892TIP3   OH256552   8.564   0.471   0.036
18892TIP3    H156553   8.582   0.534  -0.034
18892TIP3    H256554   8.493   0.511   0.086
18893TIP3   OH256555   5.171   9.199   0.356
18893TIP3    H156556   5.154   9.166   0.443
18893TIP3    H256557   5.267   9.202   0.349
18894TIP3   OH256558   4.351   9.207   0.223
18894TIP3    H156559   4.356   9.114   0.201
18894TIP3    H256560   4.332   9.208   0.317
18895TIP3   OH256561   7.551  -0.004   0.486
18895TIP3    H156562   7.625  -0.039   0.535
18895TIP3    H256563   7.554   0.090   0.500
18896TIP3   OH256564   4.070   9.071   0.739
18896TIP3    H156565   3.990   9.088   0.788
18896TIP3    H256566   4.060   9.122   0.658
18897TIP3   OH256567   5.026   8.212   0.765
18897TIP3    H156568   5.035   8.180   0.675
18897TIP3    H256569   5.100   8.272   0.776
18898TIP3   OH256570   7.828   0.191   0.432
18898TIP3    H156571   7.744   0.208   0.474
18898TIP3    H256572   7.846   0.270   0.381
18899TIP3   OH256573   4.848   8.486   0.941
18899TIP3    H156574   4.882   8.567   0.903
18899TIP3    H256575   4.768   8.513   0.987
18900TIP3   OH256576   4.840   8.243   1.040
18900TIP3    H156577   4.841   8.333   1.007
18900TIP3    H256578   4.929   8.226   1.068
18901TIP3   OH256579   7.575   0.265   0.510
18901TIP3    H156580   7.553   0.335   0.449
18901TIP3    H256581   7.563   0.303   0.597
18902TIP3   OH256582   4.356   8.236   0.835
18902TIP3    H156583   4.416   8.245   0.910
18902TIP3    H256584   4.412   8.206   0.763
18903TIP3   OH256585   5.247   8.901   0.983
18903TIP3    H156586   5.170   8.912   1.039
18903TIP3    H256587   5.318   8.944   1.031
18904TIP3   OH256588   4.024   9.135   0.463
18904TIP3    H156589   4.090   9.205   0.459
18904TIP3    H256590   4.067   9.060   0.421
18905TIP3   OH256591   3.943   8.376   0.549
18905TIP3    H156592   3.997   8.351   0.625
18905TIP3    H256593   3.896   8.454   0.578
18906TIP3   OH256594   7.146   0.071   0.858
18906TIP3    H156595   7.085   0.114   0.918
18906TIP3    H256596   7.218   0.134   0.847
18907TIP3   OH256597   7.758   0.181   0.121
18907TIP3    H156598   7.717   0.107   0.167
18907TIP3    H256599   7.835   0.143   0.079
18908TIP3   OH256600   8.204   0.234   0.041
18908TIP3    H156601   8.229   0.163   0.099
18908TIP3    H256602   8.264   0.226  -0.033
18909TIP3   OH256603   4.165   8.917   0.367
18909TIP3    H156604   4.226   8.904   0.440
18909TIP3    H256605   4.220   8.922   0.289
18910TIP3   OH256606   4.712   9.128   0.169
18910TIP3    H156607   4.691   9.135   0.262
18910TIP3    H256608   4.696   9.036   0.148
18911TIP3   OH256609   4.347   8.875   0.565
18911TIP3    H156610   4.333   8.865   0.659
18911TIP3    H256611   4.411   8.807   0.543
18912TIP3   OH256612   4.461   8.683   0.380
18912TIP3    H156613   4.430   8.678   0.290
18912TIP3    H256614   4.551   8.713   0.374
18913TIP3   OH256615   5.261   8.957   0.079
18913TIP3    H156616   5.250   8.915  -0.006
18913TIP3    H256617   5.238   9.049   0.064
18914TIP3   OH256618   7.569   0.480   0.340
18914TIP3    H156619   7.658   0.460   0.310
18914TIP3    H256620   7.528   0.524   0.265
18915TIP3   OH256621   3.762   9.064   0.518
18915TIP3    H156622   3.846   9.103   0.493
18915TIP3    H256623   3.728   9.027   0.437
18916TIP3   OH256624   8.774   0.689   0.945
18916TIP3    H156625   8.797   0.714   1.034
18916TIP3    H256626   8.679   0.700   0.941
18917TIP3   OH256627   8.825   0.715   1.217
18917TIP3    H156628   8.778   0.632   1.225
18917TIP3    H256629   8.897   0.708   1.280
18918TIP3   OH256630   5.445   9.186   0.381
18918TIP3    H156631   5.504   9.257   0.357
18918TIP3    H256632   5.487   9.143   0.455
18919TIP3   OH256633   5.568   9.039   0.576
18919TIP3    H156634   5.498   9.016   0.636
18919TIP3    H256635   5.628   9.093   0.628
18920TIP3   OH256636   8.824   0.220   1.039
18920TIP3    H156637   8.881   0.165   0.986
18920TIP3    H256638   8.816   0.301   0.989
18921TIP3   OH256639   8.683   0.483   1.250
18921TIP3    H156640   8.614   0.539   1.286
18921TIP3    H256641   8.642   0.439   1.176
18922TIP3   OH256642   5.481   8.952   0.242
18922TIP3    H156643   5.405   8.945   0.184
18922TIP3    H256644   5.466   9.033   0.291
18923TIP3   OH256645   5.353   8.602   0.161
18923TIP3    H156646   5.287   8.635   0.100
18923TIP3    H256647   5.341   8.507   0.160
18924TIP3   OH256648   5.351   8.926   0.716
18924TIP3    H156649   5.393   8.841   0.724
18924TIP3    H256650   5.315   8.943   0.802
18925TIP3   OH256651   5.290   8.336   0.136
18925TIP3    H156652   5.356   8.305   0.198
18925TIP3    H256653   5.215   8.279   0.151
18926TIP3   OH256654   5.401   8.565   0.554
18926TIP3    H156655   5.466   8.500   0.581
18926TIP3    H256656   5.447   8.620   0.490
18927TIP3   OH256657   5.478   8.779   1.149
18927TIP3    H156658   5.539   8.823   1.090
18927TIP3    H256659   5.501   8.813   1.236
18928TIP3   OH256660   5.520   8.313   0.595
18928TIP3    H156661   5.548   8.253   0.664
18928TIP3    H256662   5.433   8.283   0.570
18929TIP3   OH256663   5.523   8.290   0.286
18929TIP3    H156664   5.575   8.233   0.230
18929TIP3    H256665   5.582   8.364   0.305
18930TIP3   OH256666   8.379   0.631   0.612
18930TIP3    H156667   8.423   0.597   0.534
18930TIP3    H256668   8.424   0.713   0.631
18931TIP3   OH256669   7.985   0.680   1.204
18931TIP3    H156670   7.942   0.667   1.119
18931TIP3    H256671   7.974   0.773   1.223
18932TIP3   OH256672   8.235   0.579   1.261
18932TIP3    H156673   8.145   0.607   1.246
18932TIP3    H256674   8.284   0.615   1.187
18933TIP3   OH256675   7.476   0.313   1.106
18933TIP3    H156676   7.498   0.249   1.174
18933TIP3    H256677   7.542   0.382   1.115
18934TIP3   OH256678   7.720   0.448   1.162
18934TIP3    H156679   7.738   0.354   1.153
18934TIP3    H256680   7.768   0.474   1.240
18935TIP3   OH256681   5.495   8.209   1.190
18935TIP3    H156682   5.532   8.249   1.268
18935TIP3    H256683   5.420   8.158   1.221
18936TIP3   OH256684   5.645   8.214   0.820
18936TIP3    H156685   5.694   8.212   0.902
18936TIP3    H256686   5.594   8.295   0.824
18937TIP3   OH256687   5.272   8.064   1.240
18937TIP3    H156688   5.211   8.122   1.195
18937TIP3    H256689   5.300   8.002   1.173
18938TIP3   OH256690   5.293   8.134   0.621
18938TIP3    H156691   5.250   8.203   0.571
18938TIP3    H256692   5.255   8.053   0.588
18939TIP3   OH256693   4.122   8.168   0.688
18939TIP3    H156694   4.176   8.094   0.660
18939TIP3    H256695   4.174   8.210   0.757
18940TIP3   OH256696   4.741   8.317   0.731
18940TIP3    H156697   4.799   8.317   0.807
18940TIP3    H256698   4.672   8.381   0.754
18941TIP3   OH256699   7.820   0.409   0.261
18941TIP3    H156700   7.906   0.433   0.227
18941TIP3    H256701   7.792   0.336   0.205
18942TIP3   OH256702   8.513   0.545   0.382
18942TIP3    H156703   8.507   0.450   0.377
18942TIP3    H256704   8.471   0.575   0.301
18943TIP3   OH256705   7.142   0.241   0.311
18943TIP3    H156706   7.148   0.310   0.378
18943TIP3    H256707   7.232   0.210   0.299
18944TIP3   OH256708   0.219   0.068   0.299
18944TIP3    H156709   0.189   0.155   0.273
18944TIP3    H256710   0.149   0.009   0.271
18945TIP3   OH256711   0.208   0.066   0.676
18945TIP3    H156712   0.249   0.036   0.757
18945TIP3    H256713   0.169  -0.013   0.639
18946TIP3   OH256714   6.113   9.046   1.007
18946TIP3    H156715   6.102   9.091   1.091
18946TIP3    H256716   6.156   9.110   0.951
18947TIP3   OH256717   0.487   0.371   0.395
18947TIP3    H156718   0.473   0.304   0.462
18947TIP3    H256719   0.505   0.451   0.444
18948TIP3   OH256720   9.329   0.332   0.772
18948TIP3    H156721   9.305   0.245   0.740
18948TIP3    H256722   9.421   0.342   0.749
18949TIP3   OH256723   5.753   8.848   0.494
18949TIP3    H156724   5.691   8.921   0.505
18949TIP3    H256725   5.706   8.771   0.525
18950TIP3   OH256726   5.805   9.158   0.682
18950TIP3    H156727   5.845   9.076   0.708
18950TIP3    H256728   5.878   9.216   0.661
18951TIP3   OH256729   0.147   0.791   0.415
18951TIP3    H156730   0.170   0.729   0.346
18951TIP3    H256731   0.152   0.740   0.496
18952TIP3   OH256732   0.027   0.275   0.733
18952TIP3    H156733   0.073   0.206   0.685
18952TIP3    H256734   0.096   0.333   0.764
18953TIP3   OH256735   7.648   8.923   0.692
18953TIP3    H156736   7.642   8.979   0.770
18953TIP3    H256737   7.604   8.973   0.623
18954TIP3   OH256738   6.971   9.012   0.752
18954TIP3    H156739   6.973   8.917   0.766
18954TIP3    H256740   6.935   9.022   0.664
18955TIP3   OH256741   6.310   8.669   0.629
18955TIP3    H156742   6.292   8.741   0.569
18955TIP3    H256743   6.251   8.599   0.602
18956TIP3   OH256744   7.016   8.762   0.356
18956TIP3    H156745   7.082   8.753   0.425
18956TIP3    H256746   7.065   8.797   0.281
18957TIP3   OH256747   5.930   8.937   0.783
18957TIP3    H156748   6.021   8.921   0.808
18957TIP3    H256749   5.913   8.872   0.715
18958TIP3   OH256750   6.382   9.087   0.630
18958TIP3    H156751   6.476   9.066   0.633
18958TIP3    H256752   6.341   9.008   0.595
18959TIP3   OH256753   7.690   9.121   0.882
18959TIP3    H156754   7.606   9.164   0.863
18959TIP3    H256755   7.696   9.122   0.978
18960TIP3   OH256756   6.239   8.675   1.150
18960TIP3    H156757   6.171   8.733   1.115
18960TIP3    H256758   6.195   8.625   1.219
18961TIP3   OH256759   0.115   0.286   0.163
18961TIP3    H156760   0.075   0.254   0.082
18961TIP3    H256761   0.061   0.361   0.189
18962TIP3   OH256762   9.600   0.222   0.903
18962TIP3    H156763   9.561   0.289   0.958
18962TIP3    H256764   9.661   0.270   0.847
18963TIP3   OH256765   7.181   8.779   0.573
18963TIP3    H156766   7.118   8.766   0.644
18963TIP3    H256767   7.230   8.857   0.598
18964TIP3   OH256768   6.177   8.823   0.819
18964TIP3    H156769   6.243   8.873   0.867
18964TIP3    H256770   6.226   8.772   0.755
18965TIP3   OH256771   9.470   0.416   1.062
18965TIP3    H156772   9.490   0.501   1.024
18965TIP3    H256773   9.385   0.428   1.105
18966TIP3   OH256774   8.890   0.135   0.288
18966TIP3    H156775   8.853   0.161   0.204
18966TIP3    H256776   8.913   0.217   0.331
18967TIP3   OH256777   0.514   0.616   0.536
18967TIP3    H156778   0.426   0.609   0.573
18967TIP3    H256779   0.513   0.699   0.489
18968TIP3   OH256780   7.424   8.868   0.876
18968TIP3    H156781   7.342   8.821   0.891
18968TIP3    H256782   7.467   8.818   0.807
18969TIP3   OH256783   6.652   8.374   0.818
18969TIP3    H156784   6.665   8.280   0.805
18969TIP3    H256785   6.635   8.383   0.912
18970TIP3   OH256786   0.226   0.646   0.191
18970TIP3    H156787   0.279   0.567   0.180
18970TIP3    H256788   0.284   0.718   0.164
18971TIP3   OH256789   0.364   0.415   0.151
18971TIP3    H156790   0.291   0.354   0.152
18971TIP3    H256791   0.416   0.392   0.229
18972TIP3   OH256792   0.758   0.514   0.868
18972TIP3    H156793   0.741   0.439   0.811
18972TIP3    H256794   0.741   0.590   0.813
18973TIP3   OH256795   6.577   9.150   0.149
18973TIP3    H156796   6.492   9.189   0.131
18973TIP3    H256797   6.622   9.149   0.065
18974TIP3   OH256798   3.276   4.339   7.839
18974TIP3    H156799   3.343   4.386   7.889
18974TIP3    H256800   3.325   4.270   7.794
18975TIP3   OH256801   0.938   0.175   0.725
18975TIP3    H156802   0.854   0.220   0.731
18975TIP3    H256803   0.970   0.194   0.637
18976TIP3   OH256804   6.937   9.236   0.108
18976TIP3    H156805   6.883   9.265   0.182
18976TIP3    H256806   7.021   9.213   0.147
18977TIP3   OH256807   0.598   0.107   0.910
18977TIP3    H156808   0.616   0.184   0.857
18977TIP3    H256809   0.511   0.123   0.947
18978TIP3   OH256810   6.174   9.207   0.478
18978TIP3    H156811   6.127   9.142   0.425
18978TIP3    H256812   6.247   9.158   0.516
18979TIP3   OH256813   9.577   0.398   0.648
18979TIP3    H156814   9.545   0.386   0.558
18979TIP3    H256815   9.664   0.358   0.647
18980TIP3   OH256816   6.275   9.203   0.851
18980TIP3    H156817   6.314   9.172   0.769
18980TIP3    H256818   6.300   9.295   0.856
18981TIP3   OH256819   0.273   0.610   0.663
18981TIP3    H156820   0.262   0.690   0.715
18981TIP3    H256821   0.260   0.539   0.727
18982TIP3   OH256822   9.704   0.514   1.212
18982TIP3    H156823   9.634   0.569   1.247
18982TIP3    H256824   9.660   0.436   1.180
18983TIP3   OH256825   3.499   4.477   7.945
18983TIP3    H156826   3.559   4.535   7.991
18983TIP3    H256827   3.529   4.479   7.854
18984TIP3   OH256828   9.513   0.092   1.439
18984TIP3    H156829   9.526   0.177   1.482
18984TIP3    H256830   9.451   0.111   1.368
18985TIP3   OH256831   9.779   0.524   0.205
18985TIP3    H156832   9.860   0.575   0.207
18985TIP3    H256833   9.718   0.579   0.156
18986TIP3   OH256834   9.496   0.675   1.291
18986TIP3    H156835   9.475   0.688   1.199
18986TIP3    H256836   9.410   0.666   1.334
18987TIP3   OH256837   7.271   8.322   0.003
18987TIP3    H156838   7.198   8.345   0.059
18987TIP3    H256839   7.280   8.397  -0.056
18988TIP3   OH256840   6.016   9.042   0.311
18988TIP3    H156841   5.944   9.098   0.280
18988TIP3    H256842   5.972   8.962   0.341
18989TIP3   OH256843   3.836   5.076   7.563
18989TIP3    H156844   3.829   5.170   7.545
18989TIP3    H256845   3.926   5.054   7.537
18990TIP3   OH256846   9.026   0.297   1.216
18990TIP3    H156847   8.956   0.294   1.152
18990TIP3    H256848   9.023   0.211   1.259
18991TIP3   OH256849   8.910   0.456   0.906
18991TIP3    H156850   8.996   0.485   0.936
18991TIP3    H256851   8.853   0.532   0.917
18992TIP3   OH256852   0.984   0.863   0.952
18992TIP3    H156853   0.989   0.769   0.968
18992TIP3    H256854   0.905   0.891   0.998
18993TIP3   OH256855   0.092   0.654   1.067
18993TIP3    H156856   0.085   0.745   1.098
18993TIP3    H256857   0.023   0.608   1.115
18994TIP3   OH256858   9.670   0.748   0.031
18994TIP3    H156859   9.621   0.726  -0.048
18994TIP3    H256860   9.632   0.830   0.062
18995TIP3   OH256861   9.112   0.607   0.419
18995TIP3    H156862   9.151   0.597   0.505
18995TIP3    H256863   9.058   0.529   0.407
18996TIP3   OH256864   3.339   5.301   7.658
18996TIP3    H156865   3.391   5.228   7.623
18996TIP3    H256866   3.373   5.314   7.746
18997TIP3   OH256867   3.390   5.344   7.928
18997TIP3    H156868   3.303   5.348   7.968
18997TIP3    H256869   3.445   5.305   7.996
18998TIP3   OH256870   0.901   0.038   1.208
18998TIP3    H156871   0.806   0.046   1.202
18998TIP3    H256872   0.920  -0.051   1.178
18999TIP3   OH256873   9.241   0.466   1.201
18999TIP3    H156874   9.250   0.498   1.291
18999TIP3    H256875   9.165   0.407   1.204
19000TIP3   OH256876   6.463   8.497   1.107
19000TIP3    H156877   6.513   8.418   1.086
19000TIP3    H256878   6.457   8.544   1.023
19001TIP3   OH256879   6.975   8.483   1.231
19001TIP3    H156880   6.999   8.439   1.313
19001TIP3    H256881   6.881   8.500   1.240
19002TIP3   OH256882   7.120   9.016   1.002
19002TIP3    H156883   7.136   9.097   1.050
19002TIP3    H256884   7.098   9.045   0.914
19003TIP3   OH256885   3.580   4.450   7.685
19003TIP3    H156886   3.532   4.452   7.602
19003TIP3    H256887   3.661   4.498   7.666
19004TIP3   OH256888   6.553   8.493  -0.002
19004TIP3    H156889   6.516   8.502   0.086
19004TIP3    H256890   6.516   8.413  -0.037
19005TIP3   OH256891   6.382   8.942   0.952
19005TIP3    H156892   6.362   8.943   1.045
19005TIP3    H256893   6.361   9.031   0.922
19006TIP3   OH256894   6.216   8.903   0.517
19006TIP3    H156895   6.133   8.872   0.554
19006TIP3    H256896   6.217   8.867   0.429
19007TIP3   OH256897   6.705   8.947   0.280
19007TIP3    H156898   6.657   9.020   0.240
19007TIP3    H256899   6.760   8.913   0.209
19008TIP3   OH256900   0.462   0.055   1.382
19008TIP3    H156901   0.397  -0.002   1.423
19008TIP3    H256902   0.544   0.033   1.426
19009TIP3   OH256903   6.888   8.972   0.486
19009TIP3    H156904   6.815   8.988   0.427
19009TIP3    H256905   6.928   8.890   0.455
19010TIP3   OH256906   6.024   9.136   1.249
19010TIP3    H156907   6.024   9.223   1.290
19010TIP3    H256908   6.021   9.075   1.323
19011TIP3   OH256909   2.951   3.853   7.972
19011TIP3    H156910   2.942   3.859   8.067
19011TIP3    H256911   2.872   3.895   7.938
19012TIP3   OH256912   5.779   8.483   0.835
19012TIP3    H156913   5.854   8.540   0.852
19012TIP3    H256914   5.818   8.399   0.812
19013TIP3   OH256915   5.705   8.511   0.336
19013TIP3    H156916   5.750   8.537   0.255
19013TIP3    H256917   5.640   8.579   0.350
19014TIP3   OH256918   6.839   9.192   0.906
19014TIP3    H156919   6.887   9.128   0.854
19014TIP3    H256920   6.858   9.168   0.997
19015TIP3   OH256921   6.584   8.735   0.608
19015TIP3    H156922   6.502   8.703   0.646
19015TIP3    H256923   6.649   8.671   0.636
19016TIP3   OH256924   5.994   8.755   0.579
19016TIP3    H156925   5.911   8.769   0.534
19016TIP3    H256926   6.019   8.665   0.555
19017TIP3   OH256927   6.237   8.750   0.295
19017TIP3    H156928   6.332   8.761   0.283
19017TIP3    H256929   6.200   8.767   0.208
19018TIP3   OH256930   6.957   8.741   0.739
19018TIP3    H156931   6.953   8.688   0.819
19018TIP3    H256932   6.891   8.702   0.681
19019TIP3   OH256933   6.119   8.765   0.052
19019TIP3    H156934   6.056   8.714   0.002
19019TIP3    H256935   6.171   8.811  -0.013
19020TIP3   OH256936   0.697   1.212   1.043
19020TIP3    H156937   0.695   1.226   0.948
19020TIP3    H256938   0.777   1.255   1.073
19021TIP3   OH256939   9.300   0.344   1.490
19021TIP3    H156940   9.391   0.347   1.520
19021TIP3    H256941   9.252   0.304   1.562
19022TIP3   OH256942   6.652   9.033   0.671
19022TIP3    H156943   6.685   8.962   0.616
19022TIP3    H256944   6.663   9.001   0.760
19023TIP3   OH256945   6.112   8.514   0.511
19023TIP3    H156946   6.119   8.429   0.554
19023TIP3    H256947   6.124   8.496   0.418
19024TIP3   OH256948   6.654   8.935   0.934
19024TIP3    H156949   6.559   8.921   0.929
19024TIP3    H256950   6.666   8.991   1.010
19025TIP3   OH256951   9.603   0.031   0.091
19025TIP3    H156952   9.527  -0.023   0.067
19025TIP3    H256953   9.572   0.082   0.166
19026TIP3   OH256954   0.691   0.301   0.698
19026TIP3    H156955   0.731   0.352   0.628
19026TIP3    H256956   0.613   0.262   0.658
19027TIP3   OH256957   6.805   8.599   0.002
19027TIP3    H156958   6.712   8.576  -0.002
19027TIP3    H256959   6.806   8.694   0.013
19028TIP3   OH256960   0.235   0.414   1.113
19028TIP3    H156961   0.236   0.407   1.209
19028TIP3    H256962   0.186   0.494   1.095
19029TIP3   OH256963   6.864   8.864   0.066
19029TIP3    H156964   6.959   8.868   0.077
19029TIP3    H256965   6.843   8.942   0.014
19030TIP3   OH256966   9.307   0.068   0.693
19030TIP3    H156967   9.354   0.039   0.615
19030TIP3    H256968   9.355   0.029   0.766
19031TIP3   OH256969   3.225   4.820   7.946
19031TIP3    H156970   3.177   4.903   7.943
19031TIP3    H256971   3.167   4.761   7.994
19032TIP3   OH256972   9.213   0.020   1.525
19032TIP3    H156973   9.168   0.067   1.595
19032TIP3    H256974   9.198  -0.073   1.544
19033TIP3   OH256975   0.195   0.132   1.308
19033TIP3    H156976   0.182   0.051   1.357
19033TIP3    H256977   0.287   0.154   1.322
19034TIP3   OH256978   0.368   0.674   0.999
19034TIP3    H156979   0.272   0.665   1.002
19034TIP3    H256980   0.392   0.709   1.085
19035TIP3   OH256981   4.008   4.329   7.890
19035TIP3    H156982   3.951   4.284   7.827
19035TIP3    H256983   4.015   4.418   7.856
19036TIP3   OH256984   1.002   0.581   0.970
19036TIP3    H156985   0.907   0.570   0.961
19036TIP3    H256986   1.038   0.559   0.884
19037TIP3   OH256987   3.751   5.146   7.831
19037TIP3    H156988   3.723   5.079   7.893
19037TIP3    H256989   3.771   5.098   7.750
19038TIP3   OH256990   0.466   0.170   0.593
19038TIP3    H156991   0.374   0.150   0.609
19038TIP3    H256992   0.502   0.089   0.557
19039TIP3   OH256993   9.417   0.403   0.419
19039TIP3    H156994   9.413   0.477   0.358
19039TIP3    H256995   9.331   0.402   0.461
19040TIP3   OH256996   5.725   8.927   0.123
19040TIP3    H156997   5.767   9.010   0.144
19040TIP3    H256998   5.641   8.929   0.168
19041TIP3   OH256999   9.491   0.169   0.294
19041TIP3    H157000   9.475   0.253   0.336
19041TIP3    H257001   9.473   0.104   0.362
19042TIP3   OH257002   9.713   0.723   0.861
19042TIP3    H157003   9.746   0.799   0.813
19042TIP3    H257004   9.787   0.694   0.913
19043TIP3   OH257005   9.340   0.623   0.266
19043TIP3    H157006   9.254   0.629   0.309
19043TIP3    H257007   9.376   0.712   0.271
19044TIP3   OH257008   0.260   0.388   0.838
19044TIP3    H157009   0.251   0.390   0.933
19044TIP3    H257010   0.345   0.347   0.823
19045TIP3   OH257011   3.520   4.884   7.708
19045TIP3    H157012   3.571   4.856   7.784
19045TIP3    H257013   3.437   4.838   7.717
19046TIP3   OH257014   0.513   0.886   0.883
19046TIP3    H157015   0.445   0.821   0.903
19046TIP3    H257016   0.476   0.938   0.812
19047TIP3   OH257017   3.824   5.348   7.519
19047TIP3    H157018   3.835   5.406   7.443
19047TIP3    H257019   3.757   5.391   7.572
19048TIP3   OH257020   3.697   4.797   7.899
19048TIP3    H157021   3.680   4.744   7.977
19048TIP3    H257022   3.792   4.805   7.895
19049TIP3   OH257023   9.119   0.633   1.008
19049TIP3    H157024   9.171   0.582   1.070
19049TIP3    H257025   9.128   0.723   1.038
19050TIP3   OH257026   2.871   4.845   7.734
19050TIP3    H157027   2.880   4.754   7.708
19050TIP3    H257028   2.858   4.841   7.829
19051TIP3   OH257029   9.346   0.245   0.006
19051TIP3    H157030   9.396   0.220   0.083
19051TIP3    H257031   9.344   0.341   0.008
19052TIP3   OH257032   5.807   9.183   0.202
19052TIP3    H157033   5.743   9.234   0.254
19052TIP3    H257034   5.826   9.239   0.127
19053TIP3   OH257035   6.966   8.808   1.089
19053TIP3    H157036   6.994   8.896   1.066
19053TIP3    H257037   6.886   8.820   1.139
19054TIP3   OH257038   6.869   8.544   0.264
19054TIP3    H157039   6.847   8.565   0.173
19054TIP3    H257040   6.908   8.624   0.299
19055TIP3   OH257041   3.082   5.051   7.940
19055TIP3    H157042   2.997   5.072   7.977
19055TIP3    H257043   3.103   5.125   7.883
19056TIP3   OH257044   6.515   8.760   0.344
19056TIP3    H157045   6.578   8.826   0.313
19056TIP3    H257046   6.533   8.751   0.437
19057TIP3   OH257047   6.862   9.100   1.167
19057TIP3    H157048   6.935   9.125   1.223
19057TIP3    H257049   6.832   9.016   1.203
19058TIP3   OH257050   6.679   8.427   0.424
19058TIP3    H157051   6.706   8.473   0.503
19058TIP3    H257052   6.740   8.457   0.357
19059TIP3   OH257053   9.365   0.519   0.014
19059TIP3    H157054   9.346   0.591  -0.046
19059TIP3    H257055   9.353   0.556   0.102
19060TIP3   OH257056   6.191   8.479   0.245
19060TIP3    H157057   6.185   8.574   0.258
19060TIP3    H257058   6.283   8.458   0.256
19061TIP3   OH257059   7.502   9.034   1.087
19061TIP3    H157060   7.437   8.992   1.143
19061TIP3    H257061   7.479   9.007   0.998
19062TIP3   OH257062   7.094   9.158   0.502
19062TIP3    H157063   7.019   9.099   0.499
19062TIP3    H257064   7.157   9.113   0.557
19063TIP3   OH257065   2.568   4.734   7.986
19063TIP3    H157066   2.641   4.795   7.997
19063TIP3    H257067   2.599   4.670   7.922
19064TIP3   OH257068   5.747   8.649   0.101
19064TIP3    H157069   5.760   8.742   0.116
19064TIP3    H257070   5.664   8.644   0.054
19065TIP3   OH257071   0.538   0.881   0.453
19065TIP3    H157072   0.496   0.934   0.385
19065TIP3    H257073   0.632   0.895   0.440
19066TIP3   OH257074   6.222   8.476   0.860
19066TIP3    H157075   6.241   8.394   0.814
19066TIP3    H257076   6.221   8.452   0.952
19067TIP3   OH257077   8.934   0.393   0.387
19067TIP3    H157078   8.892   0.427   0.466
19067TIP3    H257079   8.886   0.435   0.315
19068TIP3   OH257080   9.123   0.942   1.436
19068TIP3    H157081   9.206   0.934   1.484
19068TIP3    H257082   9.089   0.852   1.432
19069TIP3   OH257083   9.599   0.845   1.483
19069TIP3    H157084   9.694   0.834   1.491
19069TIP3    H257085   9.574   0.785   1.413
19070TIP3   OH257086   3.021   5.046   7.618
19070TIP3    H157087   2.975   4.976   7.665
19070TIP3    H257088   3.096   5.001   7.579
19071TIP3   OH257089   0.423   0.778   1.248
19071TIP3    H157090   0.435   0.709   1.312
19071TIP3    H257091   0.498   0.836   1.260
19072TIP3   OH257092   3.469   5.091   7.537
19072TIP3    H157093   3.500   5.027   7.601
19072TIP3    H257094   3.532   5.085   7.465
19073TIP3   OH257095   2.689   4.541   7.837
19073TIP3    H157096   2.737   4.515   7.915
19073TIP3    H257097   2.757   4.553   7.770
19074TIP3   OH257098   0.121   0.469   1.369
19074TIP3    H157099   0.046   0.481   1.312
19074TIP3    H257100   0.094   0.401   1.431
19075TIP3   OH257101   3.271   4.761   7.682
19075TIP3    H157102   3.245   4.772   7.773
19075TIP3    H257103   3.247   4.670   7.661
19076TIP3   OH257104   0.528   0.436   0.997
19076TIP3    H157105   0.608   0.473   0.960
19076TIP3    H257106   0.467   0.509   1.001
19077TIP3   OH257107   6.123   9.097   0.050
19077TIP3    H157108   6.095   9.063   0.135
19077TIP3    H257109   6.172   9.025   0.010
19078TIP3   OH257110   6.458   9.168   1.378
19078TIP3    H157111   6.385   9.229   1.367
19078TIP3    H257112   6.489   9.152   1.289
19079TIP3   OH257113   3.005   4.304   7.893
19079TIP3    H157114   2.976   4.308   7.802
19079TIP3    H257115   3.100   4.314   7.887
19080TIP3   OH257116   0.447   0.329   1.347
19080TIP3    H157117   0.516   0.350   1.283
19080TIP3    H257118   0.464   0.238   1.372
19081TIP3   OH257119   3.795   4.587   7.574
19081TIP3    H157120   3.782   4.547   7.489
19081TIP3    H257121   3.772   4.679   7.561
19082TIP3   OH257122   6.521   8.917   1.464
19082TIP3    H157123   6.446   8.859   1.451
19082TIP3    H257124   6.494   9.001   1.426
19083TIP3   OH257125   6.500   8.773   1.194
19083TIP3    H157126   6.452   8.853   1.216
19083TIP3    H257127   6.433   8.710   1.168
19084TIP3   OH257128   0.077   0.096   0.970
19084TIP3    H157129   0.161   0.060   0.943
19084TIP3    H257130   0.044   0.141   0.892
19085TIP3   OH257131   7.243   9.200   1.464
19085TIP3    H157132   7.252   9.144   1.541
19085TIP3    H257133   7.309   9.167   1.403
19086TIP3   OH257134   0.680   0.311   1.193
19086TIP3    H157135   0.627   0.341   1.119
19086TIP3    H257136   0.770   0.310   1.160
19087TIP3   OH257137   6.710   8.529   1.253
19087TIP3    H157138   6.663   8.595   1.202
19087TIP3    H257139   6.677   8.445   1.219
19088TIP3   OH257140   6.768   8.893   1.561
19088TIP3    H157141   6.771   8.917   1.654
19088TIP3    H257142   6.676   8.903   1.536
19089TIP3   OH257143   6.990   8.999   1.392
19089TIP3    H157144   6.939   8.969   1.467
19089TIP3    H257145   7.081   8.982   1.418
19090TIP3   OH257146   7.324   9.026   1.662
19090TIP3    H157147   7.301   8.959   1.598
19090TIP3    H257148   7.305   8.987   1.747
19091TIP3   OH257149   6.870   8.390   1.505
19091TIP3    H157150   6.932   8.392   1.577
19091TIP3    H257151   6.857   8.482   1.482
19092TIP3   OH257152   2.834   5.351   7.837
19092TIP3    H157153   2.921   5.327   7.806
19092TIP3    H257154   2.793   5.395   7.762
19093TIP3   OH257155   2.294   4.742   7.989
19093TIP3    H157156   2.390   4.748   7.994
19093TIP3    H257157   2.277   4.653   7.960
19094TIP3   OH257158   8.730   0.692   0.463
19094TIP3    H157159   8.660   0.640   0.425
19094TIP3    H257160   8.772   0.633   0.526
19095TIP3   OH257161   8.875   0.526   0.629
19095TIP3    H157162   8.863   0.468   0.705
19095TIP3    H257163   8.924   0.601   0.664
19096TIP3   OH257164   0.809   0.933   0.449
19096TIP3    H157165   0.830   0.960   0.538
19096TIP3    H257166   0.864   0.988   0.394
19097TIP3   OH257167   0.832   0.965   0.729
19097TIP3    H157168   0.783   0.883   0.722
19097TIP3    H257169   0.901   0.946   0.793
19098TIP3   OH257170   0.877   0.669   1.277
19098TIP3    H157171   0.810   0.674   1.346
19098TIP3    H257172   0.926   0.750   1.286
19099TIP3   OH257173   3.976   4.798   7.905
19099TIP3    H157174   4.032   4.870   7.876
19099TIP3    H257175   4.024   4.759   7.978
19100TIP3   OH257176   0.842   0.032   0.100
19100TIP3    H157177   0.774  -0.002   0.158
19100TIP3    H257178   0.908   0.067   0.159
19101TIP3   OH257179   0.878   0.440   0.544
19101TIP3    H157180   0.930   0.376   0.495
19101TIP3    H257181   0.878   0.518   0.488
19102TIP3   OH257182   0.683   0.732   0.724
19102TIP3    H157183   0.617   0.776   0.779
19102TIP3    H257184   0.632   0.691   0.654
19103TIP3   OH257185   4.002   4.569   7.755
19103TIP3    H157186   3.930   4.569   7.692
19103TIP3    H257187   3.989   4.649   7.807
19104TIP3   OH257188   3.854   4.218   7.694
19104TIP3    H157189   3.808   4.253   7.617
19104TIP3    H257190   3.847   4.123   7.684
19105TIP3   OH257191   7.168   9.139   0.235
19105TIP3    H157192   7.166   9.045   0.222
19105TIP3    H257193   7.148   9.151   0.328
19106TIP3   OH257194   9.012   0.083   0.895
19106TIP3    H157195   9.031   0.048   0.808
19106TIP3    H257196   9.097   0.090   0.938
19107TIP3   OH257197   0.939   0.332   1.091
19107TIP3    H157198   1.007   0.266   1.074
19107TIP3    H257199   0.968   0.410   1.043
19108TIP3   OH257200   1.122   0.122   1.075
19108TIP3    H157201   1.044   0.093   1.123
19108TIP3    H257202   1.192   0.067   1.109
19109TIP3   OH257203   3.819   3.948   7.662
19109TIP3    H157204   3.885   3.920   7.724
19109TIP3    H257205   3.738   3.908   7.693
19110TIP3   OH257206   7.154   8.861   0.128
19110TIP3    H157207   7.199   8.778   0.141
19110TIP3    H257208   7.194   8.898   0.049
19111TIP3   OH257209   7.304   9.025   0.632
19111TIP3    H157210   7.382   9.050   0.584
19111TIP3    H257211   7.320   9.053   0.722
19112TIP3   OH257212   7.369   9.194   0.849
19112TIP3    H157213   7.287   9.227   0.887
19112TIP3    H257214   7.410   9.271   0.809
19113TIP3   OH257215   8.005   8.828   1.357
19113TIP3    H157216   8.079   8.781   1.396
19113TIP3    H257217   8.021   8.824   1.263
19114TIP3   OH257218   7.273   8.617   0.190
19114TIP3    H157219   7.325   8.607   0.270
19114TIP3    H257220   7.215   8.541   0.188
19115TIP3   OH257221   6.001   8.628   0.882
19115TIP3    H157222   6.067   8.559   0.873
19115TIP3    H257223   6.041   8.705   0.842
19116TIP3   OH257224   5.774   8.862   1.269
19116TIP3    H157225   5.838   8.850   1.198
19116TIP3    H257226   5.729   8.943   1.247
19117TIP3   OH257227   7.722   8.920   1.203
19117TIP3    H157228   7.641   8.960   1.170
19117TIP3    H257229   7.735   8.844   1.147
19118TIP3   OH257230   4.046   3.901   7.819
19118TIP3    H157231   4.094   3.839   7.764
19118TIP3    H257232   4.102   3.977   7.825
19119TIP3   OH257233   5.783   8.321   0.513
19119TIP3    H157234   5.696   8.314   0.551
19119TIP3    H257235   5.774   8.386   0.443
19120TIP3   OH257236   0.371   0.849   0.091
19120TIP3    H157237   0.427   0.837   0.014
19120TIP3    H257238   0.412   0.921   0.139
19121TIP3   OH257239   9.261   0.634   1.432
19121TIP3    H157240   9.168   0.656   1.439
19121TIP3    H257241   9.276   0.573   1.504
19122TIP3   OH257242   9.488   0.690   1.013
19122TIP3    H157243   9.434   0.762   0.981
19122TIP3    H257244   9.571   0.700   0.966
19123TIP3   OH257245   0.075   0.919   1.149
19123TIP3    H157246   0.112   0.919   1.237
19123TIP3    H257247   0.134   0.973   1.097
19124TIP3   OH257248   0.267   1.076   1.027
19124TIP3    H157249   0.331   1.022   0.982
19124TIP3    H257250   0.319   1.132   1.085
19125TIP3   OH257251   7.690   8.728   1.011
19125TIP3    H157252   7.596   8.743   0.998
19125TIP3    H257253   7.695   8.640   1.049
19126TIP3   OH257254   9.138   0.915   1.061
19126TIP3    H157255   9.049   0.937   1.037
19126TIP3    H257256   9.163   0.981   1.125
19127TIP3   OH257257   9.370   0.917   0.911
19127TIP3    H157258   9.286   0.917   0.958
19127TIP3    H257259   9.346   0.938   0.821
19128TIP3   OH257260   9.783   0.940   0.706
19128TIP3    H157261   9.709   0.949   0.646
19128TIP3    H257262   9.791   1.026   0.747
19129TIP3   OH257263   0.244   0.869   0.756
19129TIP3    H157264   0.153   0.891   0.736
19129TIP3    H257265   0.295   0.935   0.711
19130TIP3   OH257266   0.444   1.040   0.657
19130TIP3    H157267   0.445   1.127   0.620
19130TIP3    H257268   0.474   0.983   0.587
19131TIP3   OH257269   9.044   0.715   0.747
19131TIP3    H157270   9.034   0.700   0.841
19131TIP3    H257271   9.123   0.666   0.723
19132TIP3   OH257272   9.259   0.572   0.653
19132TIP3    H157273   9.272   0.492   0.705
19132TIP3    H257274   9.344   0.616   0.658
19133TIP3   OH257275   9.524   0.672   0.663
19133TIP3    H157276   9.545   0.580   0.645
19133TIP3    H257277   9.581   0.695   0.737
19134TIP3   OH257278   6.784   8.543   0.649
19134TIP3    H157279   6.749   8.485   0.716
19134TIP3    H257280   6.871   8.508   0.630
19135TIP3   OH257281   7.323   8.482   0.608
19135TIP3    H157282   7.364   8.535   0.540
19135TIP3    H257283   7.231   8.510   0.607
19136TIP3   OH257284   7.457   8.590   0.395
19136TIP3    H157285   7.515   8.518   0.370
19136TIP3    H257286   7.513   8.668   0.388
19137TIP3   OH257287   6.137   8.266   0.610
19137TIP3    H157288   6.061   8.273   0.668
19137TIP3    H257289   6.141   8.174   0.586
19138TIP3   OH257290   5.881   8.120   0.357
19138TIP3    H157291   5.914   8.173   0.285
19138TIP3    H257292   5.851   8.184   0.422
19139TIP3   OH257293   6.489   8.307   0.601
19139TIP3    H157294   6.538   8.349   0.530
19139TIP3    H257295   6.527   8.343   0.681
19140TIP3   OH257296   7.036   8.451   0.567
19140TIP3    H157297   7.065   8.432   0.478
19140TIP3    H257298   7.011   8.366   0.604
19141TIP3   OH257299   7.095   8.400   0.200
19141TIP3    H157300   7.011   8.445   0.216
19141TIP3    H257301   7.081   8.311   0.232
19142TIP3   OH257302   8.810   0.503   0.166
19142TIP3    H157303   8.725   0.470   0.137
19142TIP3    H257304   8.813   0.593   0.135
19143TIP3   OH257305   5.986   8.294   0.159
19143TIP3    H157306   6.033   8.236   0.100
19143TIP3    H257307   6.054   8.353   0.193
19144TIP3   OH257308   6.465   8.504   0.260
19144TIP3    H157309   6.526   8.452   0.314
19144TIP3    H257310   6.481   8.594   0.288
19145TIP3   OH257311   3.085   5.269   7.762
19145TIP3    H157312   3.168   5.297   7.723
19145TIP3    H257313   3.054   5.198   7.705
19146TIP3   OH257314   3.787   5.415   7.864
19146TIP3    H157315   3.780   5.320   7.858
19146TIP3    H257316   3.743   5.449   7.786
19147TIP3   OH257317   2.394   5.115   7.821
19147TIP3    H157318   2.392   5.119   7.916
19147TIP3    H257319   2.475   5.067   7.801
19148TIP3   OH257320   7.381   8.661   1.627
19148TIP3    H157321   7.452   8.600   1.606
19148TIP3    H257322   7.418   8.747   1.610
19149TIP3   OH257323   0.736   0.938   1.043
19149TIP3    H157324   0.660   0.908   0.993
19149TIP3    H257325   0.721   1.032   1.054
19150TIP3   OH257326   5.283   4.950   7.786
19150TIP3    H157327   5.250   5.035   7.759
19150TIP3    H257328   5.214   4.888   7.763
19151TIP3   OH257329   2.013   0.319   0.215
19151TIP3    H157330   2.068   0.298   0.291
19151TIP3    H257331   1.969   0.236   0.195
19152TIP3   OH257332   1.303   0.182   0.542
19152TIP3    H157333   1.337   0.135   0.618
19152TIP3    H257334   1.381   0.199   0.488
19153TIP3   OH257335   5.547   5.245   7.889
19153TIP3    H157336   5.535   5.177   7.955
19153TIP3    H257337   5.567   5.324   7.940
19154TIP3   OH257338   1.306   0.598   0.233
19154TIP3    H157339   1.288   0.505   0.242
19154TIP3    H257340   1.401   0.604   0.228
19155TIP3   OH257341   7.504   9.024   0.050
19155TIP3    H157342   7.473   9.113   0.063
19155TIP3    H257343   7.435   8.982  -0.003
19156TIP3   OH257344   1.075   0.112   0.237
19156TIP3    H157345   1.127   0.036   0.264
19156TIP3    H257346   1.140   0.177   0.212
19157TIP3   OH257347   5.212   5.665   7.908
19157TIP3    H157348   5.234   5.603   7.838
19157TIP3    H257349   5.221   5.614   7.988
19158TIP3   OH257350   1.820   0.536   0.215
19158TIP3    H157351   1.867   0.457   0.190
19158TIP3    H257352   1.888   0.595   0.247
19159TIP3   OH257353   9.387   9.094   0.236
19159TIP3    H157354   9.403   9.180   0.276
19159TIP3    H257355   9.405   9.108   0.143
19160TIP3   OH257356   8.762   9.263   0.256
19160TIP3    H157357   8.794   9.176   0.280
19160TIP3    H257358   8.719   9.249   0.171
19161TIP3   OH257359   8.129   8.921   0.205
19161TIP3    H157360   8.106   8.993   0.145
19161TIP3    H257361   8.073   8.848   0.178
19162TIP3   OH257362   5.549   4.436   7.861
19162TIP3    H157363   5.613   4.413   7.928
19162TIP3    H257364   5.601   4.446   7.781
19163TIP3   OH257365   7.745   9.127   0.336
19163TIP3    H157366   7.829   9.111   0.379
19163TIP3    H257367   7.752   9.083   0.251
19164TIP3   OH257368   1.623   0.091   0.154
19164TIP3    H157369   1.718   0.080   0.157
19164TIP3    H257370   1.590   0.010   0.116
19165TIP3   OH257371   2.908   0.079   0.396
19165TIP3    H157372   2.818   0.113   0.392
19165TIP3    H257373   2.942   0.113   0.479
19166TIP3   OH257374   5.176   5.165   7.648
19166TIP3    H157375   5.136   5.131   7.568
19166TIP3    H257376   5.121   5.239   7.673
19167TIP3   OH257377   1.649   0.458   0.419
19167TIP3    H157378   1.597   0.531   0.454
19167TIP3    H257379   1.699   0.497   0.348
19168TIP3   OH257380   8.980   9.041   0.080
19168TIP3    H157381   8.934   9.019   0.161
19168TIP3    H257382   9.029   9.120   0.101
19169TIP3   OH257383   7.998   9.039   0.419
19169TIP3    H157384   8.052   9.105   0.460
19169TIP3    H257385   8.053   9.002   0.350
19170TIP3   OH257386   1.501   0.666   0.529
19170TIP3    H157387   1.488   0.756   0.499
19170TIP3    H257388   1.424   0.648   0.582
19171TIP3   OH257389   4.144   4.993   7.789
19171TIP3    H157390   4.108   5.014   7.703
19171TIP3    H257391   4.167   5.077   7.827
19172TIP3   OH257392   2.311   0.872   0.030
19172TIP3    H157393   2.223   0.865   0.067
19172TIP3    H257394   2.311   0.955  -0.017
19173TIP3   OH257395   9.186   8.988   0.405
19173TIP3    H157396   9.101   9.001   0.363
19173TIP3    H257397   9.249   9.013   0.338
19174TIP3   OH257398   8.460   8.616   0.386
19174TIP3    H157399   8.453   8.523   0.410
19174TIP3    H257400   8.389   8.658   0.434
19175TIP3   OH257401   5.288   5.523   7.681
19175TIP3    H157402   5.341   5.444   7.671
19175TIP3    H257403   5.346   5.594   7.653
19176TIP3   OH257404   5.427   5.292   7.644
19176TIP3    H157405   5.354   5.231   7.642
19176TIP3    H257406   5.477   5.268   7.722
19177TIP3   OH257407   2.551   0.754   0.371
19177TIP3    H157408   2.530   0.681   0.314
19177TIP3    H257409   2.537   0.832   0.317
19178TIP3   OH257410   5.108   4.787   7.643
19178TIP3    H157411   5.023   4.826   7.622
19178TIP3    H257412   5.153   4.780   7.559
19179TIP3   OH257413   5.067   4.606   7.327
19179TIP3    H157414   5.135   4.646   7.380
19179TIP3    H257415   5.109   4.529   7.288
19180TIP3   OH257416   2.725   0.421   0.241
19180TIP3    H157417   2.640   0.465   0.237
19180TIP3    H257418   2.761   0.432   0.153
19181TIP3   OH257419   5.468   4.872   7.599
19181TIP3    H157420   5.414   4.902   7.672
19181TIP3    H257421   5.550   4.844   7.640
19182TIP3   OH257422   2.428   0.279   0.551
19182TIP3    H157423   2.422   0.362   0.598
19182TIP3    H257424   2.348   0.274   0.499
19183TIP3   OH257425   4.693   4.845   8.002
19183TIP3    H157426   4.656   4.784   7.938
19183TIP3    H257427   4.766   4.797   8.042
19184TIP3   OH257428   1.570   0.654   0.145
19184TIP3    H157429   1.546   0.639   0.053
19184TIP3    H257430   1.657   0.614   0.153
19185TIP3   OH257431   1.525   0.216   0.380
19185TIP3    H157432   1.563   0.178   0.301
19185TIP3    H257433   1.573   0.298   0.392
19186TIP3   OH257434   2.069   0.869   0.156
19186TIP3    H157435   2.058   0.948   0.208
19186TIP3    H257436   2.056   0.797   0.218
19187TIP3   OH257437   1.696   0.760   0.704
19187TIP3    H157438   1.634   0.816   0.751
19187TIP3    H257439   1.641   0.709   0.644
19188TIP3   OH257440   5.299   4.719   7.443
19188TIP3    H157441   5.359   4.777   7.491
19188TIP3    H257442   5.327   4.726   7.352
19189TIP3   OH257443   1.451   0.313   0.841
19189TIP3    H157444   1.461   0.404   0.869
19189TIP3    H257445   1.356   0.301   0.833
19190TIP3   OH257446   5.039   5.404   7.687
19190TIP3    H157447   5.122   5.452   7.694
19190TIP3    H257448   4.981   5.464   7.640
19191TIP3   OH257449   1.485   0.918   0.790
19191TIP3    H157450   1.461   0.929   0.698
19191TIP3    H257451   1.402   0.905   0.836
19192TIP3   OH257452   5.808   3.957   7.493
19192TIP3    H157453   5.728   3.969   7.544
19192TIP3    H257454   5.812   4.034   7.437
19193TIP3   OH257455   4.566   4.687   7.805
19193TIP3    H157456   4.484   4.731   7.779
19193TIP3    H257457   4.544   4.594   7.806
19194TIP3   OH257458   5.639   5.332   7.052
19194TIP3    H157459   5.630   5.425   7.032
19194TIP3    H257460   5.726   5.309   7.018
19195TIP3   OH257461   1.086   0.488   0.729
19195TIP3    H157462   1.015   0.469   0.669
19195TIP3    H257463   1.122   0.403   0.752
19196TIP3   OH257464   0.920   0.679   0.402
19196TIP3    H157465   1.010   0.706   0.424
19196TIP3    H257466   0.866   0.755   0.424
19197TIP3   OH257467   2.781   1.126   0.440
19197TIP3    H157468   2.786   1.031   0.450
19197TIP3    H257469   2.701   1.151   0.486
19198TIP3   OH257470   1.884   0.908   0.569
19198TIP3    H157471   1.874   0.998   0.598
19198TIP3    H257472   1.817   0.859   0.616
19199TIP3   OH257473   4.932   5.623   7.520
19199TIP3    H157474   4.885   5.602   7.439
19199TIP3    H257475   4.894   5.705   7.550
19200TIP3   OH257476   4.367   5.481   7.899
19200TIP3    H157477   4.411   5.472   7.983
19200TIP3    H257478   4.318   5.399   7.889
19201TIP3   OH257479   5.134   5.558   7.146
19201TIP3    H157480   5.184   5.484   7.112
19201TIP3    H257481   5.168   5.571   7.234
19202TIP3   OH257482   5.186   5.600   7.416
19202TIP3    H157483   5.099   5.604   7.456
19202TIP3    H257484   5.242   5.562   7.483
19203TIP3   OH257485   2.670   0.231   0.706
19203TIP3    H157486   2.588   0.242   0.659
19203TIP3    H257487   2.688   0.137   0.702
19204TIP3   OH257488   1.286   0.674   0.703
19204TIP3    H157489   1.338   0.659   0.782
19204TIP3    H257490   1.214   0.612   0.709
19205TIP3   OH257491   8.729   8.841   0.724
19205TIP3    H157492   8.794   8.814   0.789
19205TIP3    H257493   8.645   8.823   0.766
19206TIP3   OH257494   2.429   0.014   0.645
19206TIP3    H157495   2.388   0.011   0.732
19206TIP3    H257496   2.412   0.103   0.614
19207TIP3   OH257497   5.372   4.723   7.181
19207TIP3    H157498   5.327   4.714   7.097
19207TIP3    H257499   5.453   4.770   7.160
19208TIP3   OH257500   1.604   0.003   0.549
19208TIP3    H157501   1.550   0.013   0.628
19208TIP3    H257502   1.584   0.080   0.496
19209TIP3   OH257503   8.020   9.115   0.044
19209TIP3    H157504   7.930   9.089   0.062
19209TIP3    H257505   8.039   9.077  -0.042
19210TIP3   OH257506   5.229   4.584   7.783
19210TIP3    H157507   5.184   4.654   7.737
19210TIP3    H257508   5.282   4.541   7.716
19211TIP3   OH257509   2.146   0.222   0.851
19211TIP3    H157510   2.120   0.154   0.913
19211TIP3    H257511   2.239   0.238   0.871
19212TIP3   OH257512   5.389   4.601   8.009
19212TIP3    H157513   5.320   4.619   7.944
19212TIP3    H257514   5.443   4.533   7.968
19213TIP3   OH257515   1.421   0.044   0.755
19213TIP3    H157516   1.442   0.122   0.806
19213TIP3    H257517   1.356  -0.002   0.808
19214TIP3   OH257518   4.771   4.141   7.463
19214TIP3    H157519   4.777   4.112   7.555
19214TIP3    H257520   4.682   4.174   7.454
19215TIP3   OH257521   7.637   8.785   0.304
19215TIP3    H157522   7.609   8.872   0.273
19215TIP3    H257523   7.630   8.728   0.228
19216TIP3   OH257524   4.198   4.132   7.836
19216TIP3    H157525   4.245   4.166   7.760
19216TIP3    H257526   4.132   4.199   7.856
19217TIP3   OH257527   2.181   0.228   0.425
19217TIP3    H157528   2.205   0.160   0.362
19217TIP3    H257529   2.135   0.180   0.495
19218TIP3   OH257530   8.395   8.934   0.107
19218TIP3    H157531   8.314   8.924   0.158
19218TIP3    H257532   8.465   8.918   0.170
19219TIP3   OH257533   7.777   8.996   0.100
19219TIP3    H157534   7.688   8.991   0.064
19219TIP3    H257535   7.813   8.908   0.088
19220TIP3   OH257536   4.768   4.346   7.806
19220TIP3    H157537   4.860   4.373   7.805
19220TIP3    H257538   4.733   4.377   7.722
19221TIP3   OH257539   8.833   9.001   0.318
19221TIP3    H157540   8.810   9.022   0.409
19221TIP3    H257541   8.767   8.938   0.290
19222TIP3   OH257542   4.642   4.418   7.567
19222TIP3    H157543   4.583   4.361   7.517
19222TIP3    H257544   4.701   4.455   7.502
19223TIP3   OH257545   2.495   1.464   0.527
19223TIP3    H157546   2.493   1.478   0.433
19223TIP3    H257547   2.574   1.510   0.557
19224TIP3   OH257548   1.440   0.582   0.932
19224TIP3    H157549   1.520   0.598   0.981
19224TIP3    H257550   1.370   0.589   0.998
19225TIP3   OH257551   1.899   0.053   0.202
19225TIP3    H157552   1.960   0.002   0.149
19225TIP3    H257553   1.898   0.009   0.287
19226TIP3   OH257554   7.925   8.757   0.092
19226TIP3    H157555   7.894   8.680   0.140
19226TIP3    H257556   7.952   8.723   0.007
19227TIP3   OH257557   8.405   9.198   0.469
19227TIP3    H157558   8.320   9.232   0.497
19227TIP3    H257559   8.469   9.248   0.519
19228TIP3   OH257560   4.866   4.913   7.585
19228TIP3    H157561   4.791   4.859   7.560
19228TIP3    H257562   4.839   4.956   7.666
19229TIP3   OH257563   2.489   0.556   0.191
19229TIP3    H157564   2.526   0.604   0.117
19229TIP3    H257565   2.411   0.513   0.156
19230TIP3   OH257566   5.268   4.260   7.432
19230TIP3    H157567   5.218   4.200   7.488
19230TIP3    H257568   5.305   4.324   7.493
19231TIP3   OH257569   2.015   0.641   0.606
19231TIP3    H157570   2.065   0.628   0.687
19231TIP3    H257571   1.973   0.727   0.618
19232TIP3   OH257572   5.389   4.480   7.571
19232TIP3    H157573   5.484   4.484   7.584
19232TIP3    H257574   5.369   4.558   7.519
19233TIP3   OH257575   1.294   0.307   0.228
19233TIP3    H157576   1.334   0.290   0.142
19233TIP3    H257577   1.360   0.278   0.291
19234TIP3   OH257578   5.020   5.075   7.430
19234TIP3    H157579   4.972   5.158   7.427
19234TIP3    H257580   4.965   5.017   7.482
19235TIP3   OH257581   1.178   0.249   0.843
19235TIP3    H157582   1.177   0.215   0.932
19235TIP3    H257583   1.102   0.209   0.801
19236TIP3   OH257584   1.919   0.383   0.890
19236TIP3    H157585   1.849   0.323   0.865
19236TIP3    H257586   1.999   0.338   0.861
19237TIP3   OH257587   2.155   0.932   0.494
19237TIP3    H157588   2.060   0.916   0.496
19237TIP3    H257589   2.176   0.965   0.581
19238TIP3   OH257590   5.807   4.581   7.376
19238TIP3    H157591   5.752   4.535   7.312
19238TIP3    H257592   5.808   4.672   7.345
19239TIP3   OH257593   2.795   0.850   0.457
19239TIP3    H157594   2.702   0.827   0.455
19239TIP3    H257595   2.829   0.816   0.374
19240TIP3   OH257596   5.548   5.403   7.318
19240TIP3    H157597   5.521   5.335   7.380
19240TIP3    H257598   5.570   5.355   7.238
19241TIP3   OH257599   2.264   0.420   0.085
19241TIP3    H157600   2.174   0.398   0.111
19241TIP3    H257601   2.298   0.339   0.047
19242TIP3   OH257602   4.687   5.275   7.908
19242TIP3    H157603   4.681   5.350   7.849
19242TIP3    H257604   4.600   5.270   7.947
19243TIP3   OH257605   4.241   4.559   7.617
19243TIP3    H157606   4.284   4.641   7.642
19243TIP3    H257607   4.160   4.559   7.668
19244TIP3   OH257608   4.761   5.031   7.804
19244TIP3    H157609   4.747   5.119   7.838
19244TIP3    H257610   4.739   4.973   7.877
19245TIP3   OH257611   1.703   0.979   0.359
19245TIP3    H157612   1.739   1.053   0.310
19245TIP3    H257613   1.778   0.946   0.410
19246TIP3   OH257614   4.603   5.497   7.757
19246TIP3    H157615   4.515   5.504   7.795
19246TIP3    H257616   4.639   5.585   7.763
19247TIP3   OH257617   2.049   0.648   0.331
19247TIP3    H157618   2.037   0.644   0.426
19247TIP3    H257619   2.122   0.589   0.314
19248TIP3   OH257620   5.317   5.137   7.196
19248TIP3    H157621   5.368   5.109   7.272
19248TIP3    H257622   5.234   5.090   7.205
19249TIP3   OH257623   2.310   1.134   0.371
19249TIP3    H157624   2.241   1.071   0.396
19249TIP3    H257625   2.271   1.186   0.301
19250TIP3   OH257626   5.622   5.605   7.007
19250TIP3    H157627   5.637   5.664   6.933
19250TIP3    H257628   5.553   5.646   7.058
19251TIP3   OH257629   7.902   8.904   0.841
19251TIP3    H157630   7.852   8.978   0.876
19251TIP3    H257631   7.964   8.883   0.911
19252TIP3   OH257632   5.494   5.053   7.388
19252TIP3    H157633   5.476   4.998   7.464
19252TIP3    H257634   5.589   5.061   7.386
19253TIP3   OH257635   1.131   0.873   0.521
19253TIP3    H157636   1.187   0.816   0.574
19253TIP3    H257637   1.144   0.960   0.558
19254TIP3   OH257638   4.664   5.100   7.221
19254TIP3    H157639   4.678   5.009   7.196
19254TIP3    H257640   4.651   5.098   7.315
19255TIP3   OH257641   4.606   5.120   7.493
19255TIP3    H157642   4.666   5.093   7.562
19255TIP3    H257643   4.605   5.215   7.498
19256TIP3   OH257644   4.336   4.808   7.701
19256TIP3    H157645   4.273   4.859   7.752
19256TIP3    H257646   4.358   4.865   7.627
19257TIP3   OH257647   8.766   9.070   0.577
19257TIP3    H157648   8.846   9.111   0.609
19257TIP3    H257649   8.755   8.992   0.632
19258TIP3   OH257650   5.399   4.175   7.771
19258TIP3    H157651   5.322   4.149   7.720
19258TIP3    H257652   5.398   4.271   7.767
19259TIP3   OH257653   4.874   5.303   7.423
19259TIP3    H157654   4.790   5.327   7.463
19259TIP3    H257655   4.898   5.379   7.370
19260TIP3   OH257656   5.019   4.430   7.878
19260TIP3    H157657   5.090   4.483   7.841
19260TIP3    H257658   5.059   4.386   7.953
19261TIP3   OH257659   2.078   0.064   0.621
19261TIP3    H157660   2.101   0.105   0.705
19261TIP3    H257661   2.127  -0.017   0.620
19262TIP3   OH257662   5.238   4.088   7.986
19262TIP3    H157663   5.194   4.170   8.011
19262TIP3    H257664   5.287   4.110   7.907
19263TIP3   OH257665   4.626   5.393   7.505
19263TIP3    H157666   4.608   5.466   7.445
19263TIP3    H257667   4.616   5.430   7.592
19264TIP3   OH257668   4.760   4.076   7.737
19264TIP3    H157669   4.764   4.166   7.769
19264TIP3    H257670   4.850   4.045   7.740
19265TIP3   OH257671   9.224   9.192   0.616
19265TIP3    H157672   9.130   9.204   0.630
19265TIP3    H257673   9.230   9.132   0.541
19266TIP3   OH257674   2.354   0.161  -0.000
19266TIP3    H157675   2.275   0.107   0.010
19266TIP3    H257676   2.419   0.120   0.056
19267TIP3   OH257677   4.364   4.983   7.483
19267TIP3    H157678   4.436   5.046   7.493
19267TIP3    H257679   4.396   4.921   7.417
19268TIP3   OH257680   4.266   4.281   7.618
19268TIP3    H157681   4.277   4.376   7.624
19268TIP3    H257682   4.220   4.268   7.535
19269TIP3   OH257683   5.601   5.756   7.944
19269TIP3    H157684   5.560   5.809   7.875
19269TIP3    H257685   5.695   5.768   7.930
19270TIP3   OH257686   4.189   5.261   7.874
19270TIP3    H157687   4.147   5.297   7.952
19270TIP3    H257688   4.144   5.304   7.801
19271TIP3   OH257689   1.135   1.174   0.943
19271TIP3    H157690   1.217   1.180   0.993
19271TIP3    H257691   1.123   1.080   0.929
19272TIP3   OH257692   1.596   1.078   0.986
19272TIP3    H157693   1.686   1.047   0.995
19272TIP3    H257694   1.560   1.026   0.914
19273TIP3   OH257695   4.815   5.302   7.105
19273TIP3    H157696   4.769   5.233   7.153
19273TIP3    H257697   4.890   5.258   7.066
19274TIP3   OH257698   2.208   1.023   0.747
19274TIP3    H157699   2.225   0.952   0.810
19274TIP3    H257700   2.283   1.082   0.757
19275TIP3   OH257701   5.260   5.345   7.028
19275TIP3    H157702   5.293   5.280   7.090
19275TIP3    H257703   5.319   5.339   6.953
19276TIP3   OH257704   1.234   0.591   1.123
19276TIP3    H157705   1.261   0.500   1.137
19276TIP3    H257706   1.146   0.585   1.085
19277TIP3   OH257707   4.485   4.795   7.325
19277TIP3    H157708   4.532   4.771   7.404
19277TIP3    H257709   4.553   4.808   7.258
19278TIP3   OH257710   1.854   0.658   0.906
19278TIP3    H157711   1.807   0.678   0.825
19278TIP3    H257712   1.888   0.570   0.893
19279TIP3   OH257713   5.063   5.016   7.166
19279TIP3    H157714   5.040   5.027   7.258
19279TIP3    H257715   5.041   4.925   7.145
19280TIP3   OH257716   2.327   0.709   0.529
19280TIP3    H157717   2.403   0.734   0.477
19280TIP3    H257718   2.262   0.777   0.511
19281TIP3   OH257719   1.356   0.346   1.137
19281TIP3    H157720   1.419   0.288   1.095
19281TIP3    H257721   1.387   0.355   1.227
19282TIP3   OH257722   4.653   4.742   7.539
19282TIP3    H157723   4.635   4.712   7.628
19282TIP3    H257724   4.702   4.670   7.499
19283TIP3   OH257725   1.714   0.211   0.797
19283TIP3    H157726   1.627   0.251   0.806
19283TIP3    H257727   1.743   0.237   0.709
19284TIP3   OH257728   4.797   4.561   7.387
19284TIP3    H157729   4.768   4.559   7.295
19284TIP3    H257730   4.892   4.572   7.382
19285TIP3   OH257731   2.205   0.577   0.869
19285TIP3    H157732   2.274   0.539   0.814
19285TIP3    H257733   2.202   0.520   0.946
19286TIP3   OH257734   5.591   4.849   7.064
19286TIP3    H157735   5.575   4.806   6.980
19286TIP3    H257736   5.569   4.941   7.049
19287TIP3   OH257737   8.347   9.214   0.896
19287TIP3    H157738   8.343   9.145   0.831
19287TIP3    H257739   8.312   9.292   0.852
19288TIP3   OH257740   8.338   9.021   0.682
19288TIP3    H157741   8.384   9.060   0.608
19288TIP3    H257742   8.246   9.024   0.657
19289TIP3   OH257743   1.820   0.298   0.563
19289TIP3    H157744   1.908   0.333   0.551
19289TIP3    H257745   1.764   0.357   0.512
19290TIP3   OH257746   2.415   0.259   0.945
19290TIP3    H157747   2.453   0.172   0.947
19290TIP3    H257748   2.490   0.318   0.935
19291TIP3   OH257749   2.443   0.525   0.691
19291TIP3    H157750   2.391   0.588   0.641
19291TIP3    H257751   2.532   0.537   0.659
19292TIP3   OH257752   1.711   0.069   1.143
19292TIP3    H157753   1.642   0.008   1.170
19292TIP3    H257754   1.735   0.042   1.055
19293TIP3   OH257755   8.459   8.789   0.788
19293TIP3    H157756   8.418   8.869   0.757
19293TIP3    H257757   8.398   8.719   0.763
19294TIP3   OH257758   8.599   9.250   1.007
19294TIP3    H157759   8.586   9.236   1.101
19294TIP3    H257760   8.513   9.230   0.968
19295TIP3   OH257761   8.848   9.213   0.885
19295TIP3    H157762   8.768   9.209   0.938
19295TIP3    H257763   8.917   9.182   0.944
19296TIP3   OH257764   9.087   9.168   1.026
19296TIP3    H157765   9.097   9.073   1.033
19296TIP3    H257766   9.080   9.198   1.116
19297TIP3   OH257767   8.088   9.092   1.207
19297TIP3    H157768   8.085   9.008   1.161
19297TIP3    H257769   8.114   9.070   1.296
19298TIP3   OH257770   8.534   8.767   1.054
19298TIP3    H157771   8.601   8.700   1.050
19298TIP3    H257772   8.502   8.775   0.964
19299TIP3   OH257773   8.635   8.967   1.215
19299TIP3    H157774   8.603   8.899   1.156
19299TIP3    H257775   8.564   9.032   1.219
19300TIP3   OH257776   4.629   5.605   7.325
19300TIP3    H157777   4.717   5.581   7.295
19300TIP3    H257778   4.590   5.651   7.251
19301TIP3   OH257779   4.090   4.991   7.489
19301TIP3    H157780   4.186   4.999   7.491
19301TIP3    H257781   4.074   4.904   7.454
19302TIP3   OH257782   3.993   5.567   7.963
19302TIP3    H157783   3.929   5.514   7.916
19302TIP3    H257784   4.037   5.506   8.021
19303TIP3   OH257785   0.871   0.778   0.127
19303TIP3    H157786   0.862   0.710   0.193
19303TIP3    H257787   0.925   0.846   0.169
19304TIP3   OH257788   5.873   5.803   7.938
19304TIP3    H157789   5.893   5.830   8.028
19304TIP3    H257790   5.930   5.859   7.884
19305TIP3   OH257791   2.624   1.215   0.216
19305TIP3    H157792   2.578   1.132   0.212
19305TIP3    H257793   2.694   1.201   0.280
19306TIP3   OH257794   2.684   0.911   0.782
19306TIP3    H157795   2.610   0.922   0.842
19306TIP3    H257796   2.727   0.997   0.782
19307TIP3   OH257797   5.774   5.054   7.397
19307TIP3    H157798   5.831   5.125   7.369
19307TIP3    H257799   5.818   5.015   7.472
19308TIP3   OH257800   5.900   4.909   7.599
19308TIP3    H157801   5.833   4.870   7.655
19308TIP3    H257802   5.964   4.945   7.660
19309TIP3   OH257803   5.942   5.314   8.035
19309TIP3    H157804   5.994   5.245   7.992
19309TIP3    H257805   5.945   5.387   7.973
19310TIP3   OH257806   2.483   0.976   0.223
19310TIP3    H157807   2.417   1.022   0.274
19310TIP3    H257808   2.434   0.936   0.151
19311TIP3   OH257809   5.794   4.824   7.247
19311TIP3    H157810   5.722   4.827   7.184
19311TIP3    H257811   5.783   4.903   7.300
19312TIP3   OH257812   5.664   4.466   7.173
19312TIP3    H157813   5.612   4.500   7.100
19312TIP3    H257814   5.655   4.371   7.166
19313TIP3   OH257815   5.693   4.769   7.732
19313TIP3    H157816   5.693   4.674   7.717
19313TIP3    H257817   5.672   4.778   7.825
19314TIP3   OH257818   1.044   0.226   0.482
19314TIP3    H157819   1.037   0.193   0.392
19314TIP3    H257820   1.137   0.222   0.502
19315TIP3   OH257821   2.699   0.563   0.591
19315TIP3    H157822   2.768   0.498   0.575
19315TIP3    H257823   2.701   0.620   0.514
19316TIP3   OH257824   2.882   0.355   0.585
19316TIP3    H157825   2.808   0.313   0.629
19316TIP3    H257826   2.957   0.300   0.607
19317TIP3   OH257827   5.617   4.194   7.141
19317TIP3    H157828   5.676   4.172   7.212
19317TIP3    H257829   5.532   4.159   7.169
19318TIP3   OH257830   5.683   4.486   7.616
19318TIP3    H157831   5.729   4.403   7.629
19318TIP3    H257832   5.725   4.524   7.538
19319TIP3   OH257833   2.570   0.042   0.145
19319TIP3    H157834   2.651   0.059   0.096
19319TIP3    H257835   2.585   0.082   0.230
19320TIP3   OH257836   2.647   0.191   0.373
19320TIP3    H157837   2.573   0.217   0.428
19320TIP3    H257838   2.675   0.271   0.330
19321TIP3   OH257839   7.828   9.166   1.154
19321TIP3    H157840   7.921   9.168   1.178
19321TIP3    H257841   7.796   9.083   1.188
19322TIP3   OH257842   9.642   9.024   0.905
19322TIP3    H157843   9.708   8.971   0.862
19322TIP3    H257844   9.602   9.075   0.834
19323TIP3   OH257845   5.804   4.240   7.671
19323TIP3    H157846   5.846   4.226   7.756
19323TIP3    H257847   5.740   4.169   7.663
19324TIP3   OH257848   7.851   8.821   0.502
19324TIP3    H157849   7.795   8.790   0.431
19324TIP3    H257850   7.904   8.890   0.464
19325TIP3   OH257851   7.546   9.125   0.530
19325TIP3    H157852   7.609   9.120   0.458
19325TIP3    H257853   7.544   9.218   0.554
19326TIP3   OH257854   9.489   9.140   0.711
19326TIP3    H157855   9.407   9.180   0.739
19326TIP3    H257856   9.463   9.067   0.655
19327TIP3   OH257857   5.840   4.158   7.303
19327TIP3    H157858   5.890   4.096   7.250
19327TIP3    H257859   5.898   4.234   7.312
19328TIP3   OH257860   7.539   8.649   0.077
19328TIP3    H157861   7.452   8.623   0.107
19328TIP3    H257862   7.524   8.689  -0.009
19329TIP3   OH257863   5.431   5.726   7.579
19329TIP3    H157864   5.487   5.714   7.502
19329TIP3    H257865   5.474   5.796   7.629
19330TIP3   OH257866   7.752   8.646   0.761
19330TIP3    H157867   7.756   8.659   0.856
19330TIP3    H257868   7.663   8.614   0.746
19331TIP3   OH257869   1.259   0.897   0.955
19331TIP3    H157870   1.166   0.874   0.948
19331TIP3    H257871   1.281   0.881   1.047
19332TIP3   OH257872   1.475   0.944   0.507
19332TIP3    H157873   1.424   1.019   0.477
19332TIP3    H257874   1.560   0.952   0.464
19333TIP3   OH257875   1.866   1.174   0.648
19333TIP3    H157876   1.903   1.166   0.735
19333TIP3    H257877   1.929   1.228   0.599
19334TIP3   OH257878   2.056   1.327   0.519
19334TIP3    H157879   2.115   1.272   0.467
19334TIP3    H257880   2.115   1.384   0.569
19335TIP3   OH257881   9.402   8.892   0.603
19335TIP3    H157882   9.315   8.888   0.562
19335TIP3    H257883   9.435   8.803   0.597
19336TIP3   OH257884   1.135   1.176   0.557
19336TIP3    H157885   1.044   1.194   0.534
19336TIP3    H257886   1.156   1.243   0.622
19337TIP3   OH257887   1.365   1.176   0.407
19337TIP3    H157888   1.282   1.178   0.454
19337TIP3    H257889   1.342   1.198   0.316
19338TIP3   OH257890   1.777   1.192   0.199
19338TIP3    H157891   1.704   1.202   0.137
19338TIP3    H257892   1.785   1.279   0.239
19339TIP3   OH257893   2.040   1.129   0.249
19339TIP3    H157894   1.948   1.148   0.228
19339TIP3    H257895   2.090   1.194   0.200
19340TIP3   OH257896   2.241   1.295   0.146
19340TIP3    H157897   2.240   1.382   0.106
19340TIP3    H257898   2.271   1.237   0.077
19341TIP3   OH257899   1.046   0.957   0.269
19341TIP3    H157900   1.070   0.934   0.358
19341TIP3    H257901   1.118   0.924   0.215
19342TIP3   OH257902   1.250   0.844   0.129
19342TIP3    H157903   1.261   0.758   0.171
19342TIP3    H257904   1.336   0.885   0.134
19343TIP3   OH257905   1.518   0.929   0.156
19343TIP3    H157906   1.538   0.837   0.140
19343TIP3    H257907   1.572   0.953   0.232
19344TIP3   OH257908   8.615   8.824   0.256
19344TIP3    H157909   8.567   8.749   0.289
19344TIP3    H257910   8.678   8.787   0.194
19345TIP3   OH257911   9.107   8.741   0.138
19345TIP3    H157912   9.140   8.790   0.063
19345TIP3    H257913   9.012   8.751   0.133
19346TIP3   OH257914   5.956   4.190   7.899
19346TIP3    H157915   6.026   4.130   7.872
19346TIP3    H257916   5.994   4.277   7.885
19347TIP3   OH257917   7.841   8.526   0.211
19347TIP3    H157918   7.756   8.491   0.239
19347TIP3    H257919   7.900   8.450   0.213
19348TIP3   OH257920   4.401   3.819   7.894
19348TIP3    H157921   4.436   3.863   7.816
19348TIP3    H257922   4.380   3.890   7.954
19349TIP3   OH257923   8.336   8.553   0.139
19349TIP3    H157924   8.381   8.600   0.068
19349TIP3    H257925   8.385   8.576   0.218
19350TIP3   OH257926   8.824   8.712   0.114
19350TIP3    H157927   8.807   8.688   0.023
19350TIP3    H257928   8.829   8.628   0.160
19351TIP3   OH257929   5.616   4.033   7.678
19351TIP3    H157930   5.540   4.084   7.706
19351TIP3    H257931   5.598   3.944   7.708
19352TIP3   OH257932   4.068   5.381   7.657
19352TIP3    H157933   3.985   5.350   7.622
19352TIP3    H257934   4.076   5.471   7.625
19353TIP3   OH257935   4.524   3.938   7.658
19353TIP3    H157936   4.561   3.873   7.598
19353TIP3    H257937   4.600   3.986   7.690
19354TIP3   OH257938   4.880   5.525   7.249
19354TIP3    H157939   4.963   5.553   7.211
19354TIP3    H257940   4.850   5.454   7.192
19355TIP3   OH257941   5.582   5.672   7.351
19355TIP3    H157942   5.575   5.577   7.345
19355TIP3    H257943   5.538   5.705   7.273
19356TIP3   OH257944   8.092   8.836   1.076
19356TIP3    H157945   8.073   8.744   1.090
19356TIP3    H257946   8.182   8.848   1.106
19357TIP3   OH257947   8.324   8.836   1.231
19357TIP3    H157948   8.401   8.806   1.183
19357TIP3    H257949   8.312   8.771   1.300
19358TIP3   OH257950   4.187   5.371   7.305
19358TIP3    H157951   4.187   5.383   7.400
19358TIP3    H257952   4.268   5.324   7.287
19359TIP3   OH257953   9.146   8.895   1.027
19359TIP3    H157954   9.162   8.865   1.116
19359TIP3    H257955   9.231   8.891   0.984
19360TIP3   OH257956   2.530   1.191   0.534
19360TIP3    H157957   2.456   1.161   0.482
19360TIP3    H257958   2.518   1.285   0.542
19361TIP3   OH257959   7.075   5.201   7.275
19361TIP3    H157960   7.044   5.287   7.247
19361TIP3    H257961   7.005   5.141   7.250
19362TIP3   OH257962   7.070   5.190   7.701
19362TIP3    H157963   7.125   5.173   7.778
19362TIP3    H257964   7.026   5.107   7.685
19363TIP3   OH257965   3.102   0.429   0.045
19363TIP3    H157966   3.142   0.377   0.115
19363TIP3    H257967   3.175   0.453  -0.012
19364TIP3   OH257968   7.343   5.498   7.372
19364TIP3    H157969   7.329   5.430   7.438
19364TIP3    H257970   7.363   5.577   7.422
19365TIP3   OH257971   6.367   5.474   7.720
19365TIP3    H157972   6.347   5.381   7.730
19365TIP3    H257973   6.462   5.478   7.717
19366TIP3   OH257974   6.045   4.683   7.510
19366TIP3    H157975   6.006   4.766   7.537
19366TIP3    H257976   5.972   4.634   7.473
19367TIP3   OH257977   6.128   4.998   7.742
19367TIP3    H157978   6.178   4.920   7.767
19367TIP3    H257979   6.194   5.063   7.718
19368TIP3   OH257980   7.010   5.920   7.396
19368TIP3    H157981   7.031   5.858   7.327
19368TIP3    H257982   7.019   5.869   7.477
19369TIP3   OH257983   6.883   5.411   7.704
19369TIP3    H157984   6.928   5.331   7.680
19369TIP3    H257985   6.952   5.469   7.736
19370TIP3   OH257986   7.918   4.731   7.723
19370TIP3    H157987   7.932   4.817   7.763
19370TIP3    H257988   7.944   4.743   7.631
19371TIP3   OH257989   7.283   4.897   7.739
19371TIP3    H157990   7.315   4.811   7.768
19371TIP3    H257991   7.248   4.880   7.651
19372TIP3   OH257992   6.643   4.556   7.697
19372TIP3    H157993   6.621   4.629   7.639
19372TIP3    H257994   6.587   4.484   7.668
19373TIP3   OH257995   7.339   4.659   7.337
19373TIP3    H157996   7.402   4.653   7.409
19373TIP3    H257997   7.390   4.692   7.263
19374TIP3   OH257998   6.267   4.774   7.830
19374TIP3    H157999   6.350   4.754   7.873
19374TIP3    H258000   6.269   4.722   7.750
19375TIP3   OH258001   6.682   4.973   7.647
19375TIP3    H158002   6.777   4.958   7.653
19375TIP3    H258003   6.647   4.890   7.613
19376TIP3   OH258004   7.969   4.956   7.883
19376TIP3    H158005   7.878   4.988   7.880
19376TIP3    H258006   8.004   4.993   7.964
19377TIP3   OH258007   0.089   9.183   0.149
19377TIP3    H158008   0.040   9.218   0.075
19377TIP3    H258009   0.033   9.200   0.225
19378TIP3   OH258010   6.974   5.418   7.134
19378TIP3    H158011   6.934   5.386   7.053
19378TIP3    H258012   6.920   5.493   7.159
19379TIP3   OH258013   6.711   5.338   7.910
19379TIP3    H158014   6.659   5.411   7.944
19379TIP3    H258015   6.762   5.377   7.839
19380TIP3   OH258016   7.493   4.683   7.561
19380TIP3    H158017   7.450   4.661   7.644
19380TIP3    H258018   7.549   4.758   7.582
19381TIP3   OH258019   6.516   4.669   7.918
19381TIP3    H158020   6.571   4.745   7.941
19381TIP3    H258021   6.563   4.627   7.846
19382TIP3   OH258022   3.292   0.923   0.017
19382TIP3    H158023   3.281   1.014  -0.011
19382TIP3    H258024   3.213   0.904   0.068
19383TIP3   OH258025   5.941   5.248   7.278
19383TIP3    H158026   5.900   5.271   7.195
19383TIP3    H258027   5.965   5.332   7.317
19384TIP3   OH258028   7.373   5.742   7.514
19384TIP3    H158029   7.286   5.737   7.553
19384TIP3    H258030   7.374   5.826   7.468
19385TIP3   OH258031   7.718   4.622   7.891
19385TIP3    H158032   7.634   4.642   7.850
19385TIP3    H258033   7.783   4.649   7.826
19386TIP3   OH258034   6.966   4.253   7.887
19386TIP3    H158035   6.959   4.161   7.912
19386TIP3    H258036   6.888   4.294   7.925
19387TIP3   OH258037   7.085   5.778   7.169
19387TIP3    H158038   7.138   5.699   7.159
19387TIP3    H258039   7.141   5.850   7.140
19388TIP3   OH258040   7.225   5.550   7.128
19388TIP3    H158041   7.154   5.486   7.125
19388TIP3    H258042   7.276   5.525   7.205
19389TIP3   OH258043   7.623   5.605   7.853
19389TIP3    H158044   7.593   5.539   7.792
19389TIP3    H258045   7.615   5.688   7.805
19390TIP3   OH258046   6.902   5.036   7.130
19390TIP3    H158047   6.818   5.079   7.110
19390TIP3    H258048   6.949   5.036   7.047
19391TIP3   OH258049   6.871   4.849   6.810
19391TIP3    H158050   6.933   4.899   6.863
19391TIP3    H258051   6.923   4.779   6.771
19392TIP3   OH258052   7.786   5.297   7.728
19392TIP3    H158053   7.700   5.336   7.719
19392TIP3    H258054   7.827   5.308   7.642
19393TIP3   OH258055   7.260   5.128   7.086
19393TIP3    H158056   7.207   5.157   7.160
19393TIP3    H258057   7.343   5.100   7.126
19394TIP3   OH258058   4.219   0.532   0.030
19394TIP3    H158059   4.213   0.616   0.075
19394TIP3    H258060   4.138   0.526  -0.020
19395TIP3   OH258061   6.489   5.106   7.488
19395TIP3    H158062   6.453   5.044   7.425
19395TIP3    H258063   6.561   5.059   7.531
19396TIP3   OH258064   6.632   5.528   7.633
19396TIP3    H158065   6.610   5.514   7.541
19396TIP3    H258066   6.719   5.490   7.643
19397TIP3   OH258067   6.580   5.101   7.869
19397TIP3    H158068   6.619   5.064   7.790
19397TIP3    H258069   6.627   5.183   7.884
19398TIP3   OH258070   7.131   5.743   7.642
19398TIP3    H158071   7.123   5.822   7.696
19398TIP3    H258072   7.119   5.670   7.704
19399TIP3   OH258073   3.490   1.006   0.194
19399TIP3    H158074   3.432   1.066   0.240
19399TIP3    H258075   3.432   0.958   0.134
19400TIP3   OH258076   7.088   4.990   6.920
19400TIP3    H158077   7.150   5.047   6.968
19400TIP3    H258078   7.118   4.994   6.829
19401TIP3   OH258079   3.243   0.560   0.341
19401TIP3    H158080   3.246   0.655   0.354
19401TIP3    H258081   3.150   0.541   0.332
19402TIP3   OH258082   6.837   5.657   7.172
19402TIP3    H158083   6.919   5.706   7.181
19402TIP3    H258084   6.778   5.718   7.127
19403TIP3   OH258085   3.282   1.171   0.273
19403TIP3    H158086   3.260   1.186   0.181
19403TIP3    H258087   3.198   1.159   0.316
19404TIP3   OH258088   7.601   4.213   6.983
19404TIP3    H158089   7.525   4.235   7.037
19404TIP3    H258090   7.611   4.288   6.924
19405TIP3   OH258091   6.362   4.946   7.290
19405TIP3    H158092   6.282   4.992   7.263
19405TIP3    H258093   6.332   4.858   7.312
19406TIP3   OH258094   7.427   5.589   6.541
19406TIP3    H158095   7.420   5.681   6.518
19406TIP3    H258096   7.516   5.564   6.517
19407TIP3   OH258097   2.878   0.733   0.225
19407TIP3    H158098   2.808   0.715   0.163
19407TIP3    H258099   2.912   0.647   0.250
19408TIP3   OH258100   5.987   5.551   7.886
19408TIP3    H158101   6.076   5.577   7.908
19408TIP3    H258102   5.933   5.626   7.911
19409TIP3   OH258103   7.844   6.013   7.902
19409TIP3    H158104   7.851   5.919   7.918
19409TIP3    H258105   7.763   6.039   7.946
19410TIP3   OH258106   3.673   1.147   0.047
19410TIP3    H158107   3.660   1.237   0.076
19410TIP3    H258108   3.609   1.097   0.096
19411TIP3   OH258109   6.728   5.877   7.008
19411TIP3    H158110   6.682   5.858   6.926
19411TIP3    H258111   6.691   5.960   7.037
19412TIP3   OH258112   6.164   5.737   7.385
19412TIP3    H158113   6.208   5.728   7.470
19412TIP3    H258114   6.114   5.655   7.376
19413TIP3   OH258115   6.929   5.814   6.633
19413TIP3    H158116   6.979   5.740   6.599
19413TIP3    H258117   6.964   5.827   6.722
19414TIP3   OH258118   6.982   5.856   6.903
19414TIP3    H158119   6.896   5.858   6.945
19414TIP3    H258120   7.040   5.818   6.969
19415TIP3   OH258121   4.462   0.481   0.180
19415TIP3    H158122   4.378   0.495   0.136
19415TIP3    H258123   4.480   0.388   0.167
19416TIP3   OH258124   3.073   0.925   0.187
19416TIP3    H158125   3.125   0.913   0.267
19416TIP3    H258126   3.002   0.861   0.195
19417TIP3   OH258127   0.194   8.964   0.009
19417TIP3    H158128   0.111   8.930  -0.022
19417TIP3    H258129   0.171   9.046   0.054
19418TIP3   OH258130   0.731   9.090   0.210
19418TIP3    H158131   0.800   9.065   0.271
19418TIP3    H258132   0.650   9.075   0.258
19419TIP3   OH258133   4.217   0.267   0.121
19419TIP3    H158134   4.177   0.262   0.207
19419TIP3    H258135   4.204   0.358   0.093
19420TIP3   OH258136   7.166   4.974   6.657
19420TIP3    H158137   7.124   4.971   6.572
19420TIP3    H258138   7.250   5.016   6.641
19421TIP3   OH258139   6.868   4.394   6.975
19421TIP3    H158140   6.836   4.400   7.065
19421TIP3    H258141   6.836   4.309   6.944
19422TIP3   OH258142   3.398   0.262   0.016
19422TIP3    H158143   3.354   0.268   0.100
19422TIP3    H258144   3.376   0.343  -0.029
19423TIP3   OH258145   6.543   4.757   7.539
19423TIP3    H158146   6.454   4.732   7.564
19423TIP3    H258147   6.552   4.725   7.449
19424TIP3   OH258148   7.023   4.830   7.265
19424TIP3    H158149   6.977   4.904   7.226
19424TIP3    H258150   7.082   4.799   7.197
19425TIP3   OH258151   3.944   0.469   0.324
19425TIP3    H158152   3.917   0.405   0.391
19425TIP3    H258153   4.038   0.481   0.339
19426TIP3   OH258154   7.192   4.844   7.487
19426TIP3    H158155   7.123   4.864   7.423
19426TIP3    H258156   7.241   4.771   7.448
19427TIP3   OH258157   3.238   0.277   0.239
19427TIP3    H158158   3.249   0.341   0.309
19427TIP3    H258159   3.219   0.194   0.284
19428TIP3   OH258160   6.536   4.368   6.953
19428TIP3    H158161   6.530   4.371   7.049
19428TIP3    H258162   6.459   4.417   6.923
19429TIP3   OH258163   6.091   4.411   7.820
19429TIP3    H158164   6.167   4.445   7.867
19429TIP3    H258165   6.125   4.387   7.734
19430TIP3   OH258166   5.998   4.387   7.320
19430TIP3    H158167   6.043   4.422   7.244
19430TIP3    H258168   5.935   4.454   7.344
19431TIP3   OH258169   7.237   5.099   7.912
19431TIP3    H158170   7.261   5.032   7.847
19431TIP3    H258171   7.191   5.051   7.980
19432TIP3   OH258172   6.912   4.545   7.590
19432TIP3    H158173   6.834   4.544   7.645
19432TIP3    H258174   6.985   4.535   7.651
19433TIP3   OH258175   6.303   4.633   7.597
19433TIP3    H158176   6.216   4.638   7.559
19433TIP3    H258177   6.331   4.542   7.584
19434TIP3   OH258178   6.557   4.638   7.291
19434TIP3    H158179   6.652   4.647   7.284
19434TIP3    H258180   6.525   4.656   7.202
19435TIP3   OH258181   7.350   4.634   7.798
19435TIP3    H158182   7.332   4.651   7.890
19435TIP3    H258183   7.283   4.572   7.771
19436TIP3   OH258184   6.452   4.664   7.037
19436TIP3    H158185   6.382   4.617   6.990
19436TIP3    H258186   6.504   4.704   6.968
19437TIP3   OH258187   7.513   6.343   7.968
19437TIP3    H158188   7.521   6.356   7.873
19437TIP3    H258189   7.596   6.375   8.004
19438TIP3   OH258190   3.222   0.831   0.421
19438TIP3    H158191   3.303   0.851   0.468
19438TIP3    H258192   3.153   0.840   0.486
19439TIP3   OH258193   6.956   4.922   7.695
19439TIP3    H158194   7.023   4.873   7.647
19439TIP3    H258195   6.953   4.880   7.781
19440TIP3   OH258196   6.447   4.384   7.586
19440TIP3    H158197   6.419   4.309   7.639
19440TIP3    H258198   6.466   4.346   7.500
19441TIP3   OH258199   6.928   4.821   7.956
19441TIP3    H158200   6.842   4.853   7.982
19441TIP3    H258201   6.990   4.871   8.009
19442TIP3   OH258202   6.662   5.166   7.071
19442TIP3    H158203   6.587   5.112   7.045
19442TIP3    H258204   6.633   5.211   7.151
19443TIP3   OH258205   7.548   5.421   7.667
19443TIP3    H158206   7.584   5.471   7.594
19443TIP3    H258207   7.469   5.381   7.633
19444TIP3   OH258208   7.124   4.491   6.985
19444TIP3    H158209   7.031   4.473   6.979
19444TIP3    H258210   7.129   4.586   6.996
19445TIP3   OH258211   3.809   0.887   0.092
19445TIP3    H158212   3.861   0.873   0.171
19445TIP3    H258213   3.772   0.975   0.103
19446TIP3   OH258214   7.187   4.757   7.049
19446TIP3    H158215   7.282   4.759   7.059
19446TIP3    H258216   7.167   4.835   6.996
19447TIP3   OH258217   6.351   5.183   7.717
19447TIP3    H158218   6.391   5.167   7.632
19447TIP3    H258219   6.418   5.155   7.780
19448TIP3   OH258220   6.815   5.330   6.916
19448TIP3    H158221   6.767   5.413   6.913
19448TIP3    H258222   6.760   5.272   6.969
19449TIP3   OH258223   2.968   0.498   0.356
19449TIP3    H158224   2.970   0.470   0.448
19449TIP3    H258225   2.892   0.453   0.319
19450TIP3   OH258226   3.714   0.628   0.371
19450TIP3    H158227   3.644   0.568   0.344
19450TIP3    H258228   3.794   0.586   0.342
19451TIP3   OH258229   7.205   5.803   7.961
19451TIP3    H158230   7.112   5.780   7.963
19451TIP3    H258231   7.223   5.839   8.048
19452TIP3   OH258232   7.599   4.849   6.870
19452TIP3    H158233   7.538   4.806   6.810
19452TIP3    H258234   7.608   4.938   6.834
19453TIP3   OH258235   7.866   5.744   7.937
19453TIP3    H158236   7.784   5.720   7.980
19453TIP3    H258237   7.865   5.695   7.855
19454TIP3   OH258238   7.344   5.663   6.806
19454TIP3    H158239   7.319   5.594   6.867
19454TIP3    H258240   7.365   5.617   6.725
19455TIP3   OH258241   7.320   5.292   7.568
19455TIP3    H158242   7.231   5.270   7.596
19455TIP3    H258243   7.354   5.210   7.532
19456TIP3   OH258244   6.484   5.534   7.392
19456TIP3    H158245   6.477   5.608   7.333
19456TIP3    H258246   6.398   5.530   7.436
19457TIP3   OH258247   6.030   4.813   7.106
19457TIP3    H158248   6.075   4.894   7.130
19457TIP3    H258249   5.950   4.814   7.159
19458TIP3   OH258250   6.553   5.289   7.286
19458TIP3    H158251   6.541   5.378   7.320
19458TIP3    H258252   6.533   5.232   7.360
19459TIP3   OH258253   6.763   5.854   7.843
19459TIP3    H158254   6.802   5.927   7.794
19459TIP3    H258255   6.836   5.819   7.895
19460TIP3   OH258256   6.397   5.754   7.239
19460TIP3    H158257   6.311   5.760   7.280
19460TIP3    H258258   6.433   5.843   7.246
19461TIP3   OH258259   7.113   5.522   7.819
19461TIP3    H158260   7.098   5.515   7.913
19461TIP3    H258261   7.193   5.472   7.804
19462TIP3   OH258262   7.107   5.398   6.693
19462TIP3    H158263   7.160   5.373   6.768
19462TIP3    H258264   7.025   5.351   6.704
19463TIP3   OH258265   7.376   5.985   7.833
19463TIP3    H158266   7.305   5.930   7.866
19463TIP3    H258267   7.334   6.047   7.775
19464TIP3   OH258268   7.418   5.862   6.493
19464TIP3    H158269   7.437   5.921   6.420
19464TIP3    H258270   7.349   5.905   6.541
19465TIP3   OH258271   3.182   0.023   0.354
19465TIP3    H158272   3.087   0.033   0.357
19465TIP3    H258273   3.203  -0.033   0.429
19466TIP3   OH258274   7.286   5.317   6.883
19466TIP3    H158275   7.270   5.261   6.959
19466TIP3    H258276   7.381   5.323   6.877
19467TIP3   OH258277   2.926   1.127   0.008
19467TIP3    H158278   2.979   1.069   0.063
19467TIP3    H258279   2.939   1.214   0.044
19468TIP3   OH258280   6.460   5.363   6.709
19468TIP3    H158281   6.473   5.272   6.683
19468TIP3    H258282   6.448   5.359   6.804
19469TIP3   OH258283   6.401   5.378   6.982
19469TIP3    H158284   6.457   5.354   7.055
19469TIP3    H258285   6.399   5.474   6.984
19470TIP3   OH258286   6.131   5.064   7.186
19470TIP3    H158287   6.069   5.114   7.238
19470TIP3    H258288   6.152   5.120   7.111
19471TIP3   OH258289   4.027   0.077   0.057
19471TIP3    H158290   4.104   0.123   0.089
19471TIP3    H258291   4.018   0.001   0.115
19472TIP3   OH258292   7.190   4.440   7.252
19472TIP3    H158293   7.168   4.459   7.160
19472TIP3    H258294   7.234   4.519   7.282
19473TIP3   OH258295   6.670   5.559   6.907
19473TIP3    H158296   6.585   5.583   6.946
19473TIP3    H258297   6.696   5.635   6.856
19474TIP3   OH258298   6.836   4.643   7.341
19474TIP3    H158299   6.899   4.710   7.314
19474TIP3    H258300   6.861   4.621   7.430
19475TIP3   OH258301   3.868   0.311   0.103
19475TIP3    H158302   3.893   0.354   0.184
19475TIP3    H258303   3.918   0.230   0.102
19476TIP3   OH258304   7.003   4.334   7.426
19476TIP3    H158305   6.980   4.411   7.478
19476TIP3    H258306   7.074   4.364   7.369
19477TIP3   OH258307   6.422   5.652   6.986
19477TIP3    H158308   6.402   5.725   6.927
19477TIP3    H258309   6.412   5.689   7.074
19478TIP3   OH258310   6.518   4.364   7.233
19478TIP3    H158311   6.506   4.454   7.263
19478TIP3    H258312   6.612   4.349   7.239
19479TIP3   OH258313   4.480   0.209   0.094
19479TIP3    H158314   4.386   0.218   0.108
19479TIP3    H258315   4.488   0.144   0.024
19480TIP3   OH258316   7.416   5.034   7.486
19480TIP3    H158317   7.340   4.977   7.498
19480TIP3    H258318   7.483   4.996   7.542
19481TIP3   OH258319   6.162   5.236   6.967
19481TIP3    H158320   6.234   5.298   6.977
19481TIP3    H258321   6.192   5.174   6.900
19482TIP3   OH258322   6.057   4.533   7.095
19482TIP3    H158323   6.056   4.629   7.102
19482TIP3    H258324   5.983   4.513   7.037
19483TIP3   OH258325   7.392   6.004   7.421
19483TIP3    H158326   7.351   6.060   7.355
19483TIP3    H258327   7.486   6.016   7.406
19484TIP3   OH258328   6.467   4.256   7.970
19484TIP3    H158329   6.437   4.224   7.885
19484TIP3    H258330   6.457   4.181   8.029
19485TIP3   OH258331   5.986   5.518   7.361
19485TIP3    H158332   5.943   5.553   7.439
19485TIP3    H258333   5.941   5.560   7.288
19486TIP3   OH258334   2.923   1.430   0.430
19486TIP3    H158335   3.003   1.435   0.481
19486TIP3    H258336   2.908   1.337   0.416
19487TIP3   OH258337   3.379   1.333   0.473
19487TIP3    H158338   3.470   1.306   0.484
19487TIP3    H258339   3.347   1.282   0.399
19488TIP3   OH258340   6.611   5.563   6.592
19488TIP3    H158341   6.566   5.494   6.640
19488TIP3    H258342   6.687   5.519   6.553
19489TIP3   OH258343   3.978   1.269   0.213
19489TIP3    H158344   3.998   1.198   0.274
19489TIP3    H258345   4.055   1.326   0.216
19490TIP3   OH258346   7.056   5.601   6.517
19490TIP3    H158347   7.088   5.537   6.580
19490TIP3    H258348   7.115   5.593   6.442
19491TIP3   OH258349   3.021   0.830   0.614
19491TIP3    H158350   3.039   0.736   0.625
19491TIP3    H258351   2.934   0.833   0.573
19492TIP3   OH258352   6.281   5.048   6.805
19492TIP3    H158353   6.329   5.023   6.884
19492TIP3    H258354   6.349   5.067   6.740
19493TIP3   OH258355   3.644   0.900   0.396
19493TIP3    H158356   3.601   0.924   0.314
19493TIP3    H258357   3.681   0.813   0.379
19494TIP3   OH258358   6.851   5.273   6.650
19494TIP3    H158359   6.829   5.282   6.743
19494TIP3    H258360   6.834   5.180   6.631
19495TIP3   OH258361   7.382   5.586   8.000
19495TIP3    H158362   7.464   5.611   7.958
19495TIP3    H258363   7.321   5.656   7.980
19496TIP3   OH258364   3.137   0.575   0.623
19496TIP3    H158365   3.211   0.562   0.564
19496TIP3    H258366   3.177   0.593   0.708
19497TIP3   OH258367   6.452   4.990   7.020
19497TIP3    H158368   6.431   4.963   7.109
19497TIP3    H258369   6.499   4.916   6.983
19498TIP3   OH258370   3.504   0.459   0.283
19498TIP3    H158371   3.417   0.499   0.296
19498TIP3    H258372   3.532   0.488   0.197
19499TIP3   OH258373   6.594   4.810   6.850
19499TIP3    H158374   6.568   4.818   6.758
19499TIP3    H258375   6.689   4.820   6.849
19500TIP3   OH258376   3.994   0.807   0.343
19500TIP3    H158377   4.067   0.773   0.291
19500TIP3    H258378   3.985   0.746   0.416
19501TIP3   OH258379   7.388   5.099   6.545
19501TIP3    H158380   7.377   5.059   6.459
19501TIP3    H258381   7.363   5.190   6.533
19502TIP3   OH258382   3.606   0.228   0.391
19502TIP3    H158383   3.611   0.158   0.326
19502TIP3    H258384   3.573   0.303   0.344
19503TIP3   OH258385   3.614   0.032   0.186
19503TIP3    H158386   3.642   0.067   0.102
19503TIP3    H258387   3.524   0.004   0.172
19504TIP3   OH258388   3.613   0.559   0.056
19504TIP3    H158389   3.701   0.596   0.047
19504TIP3    H258390   3.557   0.617   0.004
19505TIP3   OH258391   4.216   0.505   0.419
19505TIP3    H158392   4.266   0.425   0.432
19505TIP3    H258393   4.281   0.575   0.415
19506TIP3   OH258394   4.226   0.779   0.160
19506TIP3    H158395   4.172   0.843   0.113
19506TIP3    H258396   4.315   0.792   0.126
19507TIP3   OH258397   3.487   0.304   0.633
19507TIP3    H158398   3.419   0.240   0.652
19507TIP3    H258399   3.518   0.282   0.545
19508TIP3   OH258400   0.468   9.042   0.292
19508TIP3    H158401   0.428   9.122   0.258
19508TIP3    H258402   0.402   8.974   0.278
19509TIP3   OH258403   3.862   0.269   0.496
19509TIP3    H158404   3.855   0.258   0.591
19509TIP3    H258405   3.775   0.248   0.462
19510TIP3   OH258406   4.099   0.213   0.356
19510TIP3    H158407   4.025   0.215   0.416
19510TIP3    H258408   4.174   0.189   0.411
19511TIP3   OH258409   4.346   0.177   0.484
19511TIP3    H158410   4.359   0.083   0.498
19511TIP3    H258411   4.333   0.212   0.572
19512TIP3   OH258412   3.320   0.087   0.698
19512TIP3    H158413   3.327  -0.001   0.660
19512TIP3    H258414   3.360   0.078   0.784
19513TIP3   OH258415   0.532   9.011   0.556
19513TIP3    H158416   0.600   8.945   0.549
19513TIP3    H258417   0.503   9.026   0.466
19514TIP3   OH258418   0.629   9.224   0.702
19514TIP3    H158419   0.599   9.152   0.646
19514TIP3    H258420   0.556   9.286   0.702
19515TIP3   OH258421   6.422   5.866   6.806
19515TIP3    H158422   6.510   5.842   6.779
19515TIP3    H258423   6.385   5.912   6.730
19516TIP3   OH258424   5.887   5.244   6.960
19516TIP3    H158425   5.982   5.252   6.969
19516TIP3    H258426   5.874   5.155   6.928
19517TIP3   OH258427   5.787   5.824   7.451
19517TIP3    H158428   5.723   5.770   7.405
19517TIP3    H258429   5.832   5.763   7.510
19518TIP3   OH258430   5.934   5.655   7.615
19518TIP3    H158431   5.926   5.585   7.680
19518TIP3    H258432   5.987   5.722   7.658
19519TIP3   OH258433   7.661   6.055   7.408
19519TIP3    H158434   7.677   6.070   7.501
19519TIP3    H258435   7.695   6.133   7.365
19520TIP3   OH258436   7.681   6.078   7.681
19520TIP3    H158437   7.640   5.992   7.686
19520TIP3    H258438   7.752   6.074   7.744
19521TIP3   OH258439   4.416   1.142   0.149
19521TIP3    H158440   4.359   1.139   0.226
19521TIP3    H258441   4.457   1.228   0.154
19522TIP3   OH258442   7.564   5.312   6.881
19522TIP3    H158443   7.623   5.382   6.853
19522TIP3    H258444   7.608   5.272   6.956
19523TIP3   OH258445   7.685   5.166   7.084
19523TIP3    H158446   7.616   5.125   7.136
19523TIP3    H258447   7.749   5.197   7.148
19524TIP3   OH258448   7.729   5.565   7.510
19524TIP3    H158449   7.786   5.499   7.469
19524TIP3    H258450   7.735   5.641   7.453
19525TIP3   OH258451   7.558   5.830   7.704
19525TIP3    H158452   7.491   5.877   7.753
19525TIP3    H258453   7.511   5.790   7.631
19526TIP3   OH258454   7.595   5.086   6.727
19526TIP3    H158455   7.524   5.084   6.663
19526TIP3    H258456   7.579   5.165   6.778
19527TIP3   OH258457   7.431   4.742   6.684
19527TIP3    H158458   7.393   4.775   6.602
19527TIP3    H258459   7.428   4.647   6.676
19528TIP3   OH258460   7.484   5.025   7.217
19528TIP3    H158461   7.489   4.931   7.203
19528TIP3    H258462   7.466   5.034   7.311
19529TIP3   OH258463   6.105   5.089   7.999
19529TIP3    H158464   6.095   5.058   7.909
19529TIP3    H258465   6.199   5.084   8.016
19530TIP3   OH258466   4.475   0.818   0.052
19530TIP3    H158467   4.544   0.757   0.027
19530TIP3    H258468   4.456   0.867  -0.028
19531TIP3   OH258469   4.668   0.615   0.057
19531TIP3    H158470   4.598   0.571   0.105
19531TIP3    H258471   4.748   0.569   0.084
19532TIP3   OH258472   7.406   4.473   6.653
19532TIP3    H158473   7.476   4.439   6.708
19532TIP3    H258474   7.328   4.424   6.681
19533TIP3   OH258475   7.480   4.751   7.107
19533TIP3    H158476   7.526   4.668   7.120
19533TIP3    H258477   7.521   4.790   7.030
19534TIP3   OH258478   7.631   4.915   7.630
19534TIP3    H158479   7.712   4.931   7.581
19534TIP3    H258480   7.646   4.956   7.715
19535TIP3   OH258481   7.705   5.064   7.856
19535TIP3    H158482   7.633   5.092   7.911
19535TIP3    H258483   7.737   5.146   7.816
19536TIP3   OH258484   3.058   0.147   0.634
19536TIP3    H158485   3.152   0.142   0.653
19536TIP3    H258486   3.022   0.066   0.671
19537TIP3   OH258487   4.894   0.054   0.390
19537TIP3    H158488   4.962  -0.007   0.359
19537TIP3    H258489   4.864   0.098   0.311
19538TIP3   OH258490   7.597   4.503   7.161
19538TIP3    H158491   7.642   4.487   7.244
19538TIP3    H258492   7.535   4.430   7.154
19539TIP3   OH258493   6.308   4.484   7.979
19539TIP3    H158494   6.360   4.404   7.988
19539TIP3    H258495   6.372   4.553   7.962
19540TIP3   OH258496   2.816   0.125   0.045
19540TIP3    H158497   2.866   0.113  -0.035
19540TIP3    H258498   2.845   0.210   0.079
19541TIP3   OH258499   4.753   0.166   0.186
19541TIP3    H158500   4.679   0.202   0.234
19541TIP3    H258501   4.717   0.094   0.135
19542TIP3   OH258502   7.638   4.411   6.796
19542TIP3    H158503   7.688   4.352   6.740
19542TIP3    H258504   7.692   4.490   6.801
19543TIP3   OH258505   6.072   4.266   7.555
19543TIP3    H158506   5.986   4.248   7.594
19543TIP3    H258507   6.052   4.316   7.475
19544TIP3   OH258508   7.220   5.985   7.064
19544TIP3    H158509   7.278   5.972   6.989
19544TIP3    H258510   7.264   6.051   7.117
19545TIP3   OH258511   9.566   8.931   0.373
19545TIP3    H158512   9.513   8.924   0.453
19545TIP3    H258513   9.510   8.981   0.312
19546TIP3   OH258514   3.055   1.152   0.433
19546TIP3    H158515   2.962   1.132   0.430
19546TIP3    H258516   3.077   1.149   0.526
19547TIP3   OH258517   6.537   5.819   7.995
19547TIP3    H158518   6.484   5.891   7.962
19547TIP3    H258519   6.622   5.830   7.952
19548TIP3   OH258520   3.629   1.409   0.118
19548TIP3    H158521   3.669   1.404   0.205
19548TIP3    H258522   3.689   1.463   0.067
19549TIP3   OH258523   7.075   6.166   7.970
19549TIP3    H158524   7.119   6.109   7.907
19549TIP3    H258525   7.147   6.208   8.018
19550TIP3   OH258526   1.397   9.150   0.090
19550TIP3    H158527   1.312   9.143   0.048
19550TIP3    H258528   1.434   9.062   0.085
19551TIP3   OH258529   2.924   1.423   0.040
19551TIP3    H158530   2.833   1.444   0.017
19551TIP3    H258531   2.948   1.489   0.104
19552TIP3   OH258532   6.416   6.041   7.886
19552TIP3    H158533   6.334   6.043   7.934
19552TIP3    H258534   6.393   6.066   7.797
19553TIP3   OH258535   6.838   6.062   7.674
19553TIP3    H158536   6.763   6.067   7.615
19553TIP3    H258537   6.842   6.149   7.715
19554TIP3   OH258538   7.101   6.007   7.730
19554TIP3    H158539   7.010   6.022   7.703
19554TIP3    H258540   7.152   6.068   7.676
19555TIP3   OH258541   7.301   6.168   7.622
19555TIP3    H158542   7.294   6.252   7.577
19555TIP3    H258543   7.333   6.107   7.555
19556TIP3   OH258544   6.109   5.833   7.759
19556TIP3    H158545   6.133   5.809   7.848
19556TIP3    H258546   6.180   5.800   7.704
19557TIP3   OH258547   6.312   5.720   7.617
19557TIP3    H158548   6.323   5.634   7.659
19557TIP3    H258549   6.398   5.760   7.623
19558TIP3   OH258550   6.578   5.804   7.643
19558TIP3    H158551   6.599   5.712   7.627
19558TIP3    H258552   6.632   5.829   7.718
19559TIP3   OH258553   7.138   4.450   7.730
19559TIP3    H158554   7.099   4.380   7.782
19559TIP3    H258555   7.207   4.408   7.679
19560TIP3   OH258556   7.641   4.377   7.624
19560TIP3    H158557   7.676   4.425   7.550
19560TIP3    H258558   7.547   4.396   7.623
19561TIP3   OH258559   7.754   4.449   7.384
19561TIP3    H158560   7.822   4.387   7.358
19561TIP3    H258561   7.793   4.535   7.371
19562TIP3   OH258562   6.378   4.156   7.729
19562TIP3    H158563   6.289   4.123   7.740
19562TIP3    H258564   6.432   4.078   7.719
19563TIP3   OH258565   6.200   4.071   7.388
19563TIP3    H158566   6.225   4.120   7.309
19563TIP3    H258567   6.163   4.137   7.447
19564TIP3   OH258568   6.861   4.193   7.627
19564TIP3    H158569   6.909   4.239   7.558
19564TIP3    H258570   6.902   4.222   7.708
19565TIP3   OH258571   7.353   4.331   7.602
19565TIP3    H158572   7.373   4.295   7.516
19565TIP3    H258573   7.361   4.256   7.661
19566TIP3   OH258574   7.411   4.292   7.167
19566TIP3    H158575   7.332   4.338   7.193
19566TIP3    H258576   7.401   4.204   7.205
19567TIP3   OH258577   5.867   5.637   7.142
19567TIP3    H158578   5.783   5.605   7.109
19567TIP3    H258579   5.873   5.727   7.110
19568TIP3   OH258580   6.311   4.193   7.148
19568TIP3    H158581   6.357   4.128   7.094
19568TIP3    H258582   6.381   4.248   7.183
19569TIP3   OH258583   6.793   4.391   7.241
19569TIP3    H158584   6.851   4.337   7.294
19569TIP3    H258585   6.808   4.481   7.272
19570TIP3   OH258586   6.675   5.785   6.737
19570TIP3    H158587   6.759   5.811   6.699
19570TIP3    H258588   6.644   5.714   6.681
19571TIP3   OH258589   7.375   5.933   6.838
19571TIP3    H158590   7.370   5.838   6.832
19571TIP3    H258591   7.334   5.965   6.758
19572TIP3   OH258592   0.074   9.058   0.608
19572TIP3    H158593   0.040   8.991   0.667
19572TIP3    H258594   0.166   9.067   0.632
19573TIP3   OH258595   0.320   9.064   0.733
19573TIP3    H158596   0.397   9.043   0.679
19573TIP3    H258597   0.316   8.994   0.798
19574TIP3   OH258598   5.987   5.627   6.795
19574TIP3    H158599   5.986   5.632   6.890
19574TIP3    H258600   6.067   5.579   6.774
19575TIP3   OH258601   1.141   9.149   0.510
19575TIP3    H158602   1.156   9.122   0.601
19575TIP3    H258603   1.228   9.144   0.469
19576TIP3   OH258604   7.589   6.074   7.983
19576TIP3    H158605   7.517   6.035   7.933
19576TIP3    H258606   7.561   6.164   7.997
19577TIP3   OH258607   8.795   5.460   6.773
19577TIP3    H158608   8.890   5.468   6.763
19577TIP3    H258609   8.771   5.389   6.714
19578TIP3   OH258610   8.891   5.439   7.178
19578TIP3    H158611   8.939   5.416   7.258
19578TIP3    H258612   8.837   5.363   7.159
19579TIP3   OH258613   8.170   5.303   7.519
19579TIP3    H158614   8.204   5.246   7.588
19579TIP3    H258615   8.248   5.336   7.475
19580TIP3   OH258616   9.110   5.748   6.864
19580TIP3    H158617   9.117   5.679   6.930
19580TIP3    H258618   9.139   5.827   6.909
19581TIP3   OH258619   8.146   5.745   7.233
19581TIP3    H158620   8.132   5.651   7.223
19581TIP3    H258621   8.216   5.753   7.297
19582TIP3   OH258622   7.842   4.944   7.002
19582TIP3    H158623   7.799   5.026   7.026
19582TIP3    H258624   7.773   4.891   6.961
19583TIP3   OH258625   7.912   5.237   7.232
19583TIP3    H158626   7.961   5.160   7.259
19583TIP3    H258627   7.975   5.292   7.185
19584TIP3   OH258628   8.809   6.175   6.887
19584TIP3    H158629   8.827   6.116   6.814
19584TIP3    H258630   8.828   6.124   6.965
19585TIP3   OH258631   9.652   4.984   7.218
19585TIP3    H158632   9.680   5.064   7.262
19585TIP3    H258633   9.685   4.992   7.129
19586TIP3   OH258634   9.087   5.150   7.228
19586TIP3    H158635   9.128   5.069   7.255
19586TIP3    H258636   9.047   5.130   7.143
19587TIP3   OH258637   8.440   4.814   7.182
19587TIP3    H158638   8.418   4.886   7.123
19587TIP3    H258639   8.387   4.741   7.150
19588TIP3   OH258640   9.129   4.915   6.819
19588TIP3    H158641   9.194   4.913   6.889
19588TIP3    H258642   9.178   4.946   6.742
19589TIP3   OH258643   8.061   5.022   7.317
19589TIP3    H158644   8.145   5.005   7.360
19589TIP3    H258645   8.065   4.972   7.236
19590TIP3   OH258646   8.487   5.229   7.136
19590TIP3    H158647   8.580   5.210   7.141
19590TIP3    H258648   8.448   5.147   7.105
19591TIP3   OH258649   9.734   5.192   7.382
19591TIP3    H158650   9.652   5.241   7.372
19591TIP3    H258651   9.779   5.234   7.455
19592TIP3   OH258652   8.418   4.819   7.638
19592TIP3    H158653   8.367   4.854   7.564
19592TIP3    H258654   8.361   4.833   7.714
19593TIP3   OH258655   8.649   5.700   6.652
19593TIP3    H158656   8.659   5.681   6.559
19593TIP3    H258657   8.627   5.793   6.655
19594TIP3   OH258658   8.545   5.611   7.387
19594TIP3    H158659   8.475   5.660   7.430
19594TIP3    H258660   8.601   5.679   7.349
19595TIP3   OH258661   9.286   4.957   7.037
19595TIP3    H158662   9.270   4.925   7.126
19595TIP3    H258663   9.353   5.024   7.048
19596TIP3   OH258664   8.311   4.922   7.404
19596TIP3    H158665   8.366   4.998   7.425
19596TIP3    H258666   8.357   4.879   7.332
19597TIP3   OH258667   8.357   5.779   7.496
19597TIP3    H158668   8.344   5.871   7.472
19597TIP3    H258669   8.282   5.758   7.551
19598TIP3   OH258670   7.738   5.500   6.765
19598TIP3    H158671   7.702   5.517   6.677
19598TIP3    H258672   7.758   5.587   6.799
19599TIP3   OH258673   9.157   5.996   6.997
19599TIP3    H158674   9.070   5.998   7.035
19599TIP3    H258675   9.163   6.077   6.946
19600TIP3   OH258676   9.460   4.871   7.386
19600TIP3    H158677   9.372   4.885   7.351
19600TIP3    H258678   9.519   4.901   7.317
19601TIP3   OH258679   8.760   4.510   7.377
19601TIP3    H158680   8.753   4.418   7.400
19601TIP3    H258681   8.681   4.550   7.414
19602TIP3   OH258682   8.867   6.033   6.655
19602TIP3    H158683   8.910   5.948   6.646
19602TIP3    H258684   8.933   6.097   6.627
19603TIP3   OH258685   8.991   5.796   6.622
19603TIP3    H158686   9.021   5.731   6.558
19603TIP3    H258687   9.038   5.774   6.702
19604TIP3   OH258688   9.404   5.908   7.307
19604TIP3    H158689   9.368   5.830   7.265
19604TIP3    H258690   9.494   5.913   7.274
19605TIP3   OH258691   8.703   5.281   6.586
19605TIP3    H158692   8.618   5.278   6.543
19605TIP3    H258693   8.767   5.264   6.516
19606TIP3   OH258694   9.567   5.545   7.206
19606TIP3    H158695   9.485   5.594   7.201
19606TIP3    H258696   9.601   5.546   7.116
19607TIP3   OH258697   9.054   5.393   6.627
19607TIP3    H158698   9.013   5.309   6.644
19607TIP3    H258699   9.146   5.380   6.651
19608TIP3   OH258700   9.281   5.394   7.513
19608TIP3    H158701   9.286   5.480   7.555
19608TIP3    H258702   9.197   5.394   7.468
19609TIP3   OH258703   8.311   5.372   6.973
19609TIP3    H158704   8.260   5.316   6.915
19609TIP3    H258705   8.367   5.311   7.021
19610TIP3   OH258706   8.423   5.802   7.103
19610TIP3    H158707   8.368   5.792   7.024
19610TIP3    H258708   8.440   5.712   7.131
19611TIP3   OH258709   8.396   5.370   7.356
19611TIP3    H158710   8.431   5.324   7.280
19611TIP3    H258711   8.453   5.446   7.368
19612TIP3   OH258712   8.919   6.002   7.133
19612TIP3    H158713   8.902   6.077   7.190
19612TIP3    H258714   8.929   5.928   7.193
19613TIP3   OH258715   8.580   5.901   7.634
19613TIP3    H158716   8.522   5.954   7.689
19613TIP3    H258717   8.522   5.847   7.582
19614TIP3   OH258718   8.921   5.250   6.423
19614TIP3    H158719   8.974   5.326   6.446
19614TIP3    H258720   8.928   5.244   6.328
19615TIP3   OH258721   8.312   5.416   7.779
19615TIP3    H158722   8.329   5.503   7.815
19615TIP3    H258723   8.217   5.411   7.773
19616TIP3   OH258724   8.602   5.965   6.678
19616TIP3    H158725   8.693   5.995   6.678
19616TIP3    H258726   8.557   6.025   6.619
19617TIP3   OH258727   8.355   6.032   7.729
19617TIP3    H158728   8.336   6.048   7.637
19617TIP3    H258729   8.271   6.003   7.766
19618TIP3   OH258730   9.374   4.467   6.475
19618TIP3    H158731   9.298   4.488   6.529
19618TIP3    H258732   9.387   4.545   6.420
19619TIP3   OH258733   8.161   5.217   6.795
19619TIP3    H158734   8.080   5.253   6.758
19619TIP3    H258735   8.141   5.124   6.808
19620TIP3   OH258736   9.204   5.857   6.018
19620TIP3    H158737   9.202   5.950   5.994
19620TIP3    H258738   9.290   5.826   5.990
19621TIP3   OH258739   7.926   5.604   7.708
19621TIP3    H158740   7.856   5.582   7.647
19621TIP3    H258741   7.963   5.520   7.734
19622TIP3   OH258742   7.777   5.805   7.366
19622TIP3    H158743   7.865   5.835   7.389
19622TIP3    H258744   7.721   5.880   7.384
19623TIP3   OH258745   8.728   6.146   7.547
19623TIP3    H158746   8.755   6.185   7.630
19623TIP3    H258747   8.690   6.062   7.571
19624TIP3   OH258748   8.516   6.149   6.486
19624TIP3    H158749   8.465   6.123   6.409
19624TIP3    H258750   8.477   6.232   6.513
19625TIP3   OH258751   7.957   5.992   6.865
19625TIP3    H158752   8.002   5.984   6.949
19625TIP3    H258753   7.906   5.911   6.857
19626TIP3   OH258754   8.728   6.073   6.120
19626TIP3    H158755   8.778   5.997   6.090
19626TIP3    H258756   8.759   6.089   6.209
19627TIP3   OH258757   8.773   6.117   6.390
19627TIP3    H158758   8.685   6.123   6.426
19627TIP3    H258759   8.826   6.080   6.460
19628TIP3   OH258760   9.536   5.372   7.645
19628TIP3    H158761   9.451   5.381   7.601
19628TIP3    H258762   9.553   5.278   7.644
19629TIP3   OH258763   8.117   5.793   7.638
19629TIP3    H158764   8.124   5.840   7.721
19629TIP3    H258765   8.053   5.724   7.655
19630TIP3   OH258766   8.521   4.600   7.498
19630TIP3    H158767   8.438   4.566   7.465
19630TIP3    H258768   8.497   4.681   7.543
19631TIP3   OH258769   9.064   4.730   7.698
19631TIP3    H158770   9.135   4.700   7.754
19631TIP3    H258771   8.984   4.709   7.747
19632TIP3   OH258772   9.273   5.136   7.618
19632TIP3    H158773   9.247   5.145   7.710
19632TIP3    H258774   9.271   5.225   7.583
19633TIP3   OH258775   8.981   5.263   6.163
19633TIP3    H158776   8.936   5.228   6.086
19633TIP3    H258777   9.059   5.306   6.127
19634TIP3   OH258778   8.459   5.137   7.499
19634TIP3    H158779   8.411   5.137   7.581
19634TIP3    H258780   8.442   5.223   7.461
19635TIP3   OH258781   8.340   5.020   7.028
19635TIP3    H158782   8.253   4.990   7.051
19635TIP3    H258783   8.352   4.992   6.937
19636TIP3   OH258784   8.830   5.091   6.747
19636TIP3    H158785   8.773   5.148   6.694
19636TIP3    H258786   8.887   5.049   6.683
19637TIP3   OH258787   8.992   5.353   7.813
19637TIP3    H158788   8.977   5.286   7.879
19637TIP3    H258789   9.080   5.387   7.832
19638TIP3   OH258790   8.983   5.094   6.979
19638TIP3    H158791   8.918   5.110   6.911
19638TIP3    H258792   9.035   5.021   6.945
19639TIP3   OH258793   8.291   5.136   7.714
19639TIP3    H158794   8.298   5.205   7.780
19639TIP3    H258795   8.274   5.056   7.765
19640TIP3   OH258796   8.302   4.586   6.446
19640TIP3    H158797   8.298   4.618   6.536
19640TIP3    H258798   8.253   4.652   6.395
19641TIP3   OH258799   7.889   4.669   7.308
19641TIP3    H158800   7.963   4.704   7.357
19641TIP3    H258801   7.925   4.648   7.222
19642TIP3   OH258802   7.783   4.649   6.813
19642TIP3    H158803   7.831   4.685   6.739
19642TIP3    H258804   7.718   4.716   6.835
19643TIP3   OH258805   9.028   5.350   7.399
19643TIP3    H158806   9.057   5.283   7.337
19643TIP3    H258807   8.987   5.301   7.470
19644TIP3   OH258808   8.711   4.809   7.076
19644TIP3    H158809   8.632   4.804   7.130
19644TIP3    H258810   8.783   4.795   7.138
19645TIP3   OH258811   8.103   4.890   7.081
19645TIP3    H158812   8.015   4.894   7.044
19645TIP3    H258813   8.131   4.800   7.066
19646TIP3   OH258814   8.356   4.916   6.777
19646TIP3    H158815   8.450   4.903   6.765
19646TIP3    H258816   8.320   4.921   6.688
19647TIP3   OH258817   9.172   4.893   7.298
19647TIP3    H158818   9.138   4.913   7.385
19647TIP3    H258819   9.112   4.828   7.263
19648TIP3   OH258820   8.230   4.922   6.533
19648TIP3    H158821   8.166   4.868   6.486
19648TIP3    H258822   8.286   4.958   6.464
19649TIP3   OH258823   8.348   5.643   7.919
19649TIP3    H158824   8.419   5.658   7.981
19649TIP3    H258825   8.268   5.666   7.968
19650TIP3   OH258826   8.759   5.177   7.176
19650TIP3    H158827   8.821   5.124   7.127
19650TIP3    H258828   8.754   5.135   7.262
19651TIP3   OH258829   8.245   4.642   7.066
19651TIP3    H158830   8.217   4.566   7.117
19651TIP3    H258831   8.268   4.607   6.980
19652TIP3   OH258832   8.721   5.078   7.435
19652TIP3    H158833   8.633   5.106   7.462
19652TIP3    H258834   8.780   5.127   7.494
19653TIP3   OH258835   8.407   5.466   6.567
19653TIP3    H158836   8.356   5.391   6.538
19653TIP3    H258837   8.402   5.463   6.662
19654TIP3   OH258838   9.335   5.689   7.158
19654TIP3    H158839   9.372   5.736   7.083
19654TIP3    H258840   9.261   5.640   7.121
19655TIP3   OH258841   8.893   4.769   6.477
19655TIP3    H158842   8.807   4.790   6.441
19655TIP3    H258843   8.935   4.854   6.491
19656TIP3   OH258844   8.899   5.807   7.592
19656TIP3    H158845   8.968   5.777   7.651
19656TIP3    H258846   8.824   5.824   7.649
19657TIP3   OH258847   9.003   5.014   6.543
19657TIP3    H158848   9.098   5.019   6.543
19657TIP3    H258849   8.976   5.084   6.483
19658TIP3   OH258850   8.177   5.469   7.201
19658TIP3    H158851   8.214   5.442   7.117
19658TIP3    H258852   8.234   5.428   7.266
19659TIP3   OH258853   8.592   5.580   6.394
19659TIP3    H158854   8.554   5.668   6.388
19659TIP3    H258855   8.532   5.531   6.450
19660TIP3   OH258856   8.039   5.377   7.832
19660TIP3    H158857   8.067   5.352   7.921
19660TIP3    H258858   7.961   5.325   7.816
19661TIP3   OH258859   8.763   5.499   7.846
19661TIP3    H158860   8.693   5.437   7.824
19661TIP3    H258861   8.844   5.455   7.819
19662TIP3   OH258862   8.992   6.060   7.473
19662TIP3    H158863   8.967   5.969   7.487
19662TIP3    H258864   9.058   6.077   7.540
19663TIP3   OH258865   9.404   5.100   6.344
19663TIP3    H158866   9.350   5.051   6.282
19663TIP3    H258867   9.395   5.191   6.317
19664TIP3   OH258868   9.622   5.964   7.488
19664TIP3    H158869   9.531   5.965   7.460
19664TIP3    H258870   9.672   5.949   7.408
19665TIP3   OH258871   9.130   5.909   6.282
19665TIP3    H158872   9.098   5.831   6.326
19665TIP3    H258873   9.151   5.879   6.193
19666TIP3   OH258874   9.123   5.539   7.051
19666TIP3    H158875   9.039   5.513   7.089
19666TIP3    H258876   9.161   5.458   7.018
19667TIP3   OH258877   8.280   5.765   6.866
19667TIP3    H158878   8.277   5.846   6.816
19667TIP3    H258879   8.189   5.740   6.878
19668TIP3   OH258880   7.830   5.069   6.583
19668TIP3    H158881   7.875   5.149   6.609
19668TIP3    H258882   7.750   5.069   6.635
19669TIP3   OH258883   8.472   5.565   6.865
19669TIP3    H158884   8.411   5.639   6.856
19669TIP3    H258885   8.421   5.497   6.907
19670TIP3   OH258886   8.550   6.144   7.333
19670TIP3    H158887   8.573   6.217   7.276
19670TIP3    H258888   8.612   6.150   7.406
19671TIP3   OH258889   8.199   5.999   6.734
19671TIP3    H158890   8.111   6.007   6.770
19671TIP3    H258891   8.234   6.088   6.736
19672TIP3   OH258892   8.956   5.786   7.320
19672TIP3    H158893   8.926   5.775   7.410
19672TIP3    H258894   8.962   5.697   7.285
19673TIP3   OH258895   8.913   5.650   6.196
19673TIP3    H158896   8.947   5.625   6.283
19673TIP3    H258897   8.830   5.603   6.189
19674TIP3   OH258898   9.146   6.334   7.368
19674TIP3    H158899   9.188   6.262   7.322
19674TIP3    H258900   9.181   6.413   7.326
19675TIP3   OH258901   9.213   6.126   5.972
19675TIP3    H158902   9.233   6.183   5.897
19675TIP3    H258903   9.146   6.174   6.021
19676TIP3   OH258904   8.242   4.889   7.844
19676TIP3    H158905   8.147   4.902   7.850
19676TIP3    H258906   8.264   4.833   7.918
19677TIP3   OH258907   9.068   5.599   6.434
19677TIP3    H158908   9.059   5.532   6.502
19677TIP3    H258909   9.160   5.595   6.410
19678TIP3   OH258910   7.979   5.983   7.473
19678TIP3    H158911   8.034   5.926   7.526
19678TIP3    H258912   7.990   6.070   7.511
19679TIP3   OH258913   8.252   5.616   6.190
19679TIP3    H158914   8.261   5.525   6.163
19679TIP3    H258915   8.233   5.611   6.284
19680TIP3   OH258916   8.198   5.631   6.461
19680TIP3    H158917   8.277   5.597   6.504
19680TIP3    H258918   8.205   5.726   6.471
19681TIP3   OH258919   7.931   5.319   6.673
19681TIP3    H158920   7.866   5.366   6.725
19681TIP3    H258921   7.949   5.376   6.599
19682TIP3   OH258922   9.076   4.960   7.550
19682TIP3    H158923   9.156   5.004   7.580
19682TIP3    H258924   9.071   4.881   7.604
19683TIP3   OH258925   8.968   4.700   6.735
19683TIP3    H158926   8.934   4.720   6.648
19683TIP3    H258927   9.015   4.779   6.761
19684TIP3   OH258928   8.481   5.824   6.408
19684TIP3    H158929   8.395   5.847   6.445
19684TIP3    H258930   8.499   5.893   6.344
19685TIP3   OH258931   8.640   4.897   6.822
19685TIP3    H158932   8.705   4.960   6.793
19685TIP3    H258933   8.665   4.876   6.912
19686TIP3   OH258934   8.919   5.193   7.593
19686TIP3    H158935   8.944   5.234   7.676
19686TIP3    H258936   8.967   5.110   7.592
19687TIP3   OH258937   8.799   4.589   6.920
19687TIP3    H158938   8.770   4.668   6.966
19687TIP3    H258939   8.861   4.619   6.855
19688TIP3   OH258940   8.228   5.904   6.479
19688TIP3    H158941   8.208   5.977   6.421
19688TIP3    H258942   8.215   5.939   6.567
19689TIP3   OH258943   8.280   4.635   6.724
19689TIP3    H158944   8.270   4.728   6.748
19689TIP3    H258945   8.373   4.617   6.737
19690TIP3   OH258946   9.542   5.094   7.597
19690TIP3    H158947   9.447   5.090   7.612
19690TIP3    H258948   9.555   5.054   7.511
19691TIP3   OH258949   9.208   5.286   6.969
19691TIP3    H158950   9.138   5.222   6.986
19691TIP3    H258951   9.283   5.253   7.019
19692TIP3   OH258952   7.955   5.496   6.459
19692TIP3    H158953   8.027   5.559   6.466
19692TIP3    H258954   7.986   5.433   6.394
19693TIP3   OH258955   7.879   4.793   6.602
19693TIP3    H158956   7.871   4.889   6.598
19693TIP3    H258957   7.916   4.769   6.517
19694TIP3   OH258958   9.184   6.253   6.898
19694TIP3    H158959   9.146   6.313   6.833
19694TIP3    H258960   9.279   6.269   6.892
19695TIP3   OH258961   8.260   4.513   7.457
19695TIP3    H158962   8.231   4.482   7.371
19695TIP3    H258963   8.251   4.437   7.514
19696TIP3   OH258964   7.781   5.771   6.845
19696TIP3    H158965   7.740   5.807   6.923
19696TIP3    H258966   7.736   5.814   6.772
19697TIP3   OH258967   7.940   6.265   7.827
19697TIP3    H158968   8.013   6.290   7.883
19697TIP3    H258969   7.922   6.174   7.850
19698TIP3   OH258970   8.458   6.147   7.951
19698TIP3    H158971   8.552   6.129   7.947
19698TIP3    H258972   8.423   6.110   7.870
19699TIP3   OH258973   8.426   5.800   6.082
19699TIP3    H158974   8.374   5.730   6.123
19699TIP3    H258975   8.497   5.753   6.037
19700TIP3   OH258976   9.127   6.119   7.704
19700TIP3    H158977   9.098   6.065   7.778
19700TIP3    H258978   9.220   6.131   7.718
19701TIP3   OH258979   8.861   5.856   6.021
19701TIP3    H158980   8.888   5.791   6.087
19701TIP3    H258981   8.931   5.855   5.956
19702TIP3   OH258982   4.829   1.024   0.047
19702TIP3    H158983   4.822   0.928   0.040
19702TIP3    H258984   4.748   1.056   0.008
19703TIP3   OH258985   8.075   5.307   6.303
19703TIP3    H158986   8.127   5.275   6.377
19703TIP3    H258987   8.139   5.322   6.234
19704TIP3   OH258988   8.718   5.768   7.845
19704TIP3    H158989   8.652   5.781   7.777
19704TIP3    H258990   8.740   5.675   7.840
19705TIP3   OH258991   8.661   5.537   6.130
19705TIP3    H158992   8.628   5.545   6.220
19705TIP3    H258993   8.654   5.444   6.110
19706TIP3   OH258994   9.197   5.829   7.476
19706TIP3    H158995   9.271   5.870   7.432
19706TIP3    H258996   9.127   5.827   7.411
19707TIP3   OH258997   4.953   0.758   0.062
19707TIP3    H158998   5.030   0.760   0.005
19707TIP3    H258999   4.980   0.807   0.140
19708TIP3   OH259000   8.262   5.241   6.508
19708TIP3    H159001   8.235   5.195   6.587
19708TIP3    H259002   8.307   5.175   6.455
19709TIP3   OH259003   8.570   5.321   7.755
19709TIP3    H159004   8.480   5.354   7.760
19709TIP3    H259005   8.600   5.344   7.667
19710TIP3   OH259006   8.382   5.054   6.348
19710TIP3    H159007   8.365   5.063   6.254
19710TIP3    H259008   8.467   5.010   6.352
19711TIP3   OH259009   9.072   5.718   7.869
19711TIP3    H159010   9.168   5.722   7.872
19711TIP3    H259011   9.048   5.652   7.933
19712TIP3   OH259012   9.194   5.378   6.030
19712TIP3    H159013   9.180   5.330   5.949
19712TIP3    H259014   9.161   5.466   6.011
19713TIP3   OH259015   8.674   5.098   7.876
19713TIP3    H159016   8.678   5.027   7.813
19713TIP3    H259017   8.639   5.172   7.827
19714TIP3   OH259018   8.677   4.905   7.670
19714TIP3    H159019   8.703   4.937   7.584
19714TIP3    H259020   8.586   4.877   7.659
19715TIP3   OH259021   8.676   5.405   7.520
19715TIP3    H159022   8.769   5.401   7.498
19715TIP3    H259023   8.642   5.481   7.472
19716TIP3   OH259024   9.302   5.372   7.996
19716TIP3    H159025   9.292   5.293   7.943
19716TIP3    H259026   9.383   5.412   7.964
19717TIP3   OH259027   9.319   5.636   7.628
19717TIP3    H159028   9.269   5.706   7.585
19717TIP3    H259029   9.410   5.663   7.619
19718TIP3   OH259030   5.277   0.555   0.110
19718TIP3    H159031   5.212   0.488   0.130
19718TIP3    H259032   5.313   0.528   0.025
19719TIP3   OH259033   8.798   4.673   7.772
19719TIP3    H159034   8.758   4.754   7.740
19719TIP3    H259035   8.731   4.606   7.761
19720TIP3   OH259036   8.930   5.147   7.981
19720TIP3    H159037   8.926   5.131   8.075
19720TIP3    H259038   8.843   5.121   7.949
19721TIP3   OH259039   9.194   5.141   7.877
19721TIP3    H159040   9.112   5.123   7.922
19721TIP3    H259041   9.260   5.091   7.926
19722TIP3   OH259042   6.140   0.422   0.015
19722TIP3    H159043   6.157   0.328   0.014
19722TIP3    H259044   6.134   0.444   0.108
19723TIP3   OH259045   5.115   0.338   0.182
19723TIP3    H159046   5.119   0.251   0.142
19723TIP3    H259047   5.156   0.327   0.268
19724TIP3   OH259048   5.596   0.024   0.034
19724TIP3    H159049   5.669  -0.038   0.030
19724TIP3    H259050   5.568   0.034  -0.057
19725TIP3   OH259051   5.693   0.247   0.159
19725TIP3    H159052   5.660   0.171   0.112
19725TIP3    H259053   5.617   0.304   0.169
19726TIP3   OH259054   8.232   6.121   6.301
19726TIP3    H159055   8.314   6.089   6.264
19726TIP3    H259056   8.187   6.164   6.228
19727TIP3   OH259057   7.681   5.499   6.476
19727TIP3    H159058   7.776   5.508   6.471
19727TIP3    H259059   7.664   5.414   6.435
19728TIP3   OH259060   7.583   6.083   6.937
19728TIP3    H159061   7.517   6.030   6.892
19728TIP3    H259062   7.628   6.022   6.995
19729TIP3   OH259063   7.729   5.909   7.096
19729TIP3    H159064   7.722   5.841   7.163
19729TIP3    H259065   7.781   5.978   7.136
19730TIP3   OH259066   9.450   6.326   6.899
19730TIP3    H159067   9.460   6.338   6.993
19730TIP3    H259068   9.484   6.407   6.861
19731TIP3   OH259069   9.455   6.353   7.174
19731TIP3    H159070   9.395   6.279   7.188
19731TIP3    H259071   9.531   6.333   7.229
19732TIP3   OH259072   9.339   5.579   6.384
19732TIP3    H159073   9.396   5.648   6.349
19732TIP3    H259074   9.392   5.534   6.449
19733TIP3   OH259075   9.479   5.419   6.558
19733TIP3    H159076   9.418   5.374   6.616
19733TIP3    H259077   9.546   5.454   6.616
19734TIP3   OH259078   9.511   5.829   6.994
19734TIP3    H159079   9.562   5.755   6.959
19734TIP3    H259080   9.526   5.900   6.931
19735TIP3   OH259081   9.286   6.139   7.212
19735TIP3    H159082   9.325   6.063   7.256
19735TIP3    H259083   9.247   6.102   7.132
19736TIP3   OH259084   9.366   5.347   6.236
19736TIP3    H159085   9.300   5.353   6.166
19736TIP3    H259086   9.352   5.425   6.289
19737TIP3   OH259087   9.255   4.983   6.146
19737TIP3    H159088   9.205   5.016   6.072
19737TIP3    H259089   9.248   4.888   6.140
19738TIP3   OH259090   9.293   5.278   6.706
19738TIP3    H159091   9.301   5.185   6.685
19738TIP3    H259092   9.277   5.280   6.800
19739TIP3   OH259093   7.903   5.344   7.484
19739TIP3    H159094   7.890   5.308   7.397
19739TIP3    H259095   7.998   5.339   7.498
19740TIP3   OH259096   9.574   5.719   7.608
19740TIP3    H159097   9.651   5.664   7.602
19740TIP3    H259098   9.605   5.806   7.583
19741TIP3   OH259099   9.759   5.513   7.575
19741TIP3    H159100   9.679   5.469   7.601
19741TIP3    H259101   9.828   5.447   7.586
19742TIP3   OH259102   9.203   4.709   6.119
19742TIP3    H159103   9.265   4.690   6.189
19742TIP3    H259104   9.118   4.681   6.154
19743TIP3   OH259105   9.281   5.015   6.586
19743TIP3    H159106   9.319   4.930   6.606
19743TIP3    H259107   9.329   5.045   6.508
19744TIP3   OH259108   9.433   5.189   7.095
19744TIP3    H159109   9.514   5.212   7.050
19744TIP3    H259110   9.447   5.218   7.185
19745TIP3   OH259111   9.491   5.316   7.337
19745TIP3    H159112   9.417   5.343   7.391
19745TIP3    H259113   9.521   5.396   7.294
19746TIP3   OH259114   4.854   0.412   0.116
19746TIP3    H159115   4.948   0.405   0.134
19746TIP3    H259116   4.817   0.330   0.150
19747TIP3   OH259117   0.156   4.948   7.894
19747TIP3    H159118   0.220   4.895   7.847
19747TIP3    H259119   0.105   4.990   7.825
19748TIP3   OH259120   9.362   4.761   6.656
19748TIP3    H159121   9.404   4.746   6.740
19748TIP3    H259122   9.302   4.687   6.645
19749TIP3   OH259123   8.101   4.740   7.475
19749TIP3    H159124   8.153   4.660   7.480
19749TIP3    H259125   8.165   4.808   7.454
19750TIP3   OH259126   7.876   5.000   7.531
19750TIP3    H159127   7.929   4.988   7.452
19750TIP3    H259128   7.907   5.083   7.568
19751TIP3   OH259129   9.791   5.024   7.691
19751TIP3    H159130   9.705   5.066   7.684
19751TIP3    H259131   9.784   4.947   7.634
19752TIP3   OH259132   9.413   4.674   6.294
19752TIP3    H159133   9.455   4.614   6.232
19752TIP3    H259134   9.475   4.746   6.303
19753TIP3   OH259135   7.868   4.523   7.041
19753TIP3    H159136   7.783   4.506   7.082
19753TIP3    H259137   7.847   4.574   6.963
19754TIP3   OH259138   9.026   6.222   6.552
19754TIP3    H159139   9.084   6.213   6.476
19754TIP3    H259140   9.066   6.292   6.604
19755TIP3   OH259141   8.096   4.571   7.864
19755TIP3    H159142   8.045   4.565   7.945
19755TIP3    H259143   8.040   4.620   7.803
19756TIP3   OH259144   8.115   5.969   7.852
19756TIP3    H159145   8.020   5.975   7.862
19756TIP3    H259146   8.151   6.004   7.933
19757TIP3   OH259147   8.330   6.046   7.457
19757TIP3    H159148   8.263   6.102   7.417
19757TIP3    H259149   8.412   6.077   7.419
19758TIP3   OH259150   8.927   6.392   7.518
19758TIP3    H159151   9.015   6.402   7.481
19758TIP3    H259152   8.920   6.461   7.583
19759TIP3   OH259153   9.713   4.781   7.577
19759TIP3    H159154   9.621   4.773   7.553
19759TIP3    H259155   9.747   4.691   7.573
19760TIP3   OH259156   7.965   6.276   7.489
19760TIP3    H159157   7.874   6.291   7.463
19760TIP3    H259158   7.984   6.349   7.549
19761TIP3   OH259159   8.181   6.231   7.331
19761TIP3    H159160   8.103   6.251   7.382
19761TIP3    H259161   8.182   6.296   7.262
19762TIP3   OH259162   8.612   6.349   7.162
19762TIP3    H159163   8.544   6.331   7.097
19762TIP3    H259164   8.613   6.445   7.168
19763TIP3   OH259165   8.856   6.252   7.253
19763TIP3    H159166   8.774   6.279   7.211
19763TIP3    H259167   8.924   6.298   7.203
19764TIP3   OH259168   9.022   6.387   7.081
19764TIP3    H159169   9.059   6.474   7.067
19764TIP3    H259170   9.072   6.330   7.022
19765TIP3   OH259171   7.900   6.090   7.226
19765TIP3    H159172   7.915   6.063   7.317
19765TIP3    H259173   7.977   6.059   7.179
19766TIP3   OH259174   8.109   5.977   7.094
19766TIP3    H159175   8.118   5.895   7.142
19766TIP3    H259176   8.193   6.020   7.105
19767TIP3   OH259177   8.375   6.074   7.119
19767TIP3    H159178   8.401   5.983   7.106
19767TIP3    H259179   8.417   6.099   7.202
19768TIP3   OH259180   8.930   4.712   7.224
19768TIP3    H159181   8.890   4.641   7.275
19768TIP3    H259182   8.998   4.669   7.172
19769TIP3   OH259183   9.419   4.641   7.129
19769TIP3    H159184   9.451   4.688   7.051
19769TIP3    H259185   9.324   4.642   7.120
19770TIP3   OH259186   9.515   4.720   6.884
19770TIP3    H159187   9.589   4.675   6.844
19770TIP3    H259188   9.536   4.813   6.876
19771TIP3   OH259189   8.171   4.415   7.214
19771TIP3    H159190   8.082   4.381   7.223
19771TIP3    H259191   8.225   4.337   7.205
19772TIP3   OH259192   7.998   4.325   6.878
19772TIP3    H159193   8.023   4.369   6.797
19772TIP3    H259194   7.963   4.395   6.933
19773TIP3   OH259195   8.656   4.449   7.118
19773TIP3    H159196   8.701   4.495   7.047
19773TIP3    H259197   8.699   4.479   7.198
19774TIP3   OH259198   9.144   4.593   7.095
19774TIP3    H159199   9.148   4.559   7.006
19774TIP3    H259200   9.151   4.515   7.151
19775TIP3   OH259201   9.188   4.549   6.662
19775TIP3    H159202   9.106   4.593   6.681
19775TIP3    H259203   9.180   4.463   6.704
19776TIP3   OH259204   7.663   5.893   6.628
19776TIP3    H159205   7.579   5.860   6.595
19776TIP3    H259206   7.667   5.983   6.596
19777TIP3   OH259207   8.094   4.444   6.637
19777TIP3    H159208   8.143   4.391   6.574
19777TIP3    H259209   8.158   4.508   6.669
19778TIP3   OH259210   8.546   4.639   6.773
19778TIP3    H159211   8.616   4.577   6.789
19778TIP3    H259212   8.588   4.725   6.774
19779TIP3   OH259213   8.474   6.029   6.217
19779TIP3    H159214   8.557   6.060   6.179
19779TIP3    H259215   8.450   5.954   6.163
19780TIP3   OH259216   9.173   6.177   6.321
19780TIP3    H159217   9.163   6.082   6.313
19780TIP3    H259218   9.130   6.212   6.243
19781TIP3   OH259219   5.137   0.072   0.094
19781TIP3    H159220   5.100   0.009   0.156
19781TIP3    H259221   5.229   0.077   0.117
19782TIP3   OH259222   5.387   0.067   0.210
19782TIP3    H159223   5.464   0.050   0.155
19782TIP3    H259224   5.387  -0.005   0.273
19783TIP3   OH259225   7.786   5.888   6.283
19783TIP3    H159226   7.786   5.889   6.379
19783TIP3    H259227   7.864   5.838   6.260
19784TIP3   OH259228   6.202   0.155   0.004
19784TIP3    H159229   6.216   0.121   0.092
19784TIP3    H259230   6.289   0.157  -0.035
19785TIP3   OH259231   0.110   5.573   7.078
19785TIP3    H159232   0.129   5.507   7.144
19785TIP3    H259233   0.134   5.656   7.119
19786TIP3   OH259234   0.068   5.993   6.773
19786TIP3    H159235   0.041   5.906   6.803
19786TIP3    H259236   0.162   5.985   6.756
19787TIP3   OH259237   9.645   5.209   6.458
19787TIP3    H159238   9.600   5.286   6.493
19787TIP3    H259239   9.574   5.152   6.427
19788TIP3   OH259240   9.698   5.500   6.699
19788TIP3    H159241   9.747   5.420   6.716
19788TIP3    H259242   9.763   5.562   6.665
19789TIP3   OH259243   0.659   5.981   6.714
19789TIP3    H159244   0.615   5.899   6.690
19789TIP3    H259245   0.665   5.978   6.809
19790TIP3   OH259246   0.464   5.124   6.857
19790TIP3    H159247   0.545   5.149   6.812
19790TIP3    H259248   0.476   5.032   6.880
19791TIP3   OH259249   0.025   5.265   6.758
19791TIP3    H159250   0.094   5.243   6.820
19791TIP3    H259251   0.028   5.196   6.692
19792TIP3   OH259252   0.564   5.525   6.659
19792TIP3    H159253   0.655   5.494   6.658
19792TIP3    H259254   0.512   5.445   6.668
19793TIP3   OH259255   0.331   4.989   7.126
19793TIP3    H159256   0.280   4.937   7.064
19793TIP3    H259257   0.271   5.006   7.199
19794TIP3   OH259258   0.444   5.941   6.949
19794TIP3    H159259   0.401   5.918   7.031
19794TIP3    H259260   0.535   5.959   6.974
19795TIP3   OH259261   0.205   5.193   6.947
19795TIP3    H159262   0.241   5.278   6.976
19795TIP3    H259263   0.282   5.140   6.929
19796TIP3   OH259264   9.504   5.767   6.257
19796TIP3    H159265   9.462   5.795   6.175
19796TIP3    H259266   9.538   5.847   6.296
19797TIP3   OH259267   0.113   5.725   6.536
19797TIP3    H159268   0.168   5.660   6.493
19797TIP3    H259269   0.170   5.801   6.548
19798TIP3   OH259270   0.432   6.138   6.644
19798TIP3    H159271   0.432   6.149   6.549
19798TIP3    H259272   0.523   6.117   6.666
19799TIP3   OH259273   0.387   5.678   6.806
19799TIP3    H159274   0.449   5.625   6.755
19799TIP3    H259275   0.431   5.692   6.890
19800TIP3   OH259276   0.200   5.806   7.214
19800TIP3    H159277   0.294   5.815   7.233
19800TIP3    H259278   0.165   5.760   7.290
19801TIP3   OH259279   0.655   6.175   6.299
19801TIP3    H159280   0.678   6.209   6.385
19801TIP3    H259281   0.706   6.228   6.238
19802TIP3   OH259282   0.143   5.552   6.226
19802TIP3    H159283   0.049   5.560   6.210
19802TIP3    H259284   0.150   5.484   6.293
19803TIP3   OH259285   9.666   5.881   7.221
19803TIP3    H159286   9.628   5.852   7.137
19803TIP3    H259287   9.716   5.805   7.251
19804TIP3   OH259288   9.597   6.046   6.837
19804TIP3    H159289   9.691   6.041   6.819
19804TIP3    H259290   9.585   6.131   6.880
19805TIP3   OH259291   0.399   6.515   5.945
19805TIP3    H159292   0.415   6.435   5.896
19805TIP3    H259293   0.405   6.488   6.037
19806TIP3   OH259294   9.761   6.241   6.340
19806TIP3    H159295   9.799   6.229   6.427
19806TIP3    H259296   9.709   6.162   6.325
19807TIP3   OH259297   0.063   6.056   7.138
19807TIP3    H159298   0.138   5.998   7.150
19807TIP3    H259299  -0.012   6.006   7.171
19808TIP3   OH259300   0.526   4.868   6.942
19808TIP3    H159301   0.484   4.790   6.904
19808TIP3    H259302   0.502   4.864   7.035
19809TIP3   OH259303   0.602   5.363   6.978
19809TIP3    H159304   0.544   5.314   7.037
19809TIP3    H259305   0.547   5.432   6.941
19810TIP3   OH259306   0.328   5.199   6.478
19810TIP3    H159307   0.242   5.222   6.444
19810TIP3    H259308   0.390   5.243   6.420
19811TIP3   OH259309   0.191   5.362   7.237
19811TIP3    H159310   0.219   5.417   7.310
19811TIP3    H259311   0.186   5.274   7.275
19812TIP3   OH259312   0.401   4.906   5.912
19812TIP3    H159313   0.395   4.870   6.001
19812TIP3    H259314   0.364   4.838   5.856
19813TIP3   OH259315   9.584   4.975   6.820
19813TIP3    H159316   9.664   5.000   6.867
19813TIP3    H259317   9.613   4.959   6.731
19814TIP3   OH259318   9.592   4.885   6.293
19814TIP3    H159319   9.664   4.887   6.230
19814TIP3    H259320   9.547   4.969   6.280
19815TIP3   OH259321   0.055   5.050   6.585
19815TIP3    H159322  -0.025   5.066   6.534
19815TIP3    H259323   0.069   4.955   6.578
19816TIP3   OH259324   0.324   5.137   6.159
19816TIP3    H159325   0.364   5.214   6.118
19816TIP3    H259326   0.229   5.151   6.148
19817TIP3   OH259327   0.062   5.208   6.094
19817TIP3    H159328  -0.018   5.156   6.102
19817TIP3    H259329   0.100   5.180   6.011
19818TIP3   OH259330   0.411   4.723   6.496
19818TIP3    H159331   0.364   4.715   6.579
19818TIP3    H259332   0.374   4.800   6.454
19819TIP3   OH259333   0.519   5.687   6.102
19819TIP3    H159334   0.432   5.688   6.062
19819TIP3    H259335   0.503   5.708   6.194
19820TIP3   OH259336   0.103   5.715   6.806
19820TIP3    H159337   0.101   5.719   6.710
19820TIP3    H259338   0.195   5.697   6.827
19821TIP3   OH259339   9.781   5.660   7.341
19821TIP3    H159340   9.798   5.618   7.425
19821TIP3    H259341   9.714   5.606   7.300
19822TIP3   OH259342   0.181   5.987   6.362
19822TIP3    H159343   0.239   6.055   6.394
19822TIP3    H259344   0.098   6.002   6.407
19823TIP3   OH259345   9.573   5.344   6.058
19823TIP3    H159346   9.625   5.420   6.084
19823TIP3    H259347   9.500   5.343   6.121
19824TIP3   OH259348   0.357   5.777   6.313
19824TIP3    H159349   0.286   5.838   6.334
19824TIP3    H259350   0.331   5.695   6.355
19825TIP3   OH259351   0.199   6.312   6.216
19825TIP3    H159352   0.112   6.295   6.254
19825TIP3    H259353   0.206   6.408   6.217
19826TIP3   OH259354   0.191   5.101   7.337
19826TIP3    H159355   0.098   5.113   7.355
19826TIP3    H259356   0.227   5.069   7.420
19827TIP3   OH259357   9.766   6.258   6.975
19827TIP3    H159358   9.801   6.181   7.019
19827TIP3    H259359   9.803   6.332   7.024
19828TIP3   OH259360   0.122   5.870   5.643
19828TIP3    H159361   0.128   5.775   5.650
19828TIP3    H259362   0.113   5.901   5.733
19829TIP3   OH259363   0.119   5.949   5.912
19829TIP3    H159364   0.187   5.913   5.970
19829TIP3    H259365   0.128   6.044   5.921
19830TIP3   OH259366   9.682   5.586   6.144
19830TIP3    H159367   9.623   5.631   6.205
19830TIP3    H259368   9.698   5.649   6.075
19831TIP3   OH259369   0.416   6.047   5.872
19831TIP3    H159370   0.378   6.030   5.958
19831TIP3    H259371   0.427   6.142   5.869
19832TIP3   OH259372   0.161   6.216   5.955
19832TIP3    H159373   0.145   6.297   5.906
19832TIP3    H259374   0.179   6.245   6.044
19833TIP3   OH259375   0.335   4.778   6.142
19833TIP3    H159376   0.341   4.824   6.225
19833TIP3    H259377   0.377   4.693   6.158
19834TIP3   OH259378   9.717   5.770   5.941
19834TIP3    H159379   9.761   5.855   5.950
19834TIP3    H259380   9.774   5.719   5.884
19835TIP3   OH259381   9.619   5.068   6.059
19835TIP3    H159382   9.579   5.155   6.058
19835TIP3    H259383   9.551   5.011   6.022
19836TIP3   OH259384   9.574   6.030   6.335
19836TIP3    H159385   9.537   6.069   6.414
19836TIP3    H259386   9.526   6.072   6.263
19837TIP3   OH259387   0.486   6.119   5.580
19837TIP3    H159388   0.417   6.082   5.634
19837TIP3    H259389   0.551   6.049   5.573
19838TIP3   OH259390   0.104   5.630   5.797
19838TIP3    H159391   0.115   5.552   5.852
19838TIP3    H259392   0.165   5.617   5.725
19839TIP3   OH259393   0.169   5.428   5.955
19839TIP3    H159394   0.116   5.379   6.018
19839TIP3    H259395   0.259   5.422   5.989
19840TIP3   OH259396   0.545   5.530   7.289
19840TIP3    H159397   0.559   5.534   7.384
19840TIP3    H259398   0.632   5.519   7.252
19841TIP3   OH259399   0.407   5.355   5.772
19841TIP3    H159400   0.431   5.295   5.701
19841TIP3    H259401   0.449   5.438   5.748
19842TIP3   OH259402   0.629   5.215   7.356
19842TIP3    H159403   0.696   5.284   7.355
19842TIP3    H259404   0.557   5.251   7.303
19843TIP3   OH259405   0.672   5.029   7.151
19843TIP3    H159406   0.630   5.039   7.065
19843TIP3    H259407   0.644   5.106   7.201
19844TIP3   OH259408   0.352   5.336   7.663
19844TIP3    H159409   0.407   5.258   7.662
19844TIP3    H259410   0.415   5.409   7.657
19845TIP3   OH259411   0.156   6.424   5.782
19845TIP3    H159412   0.221   6.492   5.801
19845TIP3    H259413   0.122   6.448   5.696
19846TIP3   OH259414   9.446   5.753   5.944
19846TIP3    H159415   9.541   5.766   5.951
19846TIP3    H259416   9.437   5.666   5.904
19847TIP3   OH259417   9.372   6.331   6.425
19847TIP3    H159418   9.309   6.276   6.379
19847TIP3    H259419   9.415   6.272   6.487
19848TIP3   OH259420   9.519   6.165   6.586
19848TIP3    H159421   9.512   6.098   6.654
19848TIP3    H259422   9.569   6.236   6.627
19849TIP3   OH259423   9.663   5.607   6.952
19849TIP3    H159424   9.662   5.568   6.865
19849TIP3    H259425   9.756   5.610   6.976
19850TIP3   OH259426   0.094   5.271   7.597
19850TIP3    H159427   0.184   5.295   7.619
19850TIP3    H259428   0.079   5.189   7.642
19851TIP3   OH259429   0.005   5.005   6.987
19851TIP3    H159430   0.063   4.936   6.956
19851TIP3    H259431   0.059   5.084   6.988
19852TIP3   OH259432   9.675   5.287   7.005
19852TIP3    H159433   9.709   5.277   6.916
19852TIP3    H259434   9.747   5.327   7.054
19853TIP3   OH259435   9.603   4.867   6.565
19853TIP3    H159436   9.524   4.818   6.584
19853TIP3    H259437   9.612   4.864   6.470
19854TIP3   OH259438   0.037   4.812   7.328
19854TIP3    H159439  -0.001   4.812   7.416
19854TIP3    H259440  -0.023   4.865   7.276
19855TIP3   OH259441   9.695   6.341   6.718
19855TIP3    H159442   9.711   6.319   6.810
19855TIP3    H259443   9.768   6.300   6.671
19856TIP3   OH259444   0.087   6.200   6.579
19856TIP3    H159445   0.091   6.135   6.648
19856TIP3    H259446   0.163   6.257   6.594
19857TIP3   OH259447   0.301   6.376   6.616
19857TIP3    H159448   0.353   6.302   6.647
19857TIP3    H259449   0.365   6.435   6.577
19858TIP3   OH259450   9.701   4.582   6.392
19858TIP3    H159451   9.735   4.632   6.317
19858TIP3    H259452   9.725   4.634   6.468
19859TIP3   OH259453   9.456   6.141   6.111
19859TIP3    H159454   9.370   6.114   6.077
19859TIP3    H259455   9.464   6.233   6.086
19860TIP3   OH259456   0.045   4.718   6.208
19860TIP3    H159457   0.057   4.682   6.121
19860TIP3    H259458   0.118   4.684   6.259
19861TIP3   OH259459   0.477   6.308   5.785
19861TIP3    H159460   0.563   6.351   5.780
19861TIP3    H259461   0.474   6.253   5.707
19862TIP3   OH259462   0.308   4.996   7.564
19862TIP3    H159463   0.310   4.931   7.634
19862TIP3    H259464   0.389   4.981   7.516
19863TIP3   OH259465   0.695   4.977   7.756
19863TIP3    H159466   0.657   5.057   7.720
19863TIP3    H259467   0.641   4.907   7.720
19864TIP3   OH259468   9.513   6.135   5.795
19864TIP3    H159469   9.523   6.144   5.890
19864TIP3    H259470   9.599   6.104   5.765
19865TIP3   OH259471   7.868   1.616   0.466
19865TIP3    H159472   7.836   1.700   0.434
19865TIP3    H259473   7.801   1.553   0.438
19866TIP3   OH259474   7.889   1.566   0.861
19866TIP3    H159475   7.946   1.539   0.933
19866TIP3    H259476   7.847   1.486   0.833
19867TIP3   OH259477   8.116   1.858   0.494
19867TIP3    H159478   8.099   1.794   0.564
19867TIP3    H259479   8.153   1.933   0.540
19868TIP3   OH259480   7.721   2.323   0.437
19868TIP3    H159481   7.771   2.251   0.397
19868TIP3    H259482   7.661   2.279   0.497
19869TIP3   OH259483   7.695   1.763   0.875
19869TIP3    H159484   7.651   1.738   0.794
19869TIP3    H259485   7.773   1.708   0.878
19870TIP3   OH259486   8.706   1.158   0.878
19870TIP3    H159487   8.727   1.243   0.918
19870TIP3    H259488   8.738   1.166   0.788
19871TIP3   OH259489   8.081   1.277   0.908
19871TIP3    H159490   8.135   1.198   0.923
19871TIP3    H259491   8.043   1.264   0.821
19872TIP3   OH259492   7.447   0.982   0.886
19872TIP3    H159493   7.407   1.060   0.847
19872TIP3    H259494   7.402   0.908   0.844
19873TIP3   OH259495   8.125   1.076   0.495
19873TIP3    H159496   8.187   1.072   0.568
19873TIP3    H259497   8.175   1.111   0.422
19874TIP3   OH259498   7.501   1.407   0.758
19874TIP3    H159499   7.589   1.373   0.774
19874TIP3    H259500   7.449   1.329   0.739
19875TIP3   OH259501   8.774   1.383   1.036
19875TIP3    H159502   8.680   1.404   1.037
19875TIP3    H259503   8.807   1.414   1.120
19876TIP3   OH259504   7.734   1.811   0.330
19876TIP3    H159505   7.709   1.787   0.241
19876TIP3    H259506   7.677   1.884   0.353
19877TIP3   OH259507   8.286   1.111   0.710
19877TIP3    H159508   8.273   1.067   0.794
19877TIP3    H259509   8.349   1.181   0.729
19878TIP3   OH259510   8.193   2.099   0.615
19878TIP3    H159511   8.142   2.108   0.695
19878TIP3    H259512   8.142   2.145   0.548
19879TIP3   OH259513   8.514   1.074   1.069
19879TIP3    H159514   8.438   1.028   1.035
19879TIP3    H259515   8.567   1.094   0.991
19880TIP3   OH259516   7.761   0.675   1.014
19880TIP3    H159517   7.756   0.585   1.047
19880TIP3    H259518   7.692   0.722   1.062
19881TIP3   OH259519   7.874   2.148   0.285
19881TIP3    H159520   7.921   2.065   0.274
19881TIP3    H259521   7.942   2.215   0.275
19882TIP3   OH259522   8.041   1.940   0.243
19882TIP3    H159523   8.040   1.861   0.188
19882TIP3    H259524   8.068   1.908   0.329
19883TIP3   OH259525   8.431   1.999   1.026
19883TIP3    H159526   8.406   1.925   0.969
19883TIP3    H259527   8.409   2.077   0.975
19884TIP3   OH259528   7.690   1.467   0.309
19884TIP3    H159529   7.607   1.513   0.295
19884TIP3    H259530   7.732   1.467   0.223
19885TIP3   OH259531   1.127   5.889   7.995
19885TIP3    H159532   1.189   5.941   8.046
19885TIP3    H259533   1.180   5.821   7.955
19886TIP3   OH259534   8.581   1.713   0.907
19886TIP3    H159535   8.492   1.745   0.896
19886TIP3    H259536   8.620   1.720   0.819
19887TIP3   OH259537   8.047   1.543   0.269
19887TIP3    H159538   7.996   1.572   0.345
19887TIP3    H259539   8.130   1.514   0.307
19888TIP3   OH259540   8.264   1.471   1.191
19888TIP3    H159541   8.283   1.559   1.160
19888TIP3    H259542   8.178   1.451   1.154
19889TIP3   OH259543   7.452   1.483   1.016
19889TIP3    H159544   7.468   1.466   0.923
19889TIP3    H259545   7.535   1.518   1.049
19890TIP3   OH259546   8.038   2.156   0.824
19890TIP3    H159547   7.993   2.229   0.867
19890TIP3    H259548   7.979   2.081   0.835
19891TIP3   OH259549   7.873   1.417   0.098
19891TIP3    H159550   7.934   1.470   0.148
19891TIP3    H259551   7.904   1.423   0.008
19892TIP3   OH259552   7.615   2.060   0.360
19892TIP3    H159553   7.707   2.074   0.339
19892TIP3    H259554   7.567   2.104   0.290
19893TIP3   OH259555   8.379   0.636   0.155
19893TIP3    H159556   8.304   0.657   0.210
19893TIP3    H259557   8.389   0.713   0.099
19894TIP3   OH259558   1.682   6.632   7.710
19894TIP3    H159559   1.681   6.724   7.682
19894TIP3    H259560   1.772   6.603   7.692
19895TIP3   OH259561   8.724   2.449   1.001
19895TIP3    H159562   8.711   2.393   0.925
19895TIP3    H259563   8.664   2.414   1.067
19896TIP3   OH259564   7.670   2.205   1.362
19896TIP3    H159565   7.749   2.257   1.347
19896TIP3    H259566   7.643   2.176   1.275
19897TIP3   OH259567   7.518   2.241   0.172
19897TIP3    H159568   7.475   2.244   0.087
19897TIP3    H259569   7.464   2.296   0.229
19898TIP3   OH259570   1.165   6.837   7.805
19898TIP3    H159571   1.220   6.766   7.773
19898TIP3    H259572   1.202   6.860   7.890
19899TIP3   OH259573   7.765   2.288   0.061
19899TIP3    H159574   7.682   2.279   0.106
19899TIP3    H259575   7.829   2.245   0.118
19900TIP3   OH259576   8.524   1.509   1.347
19900TIP3    H159577   8.430   1.523   1.340
19900TIP3    H259578   8.537   1.418   1.322
19901TIP3   OH259579   7.562   0.798   1.152
19901TIP3    H159580   7.495   0.848   1.104
19901TIP3    H259581   7.597   0.860   1.216
19902TIP3   OH259582   7.945   0.918   1.352
19902TIP3    H159583   7.952   0.851   1.420
19902TIP3    H259584   7.851   0.937   1.346
19903TIP3   OH259585   8.265   1.269   1.381
19903TIP3    H159586   8.264   1.312   1.467
19903TIP3    H259587   8.267   1.341   1.318
19904TIP3   OH259588   1.424   6.022   7.841
19904TIP3    H159589   1.375   6.021   7.759
19904TIP3    H259590   1.506   6.065   7.820
19905TIP3   OH259591   7.653   0.828   0.153
19905TIP3    H159592   7.623   0.832   0.243
19905TIP3    H259593   7.628   0.741   0.123
19906TIP3   OH259594   7.405   1.280   1.195
19906TIP3    H159595   7.312   1.286   1.214
19906TIP3    H259596   7.421   1.345   1.127
19907TIP3   OH259597   7.330   1.184   0.724
19907TIP3    H159598   7.237   1.197   0.737
19907TIP3    H259599   7.337   1.135   0.642
19908TIP3   OH259600   7.810   1.255   0.433
19908TIP3    H159601   7.764   1.329   0.393
19908TIP3    H259602   7.868   1.223   0.363
19909TIP3   OH259603   7.989   1.262   0.648
19909TIP3    H159604   7.914   1.281   0.591
19909TIP3    H259605   8.033   1.188   0.607
19910TIP3   OH259606   7.329   0.788   0.135
19910TIP3    H159607   7.285   0.785   0.220
19910TIP3    H259608   7.258   0.788   0.071
19911TIP3   OH259609   7.997   1.451   1.093
19911TIP3    H159610   8.026   1.386   1.030
19911TIP3    H259611   7.958   1.400   1.164
19912TIP3   OH259612   7.694   1.055   0.779
19912TIP3    H159613   7.617   1.028   0.828
19912TIP3    H259614   7.761   0.992   0.802
19913TIP3   OH259615   7.345   1.055   0.481
19913TIP3    H159616   7.440   1.067   0.477
19913TIP3    H259617   7.313   1.082   0.395
19914TIP3   OH259618   8.217   1.037   0.975
19914TIP3    H159619   8.178   1.050   1.061
19914TIP3    H259620   8.204   0.944   0.956
19915TIP3   OH259621   7.242   1.114   0.234
19915TIP3    H159622   7.173   1.063   0.190
19915TIP3    H259623   7.299   1.142   0.163
19916TIP3   OH259624   8.426   2.777   1.304
19916TIP3    H159625   8.368   2.839   1.260
19916TIP3    H259626   8.392   2.772   1.394
19917TIP3   OH259627   7.747   1.320   0.868
19917TIP3    H159628   7.766   1.243   0.813
19917TIP3    H259629   7.727   1.283   0.954
19918TIP3   OH259630   7.307   0.798   0.733
19918TIP3    H159631   7.225   0.752   0.720
19918TIP3    H259632   7.364   0.767   0.662
19919TIP3   OH259633   7.680   1.223   1.123
19919TIP3    H159634   7.594   1.249   1.156
19919TIP3    H259635   7.743   1.260   1.185
19920TIP3   OH259636   7.450   1.606   0.269
19920TIP3    H159637   7.384   1.539   0.253
19920TIP3    H259638   7.428   1.642   0.355
19921TIP3   OH259639   8.351   1.845   0.809
19921TIP3    H159640   8.377   1.904   0.738
19921TIP3    H259641   8.276   1.797   0.775
19922TIP3   OH259642   7.909   0.923   0.141
19922TIP3    H159643   7.815   0.904   0.145
19922TIP3    H259644   7.915   1.017   0.160
19923TIP3   OH259645   7.832   1.876   1.319
19923TIP3    H159646   7.805   1.794   1.360
19923TIP3    H259647   7.853   1.934   1.392
19924TIP3   OH259648   7.974   1.182   0.217
19924TIP3    H159649   8.069   1.184   0.229
19924TIP3    H259650   7.954   1.261   0.167
19925TIP3   OH259651   7.603   1.741   0.090
19925TIP3    H159652   7.556   1.823   0.080
19925TIP3    H259653   7.548   1.689   0.149
19926TIP3   OH259654   7.873   2.287   1.014
19926TIP3    H159655   7.826   2.213   0.975
19926TIP3    H259656   7.883   2.263   1.106
19927TIP3   OH259657   8.383   1.267   0.034
19927TIP3    H159658   8.326   1.222  -0.028
19927TIP3    H259659   8.390   1.356  -0.000
19928TIP3   OH259660   8.681   2.023   1.130
19928TIP3    H159661   8.590   2.042   1.108
19928TIP3    H259662   8.725   2.012   1.046
19929TIP3   OH259663   1.588   6.705   7.971
19929TIP3    H159664   1.570   6.640   8.040
19929TIP3    H259665   1.611   6.653   7.894
19930TIP3   OH259666   8.108   1.694   0.728
19930TIP3    H159667   8.023   1.657   0.753
19930TIP3    H259668   8.158   1.618   0.697
19931TIP3   OH259669   7.387   1.682   0.528
19931TIP3    H159670   7.337   1.744   0.581
19931TIP3    H259671   7.407   1.610   0.587
19932TIP3   OH259672   8.004   1.888   0.905
19932TIP3    H159673   7.993   1.828   0.979
19932TIP3    H259674   8.047   1.836   0.838
19933TIP3   OH259675   1.374   6.435   7.864
19933TIP3    H159676   1.419   6.405   7.942
19933TIP3    H259677   1.291   6.387   7.863
19934TIP3   OH259678   8.189   2.371   0.994
19934TIP3    H159679   8.170   2.402   1.083
19934TIP3    H259680   8.216   2.450   0.946
19935TIP3   OH259681   1.701   6.901   7.649
19935TIP3    H159682   1.754   6.972   7.614
19935TIP3    H259683   1.616   6.941   7.670
19936TIP3   OH259684   8.070   1.727   0.069
19936TIP3    H159685   8.059   1.660   0.136
19936TIP3    H259686   8.164   1.732   0.055
19937TIP3   OH259687   0.782   6.362   7.884
19937TIP3    H159688   0.768   6.279   7.837
19937TIP3    H259689   0.790   6.336   7.976
19938TIP3   OH259690   8.098   1.110   1.228
19938TIP3    H159691   8.166   1.143   1.287
19938TIP3    H259692   8.060   1.035   1.276
19939TIP3   OH259693   7.971   0.865   0.407
19939TIP3    H159694   7.953   0.885   0.315
19939TIP3    H259695   8.017   0.942   0.440
19940TIP3   OH259696   7.452   1.964   0.077
19940TIP3    H159697   7.361   1.978   0.105
19940TIP3    H259698   7.472   2.041   0.024
19941TIP3   OH259699   7.620   1.076   0.516
19941TIP3    H159700   7.684   1.138   0.480
19941TIP3    H259701   7.642   1.069   0.608
19942TIP3   OH259702   7.889   1.291   1.289
19942TIP3    H159703   7.886   1.307   1.384
19942TIP3    H259704   7.956   1.223   1.279
19943TIP3   OH259705   7.801   0.756   0.590
19943TIP3    H159706   7.829   0.798   0.672
19943TIP3    H259707   7.860   0.790   0.524
19944TIP3   OH259708   7.310   0.782   0.421
19944TIP3    H159709   7.299   0.871   0.452
19944TIP3    H259710   7.405   0.772   0.410
19945TIP3   OH259711   8.531   1.244   1.286
19945TIP3    H159712   8.455   1.216   1.335
19945TIP3    H259713   8.530   1.192   1.206
19946TIP3   OH259714   8.208   1.445   0.657
19946TIP3    H159715   8.134   1.385   0.666
19946TIP3    H259716   8.278   1.405   0.707
19947TIP3   OH259717   8.187   2.461   0.584
19947TIP3    H159718   8.099   2.424   0.576
19947TIP3    H259719   8.208   2.494   0.497
19948TIP3   OH259720   0.858   6.597   7.764
19948TIP3    H159721   0.825   6.520   7.812
19948TIP3    H259722   0.939   6.566   7.723
19949TIP3   OH259723   8.150   2.240   1.441
19949TIP3    H159724   8.130   2.276   1.527
19949TIP3    H259725   8.108   2.300   1.379
19950TIP3   OH259726   1.313   6.640   7.691
19950TIP3    H159727   1.352   6.578   7.753
19950TIP3    H259728   1.370   6.636   7.614
19951TIP3   OH259729   7.690   1.729   1.531
19951TIP3    H159730   7.637   1.808   1.519
19951TIP3    H259731   7.763   1.757   1.586
19952TIP3   OH259732   1.129   6.309   7.828
19952TIP3    H159733   1.100   6.318   7.919
19952TIP3    H259734   1.105   6.219   7.804
19953TIP3   OH259735   8.171   1.889   1.234
19953TIP3    H159736   8.169   1.969   1.181
19953TIP3    H259737   8.088   1.846   1.215
19954TIP3   OH259738   7.278   1.401   0.222
19954TIP3    H159739   7.234   1.332   0.271
19954TIP3    H259740   7.317   1.357   0.147
19955TIP3   OH259741   7.595   1.442   1.389
19955TIP3    H159742   7.513   1.475   1.425
19955TIP3    H259743   7.604   1.486   1.305
19956TIP3   OH259744   7.387   1.232   0.031
19956TIP3    H159745   7.357   1.229  -0.060
19956TIP3    H259746   7.482   1.240   0.025
19957TIP3   OH259747   8.193   1.960   1.557
19957TIP3    H159748   8.258   1.974   1.488
19957TIP3    H259749   8.232   1.893   1.613
19958TIP3   OH259750   1.642   6.147   7.726
19958TIP3    H159751   1.629   6.102   7.642
19958TIP3    H259752   1.620   6.238   7.708
19959TIP3   OH259753   7.682   1.001   1.301
19959TIP3    H159754   7.694   1.057   1.225
19959TIP3    H259755   7.627   1.051   1.361
19960TIP3   OH259756   7.704   1.547   1.143
19960TIP3    H159757   7.762   1.515   1.074
19960TIP3    H259758   7.763   1.574   1.213
19961TIP3   OH259759   8.313   1.711   1.386
19961TIP3    H159760   8.258   1.772   1.338
19961TIP3    H259761   8.400   1.720   1.346
19962TIP3   OH259762   8.477   2.546   0.513
19962TIP3    H159763   8.456   2.454   0.527
19962TIP3    H259764   8.545   2.545   0.445
19963TIP3   OH259765   8.436   2.465   0.830
19963TIP3    H159766   8.416   2.424   0.746
19963TIP3    H259767   8.497   2.404   0.872
19964TIP3   OH259768   8.640   2.203   1.398
19964TIP3    H159769   8.564   2.171   1.446
19964TIP3    H259770   8.674   2.275   1.452
19965TIP3   OH259771   8.346   1.732   0.059
19965TIP3    H159772   8.403   1.802   0.027
19965TIP3    H259773   8.392   1.694   0.133
19966TIP3   OH259774   8.475   1.592   0.260
19966TIP3    H159775   8.410   1.549   0.315
19966TIP3    H259776   8.540   1.626   0.321
19967TIP3   OH259777   8.539   2.016   0.650
19967TIP3    H159778   8.580   1.932   0.633
19967TIP3    H259779   8.578   2.076   0.586
19968TIP3   OH259780   8.343   2.188   0.859
19968TIP3    H159781   8.287   2.257   0.895
19968TIP3    H259782   8.303   2.166   0.775
19969TIP3   OH259783   1.849   6.128   7.905
19969TIP3    H159784   1.778   6.129   7.841
19969TIP3    H259785   1.834   6.206   7.958
19970TIP3   OH259786   1.696   5.771   7.841
19970TIP3    H159787   1.651   5.802   7.762
19970TIP3    H259788   1.693   5.676   7.834
19971TIP3   OH259789   8.276   1.441   0.389
19971TIP3    H159790   8.281   1.347   0.370
19971TIP3    H259791   8.258   1.445   0.483
19972TIP3   OH259792   8.547   1.805   1.241
19972TIP3    H159793   8.620   1.750   1.271
19972TIP3    H259794   8.590   1.874   1.189
19973TIP3   OH259795   8.747   1.661   1.358
19973TIP3    H159796   8.674   1.599   1.355
19973TIP3    H259797   8.824   1.608   1.337
19974TIP3   OH259798   1.664   5.499   7.808
19974TIP3    H159799   1.728   5.474   7.875
19974TIP3    H259800   1.581   5.462   7.839
19975TIP3   OH259801   8.265   1.172   0.271
19975TIP3    H159802   8.311   1.090   0.287
19975TIP3    H259803   8.307   1.208   0.193
19976TIP3   OH259804   8.429   1.337   0.784
19976TIP3    H159805   8.510   1.362   0.739
19976TIP3    H259806   8.446   1.358   0.876
19977TIP3   OH259807   8.510   1.460   1.024
19977TIP3    H159808   8.434   1.461   1.082
19977TIP3    H259809   8.516   1.550   0.991
19978TIP3   OH259810   8.909   1.071   1.556
19978TIP3    H159811   8.989   1.031   1.522
19978TIP3    H259812   8.885   1.137   1.491
19979TIP3   OH259813   8.379   0.925   0.332
19979TIP3    H159814   8.424   0.910   0.415
19979TIP3    H259815   8.316   0.853   0.326
19980TIP3   OH259816   8.802   1.209   1.338
19980TIP3    H159817   8.710   1.234   1.345
19980TIP3    H259818   8.800   1.122   1.298
19981TIP3   OH259819   1.885   5.457   7.971
19981TIP3    H159820   1.936   5.395   7.919
19981TIP3    H259821   1.941   5.534   7.979
19982TIP3   OH259822   8.049   2.350   0.218
19982TIP3    H159823   8.080   2.347   0.127
19982TIP3    H259824   8.114   2.404   0.263
19983TIP3   OH259825   7.808   2.452   1.290
19983TIP3    H159826   7.747   2.455   1.364
19983TIP3    H259827   7.839   2.543   1.281
19984TIP3   OH259828   7.899   2.711   1.259
19984TIP3    H159829   7.971   2.683   1.202
19984TIP3    H259830   7.942   2.757   1.331
19985TIP3   OH259831   8.709   0.964   1.243
19985TIP3    H159832   8.629   0.975   1.192
19985TIP3    H259833   8.728   0.870   1.237
19986TIP3   OH259834   7.471   2.340   0.892
19986TIP3    H159835   7.407   2.394   0.846
19986TIP3    H259836   7.536   2.402   0.925
19987TIP3   OH259837   7.826   2.408   0.757
19987TIP3    H159838   7.804   2.396   0.850
19987TIP3    H259839   7.868   2.494   0.754
19988TIP3   OH259840   8.170   2.597   0.820
19988TIP3    H159841   8.080   2.622   0.802
19988TIP3    H259842   8.194   2.540   0.747
19989TIP3   OH259843   7.873   0.856   0.835
19989TIP3    H159844   7.850   0.793   0.904
19989TIP3    H259845   7.968   0.847   0.826
19990TIP3   OH259846   8.530   0.863   0.554
19990TIP3    H159847   8.605   0.807   0.532
19990TIP3    H259848   8.566   0.952   0.555
19991TIP3   OH259849   7.619   0.639   0.773
19991TIP3    H159850   7.674   0.679   0.706
19991TIP3    H259851   7.665   0.655   0.855
19992TIP3   OH259852   8.139   0.804   0.795
19992TIP3    H159853   8.204   0.796   0.725
19992TIP3    H259854   8.145   0.722   0.843
19993TIP3   OH259855   8.193   0.715   0.340
19993TIP3    H159856   8.113   0.761   0.365
19993TIP3    H259857   8.186   0.630   0.384
19994TIP3   OH259858   7.167   0.538   0.402
19994TIP3    H159859   7.168   0.526   0.307
19994TIP3    H259860   7.215   0.620   0.416
19995TIP3   OH259861   7.585   0.822   0.421
19995TIP3    H159862   7.648   0.771   0.473
19995TIP3    H259863   7.597   0.912   0.451
19996TIP3   OH259864   0.910   6.822   7.913
19996TIP3    H159865   0.993   6.842   7.871
19996TIP3    H259866   0.870   6.756   7.856
19997TIP3   OH259867   1.630   6.972   7.967
19997TIP3    H159868   1.621   6.877   7.966
19997TIP3    H259869   1.587   7.001   7.886
19998TIP3   OH259870   8.383   2.522   1.153
19998TIP3    H159871   8.436   2.447   1.126
19998TIP3    H259872   8.389   2.522   1.249
19999TIP3   OH259873   3.121   6.498   7.937
19999TIP3    H159874   3.087   6.585   7.917
19999TIP3    H259875   3.051   6.438   7.913
20000TIP3   OH259876   9.653   1.875   0.367
20000TIP3    H159877   9.708   1.855   0.443
20000TIP3    H259878   9.607   1.794   0.348
20001TIP3   OH259879   8.945   1.731   0.715
20001TIP3    H159880   8.985   1.678   0.784
20001TIP3    H259881   9.018   1.755   0.658
20002TIP3   OH259882   0.127   2.180   0.038
20002TIP3    H159883   0.109   2.114   0.105
20002TIP3    H259884   0.142   2.260   0.087
20003TIP3   OH259885   8.937   2.143   0.392
20003TIP3    H159886   8.926   2.048   0.391
20003TIP3    H259887   9.032   2.156   0.388
20004TIP3   OH259888   8.623   1.368   0.170
20004TIP3    H159889   8.583   1.451   0.196
20004TIP3    H259890   8.551   1.317   0.132
20005TIP3   OH259891   8.701   1.677   0.406
20005TIP3    H159892   8.752   1.599   0.430
20005TIP3    H259893   8.766   1.742   0.380
20006TIP3   OH259894   9.587   2.599   0.054
20006TIP3    H159895   9.608   2.539  -0.018
20006TIP3    H259896   9.597   2.547   0.133
20007TIP3   OH259897   9.456   2.096   0.365
20007TIP3    H159898   9.503   2.017   0.336
20007TIP3    H259899   9.525   2.154   0.397
20008TIP3   OH259900   0.697   1.413   0.386
20008TIP3    H159901   0.712   1.498   0.427
20008TIP3    H259902   0.721   1.427   0.294
20009TIP3   OH259903   0.062   1.581   0.402
20009TIP3    H159904   0.092   1.495   0.430
20009TIP3    H259905   0.026   1.566   0.314
20010TIP3   OH259906   9.222   1.236   0.357
20010TIP3    H159907   9.198   1.309   0.299
20010TIP3    H259908   9.166   1.164   0.328
20011TIP3   OH259909   3.386   5.962   8.002
20011TIP3    H159910   3.449   5.956   8.074
20011TIP3    H259911   3.437   5.996   7.928
20012TIP3   OH259912   8.852   1.459   0.487
20012TIP3    H159913   8.935   1.438   0.528
20012TIP3    H259914   8.850   1.407   0.407
20013TIP3   OH259915   9.259   1.654   0.312
20013TIP3    H159916   9.354   1.641   0.317
20013TIP3    H259917   9.225   1.572   0.277
20014TIP3   OH259918   0.748   1.636   0.548
20014TIP3    H159919   0.658   1.669   0.544
20014TIP3    H259920   0.782   1.670   0.631
20015TIP3   OH259921   9.208   1.241   0.806
20015TIP3    H159922   9.154   1.275   0.735
20015TIP3    H259923   9.156   1.254   0.885
20016TIP3   OH259924   2.984   6.707   7.825
20016TIP3    H159925   2.958   6.688   7.735
20016TIP3    H259926   2.945   6.793   7.843
20017TIP3   OH259927   9.292   2.014   0.572
20017TIP3    H159928   9.243   2.088   0.608
20017TIP3    H259929   9.342   2.053   0.500
20018TIP3   OH259930   0.273   1.364   0.225
20018TIP3    H159931   0.229   1.342   0.307
20018TIP3    H259932   0.328   1.439   0.246
20019TIP3   OH259933   9.095   1.351   0.577
20019TIP3    H159934   9.152   1.424   0.601
20019TIP3    H259935   9.142   1.307   0.507
20020TIP3   OH259936   9.148   2.222   0.680
20020TIP3    H159937   9.136   2.313   0.651
20020TIP3    H259938   9.072   2.203   0.735
20021TIP3   OH259939   1.983   6.539   7.943
20021TIP3    H159940   1.954   6.558   7.854
20021TIP3    H259941   2.012   6.623   7.977
20022TIP3   OH259942   0.152   2.428   0.181
20022TIP3    H159943   0.063   2.422   0.217
20022TIP3    H259944   0.153   2.511   0.133
20023TIP3   OH259945   0.497   1.305   0.555
20023TIP3    H159946   0.413   1.325   0.515
20023TIP3    H259947   0.562   1.331   0.489
20024TIP3   OH259948   9.546   0.934   0.547
20024TIP3    H159949   9.538   0.842   0.571
20024TIP3    H259950   9.468   0.975   0.584
20025TIP3   OH259951   3.131   7.078   7.828
20025TIP3    H159952   3.183   6.998   7.818
20025TIP3    H259953   3.192   7.149   7.804
20026TIP3   OH259954   3.285   6.858   7.790
20026TIP3    H159955   3.287   6.781   7.734
20026TIP3    H259956   3.325   6.830   7.872
20027TIP3   OH259957   0.396   2.310   0.521
20027TIP3    H159958   0.373   2.237   0.464
20027TIP3    H259959   0.381   2.388   0.468
20028TIP3   OH259960   2.945   6.335   7.792
20028TIP3    H159961   2.862   6.380   7.775
20028TIP3    H259962   2.991   6.337   7.709
20029TIP3   OH259963   2.910   6.151   7.478
20029TIP3    H159964   2.976   6.198   7.529
20029TIP3    H259965   2.959   6.082   7.434
20030TIP3   OH259966   0.565   1.978   0.390
20030TIP3    H159967   0.480   2.022   0.387
20030TIP3    H259968   0.602   1.990   0.302
20031TIP3   OH259969   3.305   6.427   7.748
20031TIP3    H159970   3.250   6.454   7.821
20031TIP3    H259971   3.388   6.402   7.789
20032TIP3   OH259972   0.268   1.836   0.701
20032TIP3    H159973   0.262   1.919   0.748
20032TIP3    H259974   0.188   1.831   0.650
20033TIP3   OH259975   9.062   1.784   0.156
20033TIP3    H159976   9.028   1.722   0.091
20033TIP3    H259977   9.136   1.737   0.196
20034TIP3   OH259978   9.200   2.206   0.301
20034TIP3    H159979   9.178   2.195   0.208
20034TIP3    H259980   9.288   2.169   0.309
20035TIP3   OH259981   9.154   1.782   0.533
20035TIP3    H159982   9.193   1.743   0.455
20035TIP3    H259983   9.203   1.862   0.548
20036TIP3   OH259984   9.709   2.427   0.306
20036TIP3    H159985   9.702   2.506   0.360
20036TIP3    H259986   9.696   2.355   0.368
20037TIP3   OH259987   9.348   2.314   0.851
20037TIP3    H159988   9.291   2.378   0.895
20037TIP3    H259989   9.289   2.265   0.794
20038TIP3   OH259990   3.135   6.286   7.583
20038TIP3    H159991   3.195   6.344   7.628
20038TIP3    H259992   3.164   6.288   7.492
20039TIP3   OH259993   9.109   1.864   0.971
20039TIP3    H159994   9.113   1.954   1.003
20039TIP3    H259995   9.016   1.843   0.973
20040TIP3   OH259996   2.879   6.966   7.842
20040TIP3    H159997   2.965   7.008   7.844
20040TIP3    H259998   2.824   7.026   7.791
20041TIP3   OH259999   9.160   2.496   0.936
20041TIP3    H160000   9.123   2.500   0.847
20041TIP3    H260001   9.088   2.465   0.991
20042TIP3   OH260002   3.645   5.513   7.647
20042TIP3    H160003   3.569   5.536   7.701
20042TIP3    H260004   3.656   5.590   7.590
20043TIP3   OH260005   2.407   6.244   7.958
20043TIP3    H160006   2.329   6.291   7.929
20043TIP3    H260007   2.377   6.154   7.974
20044TIP3   OH260008   3.468   6.891   7.201
20044TIP3    H160009   3.465   6.983   7.174
20044TIP3    H260010   3.559   6.865   7.187
20045TIP3   OH260011   8.752   2.009   0.857
20045TIP3    H160012   8.687   1.984   0.792
20045TIP3    H260013   8.795   1.926   0.880
20046TIP3   OH260014   8.677   2.196   0.485
20046TIP3    H160015   8.762   2.171   0.448
20046TIP3    H260016   8.697   2.269   0.544
20047TIP3   OH260017   0.623   2.685   0.591
20047TIP3    H160018   0.628   2.590   0.601
20047TIP3    H260019   0.543   2.709   0.639
20048TIP3   OH260020   9.535   2.458   0.714
20048TIP3    H160021   9.525   2.549   0.744
20048TIP3    H260022   9.467   2.410   0.761
20049TIP3   OH260023   2.774   7.177   7.670
20049TIP3    H160024   2.733   7.155   7.586
20049TIP3    H260025   2.736   7.262   7.694
20050TIP3   OH260026   8.752   2.409   0.035
20050TIP3    H160027   8.804   2.397   0.114
20050TIP3    H260028   8.704   2.326   0.025
20051TIP3   OH260029   2.974   7.119   7.297
20051TIP3    H160030   3.023   7.045   7.262
20051TIP3    H260031   3.012   7.133   7.384
20052TIP3   OH260032   3.029   7.161   7.568
20052TIP3    H160033   2.942   7.163   7.608
20052TIP3    H260034   3.085   7.121   7.635
20053TIP3   OH260035   0.511   1.788   0.857
20053TIP3    H160036   0.429   1.798   0.809
20053TIP3    H260037   0.530   1.695   0.854
20054TIP3   OH260038   8.939   2.215   0.856
20054TIP3    H160039   8.995   2.199   0.932
20054TIP3    H260040   8.877   2.143   0.855
20055TIP3   OH260041   9.308   1.024   0.664
20055TIP3    H160042   9.224   0.993   0.629
20055TIP3    H260043   9.285   1.104   0.711
20056TIP3   OH260044   0.046   1.155   0.871
20056TIP3    H160045   0.116   1.131   0.932
20056TIP3    H260046  -0.035   1.137   0.919
20057TIP3   OH260047   0.269   1.571   0.792
20057TIP3    H160048   0.228   1.566   0.879
20057TIP3    H260049   0.252   1.661   0.763
20058TIP3   OH260050   3.210   6.251   7.318
20058TIP3    H160051   3.165   6.262   7.234
20058TIP3    H260052   3.293   6.298   7.307
20059TIP3   OH260053   2.924   5.686   7.644
20059TIP3    H160054   2.886   5.694   7.732
20059TIP3    H260055   2.888   5.605   7.609
20060TIP3   OH260056   9.244   1.562   0.679
20060TIP3    H160057   9.199   1.564   0.763
20060TIP3    H260058   9.220   1.644   0.635
20061TIP3   OH260059   9.122   1.439   0.201
20061TIP3    H160060   9.032   1.415   0.226
20061TIP3    H260061   9.131   1.408   0.112
20062TIP3   OH260062   3.068   6.132   7.931
20062TIP3    H160063   3.020   6.205   7.890
20062TIP3    H260064   3.126   6.100   7.862
20063TIP3   OH260065  -0.009   1.781   0.998
20063TIP3    H160066  -0.037   1.713   1.059
20063TIP3    H260067   0.083   1.796   1.018
20064TIP3   OH260068   9.772   1.529   0.149
20064TIP3    H160069   9.703   1.549   0.086
20064TIP3    H260070   9.820   1.455   0.110
20065TIP3   OH260071   9.084   1.566   0.901
20065TIP3    H160072   9.105   1.628   0.971
20065TIP3    H260073   9.070   1.483   0.946
20066TIP3   OH260074   2.591   5.668   7.621
20066TIP3    H160075   2.582   5.673   7.716
20066TIP3    H260076   2.512   5.711   7.587
20067TIP3   OH260077   8.667   1.089   0.483
20067TIP3    H160078   8.740   1.126   0.531
20067TIP3    H260079   8.705   1.059   0.400
20068TIP3   OH260080   2.038   5.689   7.986
20068TIP3    H160081   2.084   5.723   7.910
20068TIP3    H260082   1.975   5.756   8.008
20069TIP3   OH260083   0.020   1.783   0.577
20069TIP3    H160084   0.043   1.716   0.512
20069TIP3    H260085  -0.026   1.735   0.646
20070TIP3   OH260086   9.490   1.227   0.252
20070TIP3    H160087   9.411   1.226   0.306
20070TIP3    H260088   9.562   1.218   0.315
20071TIP3   OH260089   8.882   1.315   0.256
20071TIP3    H160090   8.794   1.320   0.219
20071TIP3    H260091   8.909   1.224   0.243
20072TIP3   OH260092   2.603   5.939   7.957
20072TIP3    H160093   2.697   5.948   7.947
20072TIP3    H260094   2.568   5.955   7.869
20073TIP3   OH260095   0.128   1.318   0.461
20073TIP3    H160096   0.110   1.336   0.553
20073TIP3    H260097   0.060   1.256   0.435
20074TIP3   OH260098   2.492   5.959   7.707
20074TIP3    H160099   2.430   5.908   7.654
20074TIP3    H260100   2.545   6.006   7.643
20075TIP3   OH260101   0.340   3.021   0.679
20075TIP3    H160102   0.336   3.036   0.584
20075TIP3    H260103   0.418   3.070   0.707
20076TIP3   OH260104   9.100   2.129   1.071
20076TIP3    H160105   9.182   2.146   1.117
20076TIP3    H260106   9.032   2.138   1.137
20077TIP3   OH260107   9.534   1.608   0.358
20077TIP3    H160108   9.599   1.557   0.309
20077TIP3    H260109   9.532   1.567   0.444
20078TIP3   OH260110   9.024   1.066   0.241
20078TIP3    H160111   8.996   0.989   0.291
20078TIP3    H260112   9.042   1.032   0.154
20079TIP3   OH260113   9.510   1.509   0.619
20079TIP3    H160114   9.423   1.539   0.644
20079TIP3    H260115   9.570   1.560   0.673
20080TIP3   OH260116   2.706   6.468   7.735
20080TIP3    H160117   2.630   6.415   7.711
20080TIP3    H260118   2.681   6.510   7.817
20081TIP3   OH260119   0.330   2.113   0.341
20081TIP3    H160120   0.366   2.161   0.267
20081TIP3    H260121   0.251   2.071   0.306
20082TIP3   OH260122   3.176   5.792   7.648
20082TIP3    H160123   3.083   5.769   7.645
20082TIP3    H260124   3.177   5.887   7.660
20083TIP3   OH260125   9.660   2.194   0.755
20083TIP3    H160126   9.710   2.182   0.836
20083TIP3    H260127   9.621   2.280   0.764
20084TIP3   OH260128   3.232   6.058   7.716
20084TIP3    H160129   3.327   6.062   7.726
20084TIP3    H260130   3.209   6.135   7.664
20085TIP3   OH260131   8.927   1.862   0.382
20085TIP3    H160132   8.965   1.842   0.296
20085TIP3    H260133   8.992   1.832   0.445
20086TIP3   OH260134   2.861   6.630   7.581
20086TIP3    H160135   2.813   6.713   7.577
20086TIP3    H260136   2.805   6.573   7.633
20087TIP3   OH260137   8.840   1.794   1.015
20087TIP3    H160138   8.853   1.787   1.110
20087TIP3    H260139   8.761   1.743   0.997
20088TIP3   OH260140   9.560   1.935   1.039
20088TIP3    H160141   9.490   1.875   1.012
20088TIP3    H260142   9.640   1.892   1.009
20089TIP3   OH260143   9.803   2.490   0.643
20089TIP3    H160144   9.709   2.472   0.644
20089TIP3    H260145   9.822   2.525   0.730
20090TIP3   OH260146   3.644   6.145   7.529
20090TIP3    H160147   3.586   6.100   7.467
20090TIP3    H260148   3.650   6.234   7.495
20091TIP3   OH260149   0.638   2.410   0.608
20091TIP3    H160150   0.545   2.386   0.607
20091TIP3    H260151   0.673   2.375   0.525
20092TIP3   OH260152   3.391   6.959   7.462
20092TIP3    H160153   3.361   6.884   7.514
20092TIP3    H260154   3.411   6.923   7.376
20093TIP3   OH260155   0.103   1.976   0.238
20093TIP3    H160156   0.014   1.954   0.263
20093TIP3    H260157   0.138   1.896   0.199
20094TIP3   OH260158   9.072   2.211   0.052
20094TIP3    H160159   9.077   2.287  -0.006
20094TIP3    H260160   8.979   2.203   0.072
20095TIP3   OH260161   2.089   6.115   7.770
20095TIP3    H160162   2.132   6.197   7.793
20095TIP3    H260163   2.008   6.116   7.821
20096TIP3   OH260164   2.605   6.583   7.957
20096TIP3    H160165   2.597   6.672   7.989
20096TIP3    H260166   2.580   6.528   8.031
20097TIP3   OH260167   9.350   2.533   0.511
20097TIP3    H160168   9.383   2.607   0.460
20097TIP3    H260169   9.426   2.500   0.557
20098TIP3   OH260170   2.457   7.054   7.902
20098TIP3    H160171   2.368   7.060   7.938
20098TIP3    H260172   2.490   7.144   7.906
20099TIP3   OH260173   9.689   2.205   0.479
20099TIP3    H160174   9.679   2.199   0.574
20099TIP3    H260175   9.761   2.145   0.458
20100TIP3   OH260176   3.161   6.702   7.362
20100TIP3    H160177   3.200   6.684   7.447
20100TIP3    H260178   3.077   6.656   7.365
20101TIP3   OH260179   0.156   2.695   0.522
20101TIP3    H160180   0.087   2.633   0.543
20101TIP3    H260181   0.121   2.748   0.451
20102TIP3   OH260182   3.463   7.163   7.150
20102TIP3    H160183   3.466   7.212   7.068
20102TIP3    H260184   3.397   7.209   7.202
20103TIP3   OH260185   9.045   1.309   1.017
20103TIP3    H160186   8.950   1.315   1.019
20103TIP3    H260187   9.067   1.246   1.087
20104TIP3   OH260188   3.329   6.650   7.585
20104TIP3    H160189   3.312   6.573   7.639
20104TIP3    H260190   3.422   6.645   7.564
20105TIP3   OH260191   8.792   2.412   0.627
20105TIP3    H160192   8.847   2.366   0.689
20105TIP3    H260193   8.750   2.481   0.678
20106TIP3   OH260194   2.508   6.659   7.370
20106TIP3    H160195   2.518   6.568   7.342
20106TIP3    H260196   2.495   6.654   7.464
20107TIP3   OH260197   2.449   6.676   7.642
20107TIP3    H160198   2.513   6.652   7.709
20107TIP3    H260199   2.447   6.772   7.644
20108TIP3   OH260200   2.182   6.365   7.851
20108TIP3    H160201   2.116   6.413   7.902
20108TIP3    H260202   2.203   6.423   7.778
20109TIP3   OH260203   0.076   1.384   0.722
20109TIP3    H160204   0.154   1.428   0.755
20109TIP3    H260205   0.066   1.307   0.779
20110TIP3   OH260206   3.237   5.743   7.916
20110TIP3    H160207   3.215   5.761   7.824
20110TIP3    H260208   3.280   5.823   7.947
20111TIP3   OH260209   2.717   6.859   7.574
20111TIP3    H160210   2.632   6.885   7.610
20111TIP3    H260211   2.743   6.933   7.518
20112TIP3   OH260212   9.416   1.322   0.002
20112TIP3    H160213   9.477   1.391  -0.024
20112TIP3    H260214   9.440   1.301   0.092
20113TIP3   OH260215   9.717   1.618   0.772
20113TIP3    H160216   9.741   1.659   0.855
20113TIP3    H260217   9.765   1.536   0.771
20114TIP3   OH260218   9.582   1.019   0.088
20114TIP3    H160219   9.558   1.096   0.139
20114TIP3    H260220   9.652   1.049   0.030
20115TIP3   OH260221   2.468   6.949   7.650
20115TIP3    H160222   2.450   7.021   7.591
20115TIP3    H260223   2.464   6.988   7.738
20116TIP3   OH260224   2.559   5.664   7.901
20116TIP3    H160225   2.547   5.756   7.927
20116TIP3    H260226   2.653   5.649   7.907
20117TIP3   OH260227   0.531   1.510   0.763
20117TIP3    H160228   0.437   1.522   0.777
20117TIP3    H260229   0.537   1.448   0.691
20118TIP3   OH260230   0.196   1.718   0.150
20118TIP3    H160231   0.119   1.662   0.160
20118TIP3    H260232   0.262   1.678   0.207
20119TIP3   OH260233   2.207   6.541   7.634
20119TIP3    H160234   2.279   6.604   7.642
20119TIP3    H260235   2.237   6.479   7.568
20120TIP3   OH260236   2.106   5.836   7.765
20120TIP3    H160237   2.122   5.930   7.774
20120TIP3    H260238   2.048   5.829   7.689
20121TIP3   OH260239   0.177   2.693   0.095
20121TIP3    H160240   0.134   2.748   0.029
20121TIP3    H260241   0.270   2.705   0.079
20122TIP3   OH260242   9.045   0.952   0.611
20122TIP3    H160243   9.015   0.919   0.526
20122TIP3    H260244   9.037   0.876   0.669
20123TIP3   OH260245   8.584   2.180   0.025
20123TIP3    H160246   8.545   2.218   0.103
20123TIP3    H260247   8.537   2.221  -0.048
20124TIP3   OH260248   8.846   2.704   1.074
20124TIP3    H160249   8.897   2.705   1.155
20124TIP3    H260250   8.836   2.611   1.053
20125TIP3   OH260251   9.235   2.672   1.135
20125TIP3    H160252   9.323   2.640   1.158
20125TIP3    H260253   9.207   2.613   1.065
20126TIP3   OH260254   2.656   6.865   7.258
20126TIP3    H160255   2.610   6.794   7.303
20126TIP3    H260256   2.730   6.823   7.216
20127TIP3   OH260257   0.052   2.583   0.897
20127TIP3    H160258   0.070   2.510   0.957
20127TIP3    H260259   0.126   2.641   0.907
20128TIP3   OH260260   3.098   6.904   7.183
20128TIP3    H160261   3.139   6.841   7.243
20128TIP3    H260262   3.151   6.899   7.104
20129TIP3   OH260263   8.905   2.114   1.263
20129TIP3    H160264   8.940   2.025   1.271
20129TIP3    H260265   8.817   2.101   1.226
20130TIP3   OH260266   2.324   6.352   7.476
20130TIP3    H160267   2.374   6.327   7.553
20130TIP3    H260268   2.390   6.366   7.408
20131TIP3   OH260269   9.505   2.212   1.051
20131TIP3    H160270   9.459   2.232   0.970
20131TIP3    H260271   9.538   2.123   1.039
20132TIP3   OH260272   2.914   6.573   7.319
20132TIP3    H160273   2.886   6.584   7.410
20132TIP3    H260274   2.889   6.484   7.297
20133TIP3   OH260275   0.172   2.266   0.680
20133TIP3    H160276   0.248   2.290   0.628
20133TIP3    H260277   0.107   2.335   0.661
20134TIP3   OH260278   8.995   1.857   1.282
20134TIP3    H160279   9.039   1.774   1.267
20134TIP3    H260280   9.025   1.885   1.368
20135TIP3   OH260281   2.494   6.295   7.690
20135TIP3    H160282   2.476   6.265   7.779
20135TIP3    H260283   2.544   6.224   7.650
20136TIP3   OH260284   9.361   1.758   0.938
20136TIP3    H160285   9.275   1.798   0.946
20136TIP3    H260286   9.392   1.785   0.852
20137TIP3   OH260287   2.640   6.115   7.537
20137TIP3    H160288   2.610   6.119   7.446
20137TIP3    H260289   2.735   6.126   7.531
20138TIP3   OH260290   0.049   2.133   1.019
20138TIP3    H160291   0.118   2.095   0.965
20138TIP3    H260292   0.045   2.077   1.096
20139TIP3   OH260293   3.429   6.393   7.228
20139TIP3    H160294   3.420   6.354   7.141
20139TIP3    H260295   3.410   6.486   7.215
20140TIP3   OH260296   9.455   1.526   1.049
20140TIP3    H160297   9.456   1.456   0.985
20140TIP3    H260298   9.422   1.602   1.001
20141TIP3   OH260299   9.464   1.331   0.844
20141TIP3    H160300   9.491   1.370   0.760
20141TIP3    H260301   9.374   1.302   0.830
20142TIP3   OH260302   9.468   1.854   0.709
20142TIP3    H160303   9.555   1.893   0.698
20142TIP3    H260304   9.409   1.912   0.661
20143TIP3   OH260305   0.258   1.810   1.096
20143TIP3    H160306   0.290   1.720   1.103
20143TIP3    H260307   0.337   1.862   1.080
20144TIP3   OH260308   0.284   2.081   0.843
20144TIP3    H160309   0.233   2.145   0.793
20144TIP3    H260310   0.374   2.093   0.812
20145TIP3   OH260311   9.345   1.621   1.292
20145TIP3    H160312   9.266   1.571   1.312
20145TIP3    H260313   9.371   1.591   1.205
20146TIP3   OH260314   9.581   1.099   0.947
20146TIP3    H160315   9.542   1.180   0.914
20146TIP3    H260316   9.514   1.033   0.934
20147TIP3   OH260317   9.707   1.572   1.153
20147TIP3    H160318   9.693   1.561   1.247
20147TIP3    H260319   9.622   1.549   1.114
20148TIP3   OH260320   0.154   1.527   1.031
20148TIP3    H160321   0.074   1.525   1.084
20148TIP3    H260322   0.223   1.496   1.091
20149TIP3   OH260323   0.393   1.489   1.174
20149TIP3    H160324   0.406   1.394   1.182
20149TIP3    H260325   0.388   1.520   1.264
20150TIP3   OH260326   9.171   1.401   1.329
20150TIP3    H160327   9.175   1.313   1.291
20150TIP3    H260328   9.213   1.392   1.414
20151TIP3   OH260329   9.646   1.077   1.212
20151TIP3    H160330   9.713   1.009   1.208
20151TIP3    H260331   9.616   1.087   1.122
20152TIP3   OH260332   9.747   1.298   1.343
20152TIP3    H160333   9.713   1.225   1.291
20152TIP3    H260334   9.674   1.360   1.348
20153TIP3   OH260335   2.469   7.163   7.475
20153TIP3    H160336   2.558   7.142   7.448
20153TIP3    H260337   2.430   7.206   7.399
20154TIP3   OH260338   1.935   6.539   7.656
20154TIP3    H160339   2.030   6.551   7.649
20154TIP3    H260340   1.918   6.455   7.612
20155TIP3   OH260341   8.389   2.482   0.067
20155TIP3    H160342   8.314   2.440   0.024
20155TIP3    H260343   8.417   2.419   0.133
20156TIP3   OH260344   8.529   2.321   0.262
20156TIP3    H160345   8.542   2.256   0.332
20156TIP3    H260346   8.587   2.393   0.286
20157TIP3   OH260347   0.449   2.739   0.085
20157TIP3    H160348   0.471   2.768   0.174
20157TIP3    H260349   0.507   2.789   0.028
20158TIP3   OH260350   0.470   2.770   0.366
20158TIP3    H160351   0.422   2.687   0.360
20158TIP3    H260352   0.539   2.754   0.430
20159TIP3   OH260353   0.525   2.475   0.938
20159TIP3    H160354   0.455   2.485   1.003
20159TIP3    H260355   0.571   2.559   0.941
20160TIP3   OH260356   3.605   6.613   7.553
20160TIP3    H160357   3.663   6.683   7.522
20160TIP3    H260358   3.654   6.572   7.625
20161TIP3   OH260359   3.741   6.466   7.748
20161TIP3    H160360   3.673   6.430   7.805
20161TIP3    H260361   3.805   6.504   7.808
20162TIP3   OH260362   0.518   2.251   0.185
20162TIP3    H160363   0.569   2.182   0.141
20162TIP3    H260364   0.520   2.325   0.124
20163TIP3   OH260365   0.326   2.532   0.373
20163TIP3    H160366   0.260   2.580   0.424
20163TIP3    H260367   0.277   2.493   0.301
20164TIP3   OH260368   3.644   6.387   7.398
20164TIP3    H160369   3.572   6.384   7.335
20164TIP3    H260370   3.628   6.466   7.449
20165TIP3   OH260371   3.490   6.027   7.335
20165TIP3    H160372   3.443   6.064   7.261
20165TIP3    H260373   3.486   5.932   7.321
20166TIP3   OH260374   3.533   6.331   7.882
20166TIP3    H160375   3.537   6.237   7.868
20166TIP3    H260376   3.513   6.340   7.976
20167TIP3   OH260377   8.686   1.784   0.659
20167TIP3    H160378   8.671   1.740   0.574
20167TIP3    H260379   8.779   1.769   0.677
20168TIP3   OH260380   0.540   2.121   0.742
20168TIP3    H160381   0.609   2.057   0.726
20168TIP3    H260382   0.538   2.175   0.663
20169TIP3   OH260383   0.723   1.913   0.736
20169TIP3    H160384   0.649   1.871   0.779
20169TIP3    H260385   0.798   1.858   0.757
20170TIP3   OH260386   3.462   5.752   7.303
20170TIP3    H160387   3.523   5.731   7.374
20170TIP3    H260388   3.377   5.722   7.335
20171TIP3   OH260389   3.525   6.054   7.771
20171TIP3    H160390   3.572   5.971   7.783
20171TIP3    H260391   3.565   6.092   7.693
20172TIP3   OH260392   0.411   1.597   0.294
20172TIP3    H160393   0.492   1.614   0.245
20172TIP3    H260394   0.426   1.637   0.380
20173TIP3   OH260395   0.486   1.747   0.521
20173TIP3    H160396   0.413   1.775   0.577
20173TIP3    H260397   0.515   1.828   0.479
20174TIP3   OH260398   8.906   1.455   1.277
20174TIP3    H160399   8.999   1.457   1.297
20174TIP3    H260400   8.877   1.369   1.308
20175TIP3   OH260401   0.952   1.340   1.058
20175TIP3    H160402   1.018   1.285   1.016
20175TIP3    H260403   0.913   1.391   0.987
20176TIP3   OH260404   3.643   5.804   7.821
20176TIP3    H160405   3.689   5.789   7.904
20176TIP3    H260406   3.580   5.733   7.816
20177TIP3   OH260407   8.882   1.172   0.643
20177TIP3    H160408   8.932   1.091   0.646
20177TIP3    H260409   8.946   1.240   0.622
20178TIP3   OH260410   8.672   1.438   0.702
20178TIP3    H160411   8.723   1.435   0.622
20178TIP3    H260412   8.731   1.476   0.767
20179TIP3   OH260413   0.799   1.463   0.868
20179TIP3    H160414   0.722   1.503   0.908
20179TIP3    H260415   0.764   1.395   0.811
20180TIP3   OH260416   3.688   5.711   7.460
20180TIP3    H160417   3.740   5.652   7.406
20180TIP3    H260418   3.739   5.792   7.463
20181TIP3   OH260419   8.651   0.943   0.214
20181TIP3    H160420   8.567   0.926   0.257
20181TIP3    H260421   8.629   0.995   0.137
20182TIP3   OH260422   3.279   7.285   7.734
20182TIP3    H160423   3.327   7.265   7.654
20182TIP3    H260424   3.324   7.361   7.771
20183TIP3   OH260425   8.889   1.022   1.035
20183TIP3    H160426   8.832   0.996   1.108
20183TIP3    H260427   8.830   1.055   0.968
20184TIP3   OH260428   8.968   2.431   1.117
20184TIP3    H160429   8.881   2.420   1.079
20184TIP3    H260430   8.955   2.420   1.211
20185TIP3   OH260431   9.120   2.495   0.655
20185TIP3    H160432   9.064   2.559   0.611
20185TIP3    H260433   9.206   2.507   0.616
20186TIP3   OH260434   9.523   2.722   0.793
20186TIP3    H160435   9.558   2.717   0.882
20186TIP3    H260436   9.587   2.775   0.745
20187TIP3   OH260437   9.709   2.878   0.667
20187TIP3    H160438   9.767   2.827   0.610
20187TIP3    H260439   9.768   2.932   0.719
20188TIP3   OH260440   0.711   1.215   0.756
20188TIP3    H160441   0.625   1.210   0.713
20188TIP3    H260442   0.746   1.126   0.750
20189TIP3   OH260443   8.868   2.767   0.679
20189TIP3    H160444   8.785   2.722   0.692
20189TIP3    H260445   8.884   2.812   0.762
20190TIP3   OH260446   9.053   2.714   0.494
20190TIP3    H160447   8.981   2.736   0.554
20190TIP3    H260448   9.020   2.740   0.408
20191TIP3   OH260449   9.427   2.743   0.347
20191TIP3    H160450   9.362   2.750   0.277
20191TIP3    H260451   9.436   2.833   0.380
20192TIP3   OH260452   9.689   2.688   0.402
20192TIP3    H160453   9.597   2.703   0.381
20192TIP3    H260454   9.737   2.753   0.351
20193TIP3   OH260455   0.090   2.858   0.298
20193TIP3    H160456   0.085   2.944   0.257
20193TIP3    H260457   0.118   2.799   0.228
20194TIP3   OH260458   8.711   2.510   0.378
20194TIP3    H160459   8.740   2.489   0.467
20194TIP3    H260460   8.782   2.479   0.322
20195TIP3   OH260461   8.913   2.383   0.254
20195TIP3    H160462   8.923   2.302   0.304
20195TIP3    H260463   8.999   2.426   0.261
20196TIP3   OH260464   9.171   2.486   0.296
20196TIP3    H160465   9.195   2.393   0.290
20196TIP3    H260466   9.213   2.516   0.376
20197TIP3   OH260467   9.715   1.134   0.396
20197TIP3    H160468   9.674   1.063   0.446
20197TIP3    H260469   9.783   1.092   0.345
20198TIP3   OH260470   0.417   1.059   0.281
20198TIP3    H160471   0.453   1.108   0.207
20198TIP3    H260472   0.324   1.078   0.281
20199TIP3   OH260473   0.533   1.130   0.042
20199TIP3    H160474   0.602   1.068   0.017
20199TIP3    H260475   0.573   1.216   0.029
20200TIP3   OH260476   8.955   0.835   0.378
20200TIP3    H160477   8.867   0.800   0.392
20200TIP3    H260478   9.012   0.758   0.379
20201TIP3   OH260479   8.772   0.747   0.044
20201TIP3    H160480   8.798   0.798  -0.033
20201TIP3    H260481   8.739   0.813   0.105
20202TIP3   OH260482   9.442   0.875   0.287
20202TIP3    H160483   9.489   0.924   0.219
20202TIP3    H260484   9.481   0.904   0.369
20203TIP3   OH260485   0.130   1.018   0.264
20203TIP3    H160486   0.140   0.983   0.176
20203TIP3    H260487   0.138   0.942   0.322
20204TIP3   OH260488   3.457   5.593   7.832
20204TIP3    H160489   3.378   5.641   7.857
20204TIP3    H260490   3.446   5.506   7.869
20205TIP3   OH260491   1.926   6.912   7.814
20205TIP3    H160492   1.844   6.879   7.779
20205TIP3    H260493   1.938   6.997   7.771
20206TIP3   OH260494   2.349   5.497   7.808
20206TIP3    H160495   2.395   5.434   7.753
20206TIP3    H260496   2.418   5.552   7.845
20207TIP3   OH260497   2.834   5.690   7.906
20207TIP3    H160498   2.893   5.637   7.960
20207TIP3    H260499   2.850   5.780   7.936
20208TIP3   OH260500   2.723   7.086   7.404
20208TIP3    H160501   2.804   7.115   7.363
20208TIP3    H260502   2.690   7.017   7.346
20209TIP3   OH260503   3.422   7.228   7.503
20209TIP3    H160504   3.416   7.133   7.494
20209TIP3    H260505   3.381   7.262   7.423
20210TIP3   OH260506   9.184   1.132   1.245
20210TIP3    H160507   9.144   1.072   1.309
20210TIP3    H260508   9.275   1.139   1.273
20211TIP3   OH260509   9.427   1.145   1.378
20211TIP3    H160510   9.505   1.120   1.329
20211TIP3    H260511   9.415   1.075   1.442
20212TIP3   OH260512   2.032   6.933   7.443
20212TIP3    H160513   2.033   6.954   7.536
20212TIP3    H260514   2.113   6.884   7.428
20213TIP3   OH260515   0.455   1.218   1.181
20213TIP3    H160516   0.473   1.190   1.271
20213TIP3    H260517   0.539   1.213   1.136
20214TIP3   OH260518   0.373   2.748   0.690
20214TIP3    H160519   0.300   2.719   0.635
20214TIP3    H260520   0.362   2.843   0.695
20215TIP3   OH260521   4.919   6.756   7.427
20215TIP3    H160522   4.887   6.843   7.401
20215TIP3    H260523   4.848   6.697   7.401
20216TIP3   OH260524   4.914   6.749   7.853
20216TIP3    H160525   4.968   6.731   7.930
20216TIP3    H260526   4.868   6.666   7.836
20217TIP3   OH260527   0.944   1.986   0.195
20217TIP3    H160528   0.984   1.935   0.265
20217TIP3    H260529   1.017   2.011   0.138
20218TIP3   OH260530   5.182   7.057   7.530
20218TIP3    H160531   5.170   6.990   7.597
20218TIP3    H260532   5.202   7.136   7.579
20219TIP3   OH260533   4.207   7.036   7.880
20219TIP3    H160534   4.188   6.943   7.886
20219TIP3    H260535   4.302   7.041   7.870
20220TIP3   OH260536   3.885   6.238   7.664
20220TIP3    H160537   3.848   6.323   7.689
20220TIP3    H260538   3.813   6.192   7.622
20221TIP3   OH260539   3.968   6.555   7.892
20221TIP3    H160540   4.019   6.478   7.916
20221TIP3    H260541   4.033   6.621   7.867
20222TIP3   OH260542   4.849   7.475   7.551
20222TIP3    H160543   4.866   7.415   7.479
20222TIP3    H260544   4.861   7.422   7.630
20223TIP3   OH260545   4.722   6.969   7.853
20223TIP3    H160546   4.768   6.889   7.827
20223TIP3    H260547   4.791   7.028   7.884
20224TIP3   OH260548   5.756   6.287   7.871
20224TIP3    H160549   5.770   6.372   7.913
20224TIP3    H260550   5.781   6.302   7.780
20225TIP3   OH260551   5.125   6.456   7.891
20225TIP3    H160552   5.156   6.370   7.919
20225TIP3    H260553   5.089   6.441   7.803
20226TIP3   OH260554   4.483   6.113   7.847
20226TIP3    H160555   4.461   6.186   7.790
20226TIP3    H260556   4.427   6.042   7.817
20227TIP3   OH260557   5.181   6.218   7.488
20227TIP3    H160558   5.244   6.212   7.560
20227TIP3    H260559   5.232   6.253   7.415
20228TIP3   OH260560   4.108   6.332   7.981
20228TIP3    H160561   4.191   6.313   8.024
20228TIP3    H260562   4.110   6.281   7.900
20229TIP3   OH260563   4.524   6.531   7.799
20229TIP3    H160564   4.618   6.516   7.803
20229TIP3    H260565   4.489   6.448   7.764
20230TIP3   OH260566   2.539   1.889   0.030
20230TIP3    H160567   2.450   1.924   0.026
20230TIP3    H260568   2.576   1.927   0.110
20231TIP3   OH260569   1.197   1.502   0.300
20231TIP3    H160570   1.148   1.537   0.226
20231TIP3    H260571   1.141   1.519   0.376
20232TIP3   OH260572   4.813   6.975   7.292
20232TIP3    H160573   4.774   6.944   7.210
20232TIP3    H260574   4.759   7.049   7.318
20233TIP3   OH260575   1.286   2.277   0.059
20233TIP3    H160576   1.234   2.350   0.093
20233TIP3    H260577   1.335   2.315  -0.014
20234TIP3   OH260578   5.335   6.239   7.713
20234TIP3    H160579   5.291   6.218   7.795
20234TIP3    H260580   5.390   6.315   7.734
20235TIP3   OH260581   1.091   1.607   0.067
20235TIP3    H160582   1.145   1.683   0.089
20235TIP3    H260583   1.137   1.565  -0.005
20236TIP3   OH260584   1.135   2.482   0.169
20236TIP3    H160585   1.121   2.571   0.139
20236TIP3    H260586   1.056   2.461   0.220
20237TIP3   OH260587   3.779   6.801   7.440
20237TIP3    H160588   3.746   6.810   7.351
20237TIP3    H260589   3.799   6.890   7.468
20238TIP3   OH260590   5.211   7.304   7.670
20238TIP3    H160591   5.122   7.299   7.703
20238TIP3    H260592   5.215   7.388   7.623
20239TIP3   OH260593   2.290   1.559   0.039
20239TIP3    H160594   2.206   1.579  -0.001
20239TIP3    H260595   2.355   1.585  -0.027
20240TIP3   OH260596   1.540   1.191   0.037
20240TIP3    H160597   1.533   1.099   0.062
20240TIP3    H260598   1.462   1.232   0.075
20241TIP3   OH260599   4.920   7.338   7.320
20241TIP3    H160600   4.977   7.261   7.310
20241TIP3    H260601   4.975   7.411   7.294
20242TIP3   OH260602   5.061   7.107   7.287
20242TIP3    H160603   4.987   7.046   7.286
20242TIP3    H260604   5.111   7.082   7.364
20243TIP3   OH260605   5.461   7.180   8.017
20243TIP3    H160606   5.435   7.110   7.957
20243TIP3    H260607   5.446   7.260   7.967
20244TIP3   OH260608   4.744   6.594   7.281
20244TIP3    H160609   4.661   6.639   7.265
20244TIP3    H260610   4.789   6.595   7.196
20245TIP3   OH260611   4.707   6.408   6.967
20245TIP3    H160612   4.773   6.455   7.017
20245TIP3    H260613   4.756   6.339   6.922
20246TIP3   OH260614   5.620   6.850   7.887
20246TIP3    H160615   5.536   6.895   7.878
20246TIP3    H260616   5.664   6.864   7.803
20247TIP3   OH260617   5.103   6.681   7.239
20247TIP3    H160618   5.048   6.711   7.312
20247TIP3    H260619   5.187   6.660   7.279
20248TIP3   OH260620   2.059   2.091   0.187
20248TIP3    H160621   2.054   2.175   0.232
20248TIP3    H260622   1.979   2.086   0.135
20249TIP3   OH260623   4.324   6.662   7.645
20249TIP3    H160624   4.288   6.602   7.580
20249TIP3    H260625   4.397   6.614   7.684
20250TIP3   OH260626   4.469   7.087   7.784
20250TIP3    H160627   4.442   7.074   7.693
20250TIP3    H260628   4.556   7.048   7.789
20251TIP3   OH260629   4.421   6.659   8.020
20251TIP3    H160630   4.460   6.622   7.941
20251TIP3    H260631   4.469   6.741   8.034
20252TIP3   OH260632   4.965   7.302   7.789
20252TIP3    H160633   4.957   7.382   7.842
20252TIP3    H260634   4.955   7.231   7.852
20253TIP3   OH260635   1.330   2.573   0.343
20253TIP3    H160636   1.269   2.630   0.389
20253TIP3    H260637   1.276   2.523   0.282
20254TIP3   OH260638   4.933   6.543   7.070
20254TIP3    H160639   4.992   6.602   7.117
20254TIP3    H260640   4.963   6.546   6.979
20255TIP3   OH260641   1.084   2.116   0.493
20255TIP3    H160642   1.088   2.211   0.507
20255TIP3    H260643   0.990   2.098   0.484
20256TIP3   OH260644   4.675   7.212   7.330
20256TIP3    H160645   4.756   7.264   7.334
20256TIP3    H260646   4.615   7.265   7.278
20257TIP3   OH260647   1.122   2.733   0.428
20257TIP3    H160648   1.098   2.745   0.336
20257TIP3    H260649   1.039   2.719   0.473
20258TIP3   OH260650   5.442   5.771   7.132
20258TIP3    H160651   5.366   5.792   7.187
20258TIP3    H260652   5.452   5.848   7.076
20259TIP3   OH260653   4.198   6.504   7.445
20259TIP3    H160654   4.124   6.555   7.414
20259TIP3    H260655   4.163   6.416   7.459
20260TIP3   OH260656   5.273   7.161   6.685
20260TIP3    H160657   5.268   7.255   6.666
20260TIP3    H260658   5.360   7.135   6.656
20261TIP3   OH260659   0.721   2.292   0.377
20261TIP3    H160660   0.651   2.274   0.314
20261TIP3    H260661   0.754   2.205   0.401
20262TIP3   OH260662   0.561   2.486   0.034
20262TIP3    H160663   0.651   2.512   0.051
20262TIP3    H260664   0.508   2.561   0.059
20263TIP3   OH260665   2.423   2.938   0.058
20263TIP3    H160666   2.432   2.844   0.076
20263TIP3    H260667   2.337   2.960   0.095
20264TIP3   OH260668   1.519   2.717   0.205
20264TIP3    H160669   1.508   2.808   0.233
20264TIP3    H260670   1.452   2.669   0.253
20265TIP3   OH260671   4.569   7.437   7.157
20265TIP3    H160672   4.520   7.415   7.077
20265TIP3    H260673   4.530   7.519   7.187
20266TIP3   OH260674   4.002   7.295   7.534
20266TIP3    H160675   4.045   7.284   7.619
20266TIP3    H260676   3.951   7.215   7.523
20267TIP3   OH260677   4.771   7.374   6.781
20267TIP3    H160678   4.821   7.301   6.747
20267TIP3    H260679   4.805   7.387   6.870
20268TIP3   OH260680   4.822   7.413   7.051
20268TIP3    H160681   4.735   7.419   7.091
20268TIP3    H260682   4.876   7.373   7.119
20269TIP3   OH260683   2.297   2.038   0.338
20269TIP3    H160684   2.215   2.052   0.290
20269TIP3    H260685   2.316   1.945   0.324
20270TIP3   OH260686   0.918   2.482   0.342
20270TIP3    H160687   0.969   2.467   0.421
20270TIP3    H260688   0.846   2.418   0.347
20271TIP3   OH260689   1.301   1.283   0.160
20271TIP3    H160690   1.218   1.249   0.128
20271TIP3    H260691   1.278   1.364   0.205
20272TIP3   OH260692   1.839   1.409   0.362
20272TIP3    H160693   1.908   1.383   0.422
20272TIP3    H260694   1.758   1.393   0.409
20273TIP3   OH260695   2.057   1.824   0.275
20273TIP3    H160696   2.019   1.821   0.363
20273TIP3    H260697   2.043   1.915   0.247
20274TIP3   OH260698   5.012   6.508   6.806
20274TIP3    H160699   4.963   6.518   6.724
20274TIP3    H260700   5.093   6.558   6.792
20275TIP3   OH260701   4.722   5.945   7.132
20275TIP3    H160702   4.683   5.953   7.219
20275TIP3    H260703   4.685   5.863   7.097
20276TIP3   OH260704   1.240   1.819   0.166
20276TIP3    H160705   1.195   1.826   0.251
20276TIP3    H260706   1.218   1.901   0.121
20277TIP3   OH260707   4.384   6.316   7.691
20277TIP3    H160708   4.295   6.293   7.716
20277TIP3    H260709   4.393   6.284   7.601
20278TIP3   OH260710   4.864   6.389   7.418
20278TIP3    H160711   4.817   6.463   7.378
20278TIP3    H260712   4.922   6.357   7.349
20279TIP3   OH260713   1.782   2.034   0.485
20279TIP3    H160714   1.756   1.967   0.548
20279TIP3    H260715   1.875   2.048   0.503
20280TIP3   OH260716   5.034   6.404   7.638
20280TIP3    H160717   4.965   6.424   7.575
20280TIP3    H260718   5.081   6.331   7.599
20281TIP3   OH260719   1.081   1.835   0.389
20281TIP3    H160720   1.088   1.901   0.459
20281TIP3    H260721   1.061   1.753   0.435
20282TIP3   OH260722   4.388   5.925   7.109
20282TIP3    H160723   4.379   5.932   7.204
20282TIP3    H260724   4.310   5.967   7.074
20283TIP3   OH260725   3.936   5.970   7.972
20283TIP3    H160726   4.008   6.007   8.024
20283TIP3    H260727   3.973   5.960   7.884
20284TIP3   OH260728   3.831   5.950   7.465
20284TIP3    H160729   3.875   5.986   7.388
20284TIP3    H260730   3.767   6.016   7.490
20285TIP3   OH260731   1.813   2.038   0.063
20285TIP3    H160732   1.836   1.971  -0.001
20285TIP3    H260733   1.767   1.990   0.132
20286TIP3   OH260734   4.753   6.102   7.741
20286TIP3    H160735   4.674   6.102   7.795
20286TIP3    H260736   4.825   6.093   7.803
20287TIP3   OH260737   4.144   6.191   7.749
20287TIP3    H160738   4.057   6.196   7.711
20287TIP3    H260739   4.173   6.101   7.732
20288TIP3   OH260740   4.399   6.194   7.445
20288TIP3    H160741   4.494   6.204   7.435
20288TIP3    H260742   4.364   6.211   7.358
20289TIP3   OH260743   5.190   6.193   7.949
20289TIP3    H160744   5.171   6.210   8.041
20289TIP3    H260745   5.122   6.131   7.922
20290TIP3   OH260746   4.291   6.215   7.195
20290TIP3    H160747   4.227   6.166   7.143
20290TIP3    H260748   4.343   6.262   7.130
20291TIP3   OH260749   2.100   3.262   0.144
20291TIP3    H160750   2.089   3.272   0.049
20291TIP3    H260751   2.188   3.295   0.161
20292TIP3   OH260752   1.069   2.387   0.574
20292TIP3    H160753   1.150   2.407   0.622
20292TIP3    H260754   1.000   2.398   0.639
20293TIP3   OH260755   4.798   6.481   7.846
20293TIP3    H160756   4.864   6.431   7.798
20293TIP3    H260757   4.795   6.439   7.932
20294TIP3   OH260758   4.286   5.942   7.734
20294TIP3    H160759   4.259   5.866   7.786
20294TIP3    H260760   4.303   5.906   7.647
20295TIP3   OH260761   1.505   1.761   0.107
20295TIP3    H160762   1.418   1.793   0.131
20295TIP3    H260763   1.565   1.813   0.160
20296TIP3   OH260764   4.508   6.731   7.230
20296TIP3    H160765   4.434   6.675   7.206
20296TIP3    H260766   4.481   6.774   7.311
20297TIP3   OH260767   5.386   6.988   7.835
20297TIP3    H160768   5.426   7.035   7.762
20297TIP3    H260769   5.309   6.945   7.798
20298TIP3   OH260770   4.973   6.050   7.135
20298TIP3    H160771   4.880   6.027   7.132
20298TIP3    H260772   4.974   6.145   7.148
20299TIP3   OH260773   1.648   2.452   0.240
20299TIP3    H160774   1.701   2.441   0.319
20299TIP3    H260775   1.609   2.539   0.250
20300TIP3   OH260776   5.029   6.315   7.203
20300TIP3    H160777   5.123   6.321   7.214
20300TIP3    H260778   5.006   6.393   7.152
20301TIP3   OH260779   4.192   6.746   7.872
20301TIP3    H160780   4.229   6.727   7.786
20301TIP3    H260781   4.259   6.717   7.934
20302TIP3   OH260782   4.658   6.892   7.071
20302TIP3    H160783   4.611   6.976   7.067
20302TIP3    H260784   4.603   6.835   7.124
20303TIP3   OH260785   0.808   2.054   0.507
20303TIP3    H160786   0.808   2.026   0.598
20303TIP3    H260787   0.733   2.010   0.467
20304TIP3   OH260788   1.554   2.193   0.527
20304TIP3    H160789   1.483   2.134   0.500
20304TIP3    H260790   1.634   2.150   0.497
20305TIP3   OH260791   1.785   2.742   0.120
20305TIP3    H160792   1.691   2.725   0.128
20305TIP3    H260793   1.810   2.780   0.204
20306TIP3   OH260794   5.443   6.397   7.011
20306TIP3    H160795   5.387   6.350   6.950
20306TIP3    H260796   5.445   6.487   6.978
20307TIP3   OH260797   2.441   2.667   0.103
20307TIP3    H160798   2.348   2.645   0.113
20307TIP3    H260799   2.466   2.627   0.020
20308TIP3   OH260800   5.186   7.225   6.952
20308TIP3    H160801   5.153   7.151   7.003
20308TIP3    H260802   5.206   7.188   6.866
20309TIP3   OH260803   5.164   6.851   7.726
20309TIP3    H160804   5.074   6.829   7.752
20309TIP3    H260805   5.198   6.771   7.687
20310TIP3   OH260806   4.321   7.090   7.545
20310TIP3    H160807   4.318   7.165   7.486
20310TIP3    H260808   4.230   7.078   7.573
20311TIP3   OH260809   3.884   6.379   7.262
20311TIP3    H160810   3.924   6.464   7.280
20311TIP3    H260811   3.802   6.380   7.310
20312TIP3   OH260812   4.409   6.845   7.452
20312TIP3    H160813   4.389   6.935   7.481
20312TIP3    H260814   4.379   6.790   7.525
20313TIP3   OH260815   4.605   7.411   7.998
20313TIP3    H160816   4.639   7.485   7.948
20313TIP3    H260817   4.680   7.377   8.046
20314TIP3   OH260818   4.240   7.311   7.395
20314TIP3    H160819   4.151   7.318   7.431
20314TIP3    H260820   4.275   7.400   7.400
20315TIP3   OH260821   4.952   7.081   7.967
20315TIP3    H160822   4.939   7.076   8.061
20315TIP3    H260823   5.030   7.028   7.950
20316TIP3   OH260824   4.957   6.954   6.832
20316TIP3    H160825   5.005   6.923   6.909
20316TIP3    H260826   4.872   6.909   6.837
20317TIP3   OH260827   5.201   7.569   7.999
20317TIP3    H160828   5.129   7.508   8.016
20317TIP3    H260829   5.168   7.625   7.927
20318TIP3   OH260830   5.273   7.431   6.636
20318TIP3    H160831   5.337   7.502   6.625
20318TIP3    H260832   5.198   7.473   6.678
20319TIP3   OH260833   1.023   1.582   0.505
20319TIP3    H160834   0.928   1.592   0.508
20319TIP3    H260835   1.045   1.529   0.582
20320TIP3   OH260836   5.126   6.858   7.025
20320TIP3    H160837   5.109   6.808   7.105
20320TIP3    H260838   5.221   6.867   7.022
20321TIP3   OH260839   0.768   2.688   0.160
20321TIP3    H160840   0.822   2.629   0.214
20321TIP3    H260841   0.783   2.775   0.197
20322TIP3   OH260842   4.289   6.921   6.837
20322TIP3    H160843   4.299   6.829   6.815
20322TIP3    H260844   4.272   6.922   6.931
20323TIP3   OH260845   4.239   6.940   7.110
20323TIP3    H160846   4.299   6.913   7.179
20323TIP3    H260847   4.237   7.036   7.116
20324TIP3   OH260848   3.977   6.632   7.337
20324TIP3    H160849   3.913   6.679   7.391
20324TIP3    H260850   3.992   6.689   7.262
20325TIP3   OH260851   1.866   1.636   0.209
20325TIP3    H160852   1.944   1.682   0.240
20325TIP3    H260853   1.859   1.560   0.266
20326TIP3   OH260854   5.033   5.999   7.403
20326TIP3    H160855   5.012   6.018   7.311
20326TIP3    H260856   5.076   6.079   7.434
20327TIP3   OH260857   4.516   7.123   7.063
20327TIP3    H160858   4.431   7.145   7.100
20327TIP3    H260859   4.536   7.195   7.004
20328TIP3   OH260860   4.679   6.198   7.490
20328TIP3    H160861   4.740   6.267   7.464
20328TIP3    H260862   4.703   6.177   7.580
20329TIP3   OH260863   1.710   1.873   0.258
20329TIP3    H160864   1.734   1.915   0.341
20329TIP3    H260865   1.759   1.791   0.258
20330TIP3   OH260866   4.844   5.893   7.576
20330TIP3    H160867   4.821   5.970   7.628
20330TIP3    H260868   4.914   5.923   7.518
20331TIP3   OH260869   4.267   7.212   7.141
20331TIP3    H160870   4.247   7.285   7.082
20331TIP3    H260871   4.255   7.247   7.229
20332TIP3   OH260872   4.355   5.921   7.388
20332TIP3    H160873   4.343   6.012   7.415
20332TIP3    H260874   4.450   5.906   7.395
20333TIP3   OH260875   2.320   1.768   0.247
20333TIP3    H160876   2.225   1.775   0.259
20333TIP3    H260877   2.329   1.707   0.173
20334TIP3   OH260878   5.258   6.594   7.637
20334TIP3    H160879   5.181   6.538   7.648
20334TIP3    H260880   5.324   6.555   7.694
20335TIP3   OH260881   3.991   6.803   7.115
20335TIP3    H160882   4.052   6.877   7.113
20335TIP3    H260883   4.029   6.738   7.055
20336TIP3   OH260884   3.904   6.101   7.246
20336TIP3    H160885   3.916   6.194   7.263
20336TIP3    H260886   3.867   6.098   7.158
20337TIP3   OH260887   5.241   7.568   7.580
20337TIP3    H160888   5.198   7.625   7.516
20337TIP3    H260889   5.334   7.576   7.560
20338TIP3   OH260890   1.040   1.196   0.118
20338TIP3    H160891   1.010   1.164   0.033
20338TIP3    H260892   1.031   1.120   0.176
20339TIP3   OH260893   3.823   7.077   7.502
20339TIP3    H160894   3.774   7.112   7.577
20339TIP3    H260895   3.781   7.117   7.426
20340TIP3   OH260896   0.767   2.987   0.582
20340TIP3    H160897   0.849   2.990   0.631
20340TIP3    H260898   0.749   2.894   0.570
20341TIP3   OH260899   1.232   2.891   0.625
20341TIP3    H160900   1.323   2.863   0.630
20341TIP3    H260901   1.196   2.840   0.553
20342TIP3   OH260902   4.454   7.120   6.740
20342TIP3    H160903   4.400   7.052   6.781
20342TIP3    H260904   4.528   7.073   6.702
20343TIP3   OH260905   1.845   2.838   0.368
20343TIP3    H160906   1.859   2.767   0.431
20343TIP3    H260907   1.923   2.893   0.376
20344TIP3   OH260908   4.898   7.162   6.664
20344TIP3    H160909   4.933   7.098   6.726
20344TIP3    H260910   4.958   7.158   6.589
20345TIP3   OH260911   0.865   2.393   0.766
20345TIP3    H160912   0.882   2.299   0.778
20345TIP3    H260913   0.779   2.396   0.724
20346TIP3   OH260914   4.133   6.616   6.976
20346TIP3    H160915   4.189   6.596   7.052
20346TIP3    H260916   4.194   6.630   6.904
20347TIP3   OH260917   1.488   2.468   0.544
20347TIP3    H160918   1.442   2.489   0.462
20347TIP3    H260919   1.523   2.380   0.529
20348TIP3   OH260920   4.708   6.833   6.808
20348TIP3    H160921   4.681   6.845   6.899
20348TIP3    H260922   4.682   6.743   6.787
20349TIP3   OH260923   1.959   2.523   0.163
20349TIP3    H160924   2.039   2.549   0.116
20349TIP3    H260925   1.896   2.591   0.141
20350TIP3   OH260926   0.978   2.138   0.779
20350TIP3    H160927   1.052   2.119   0.720
20350TIP3    H260928   1.019   2.156   0.863
20351TIP3   OH260929   4.304   6.554   7.185
20351TIP3    H160930   4.277   6.522   7.271
20351TIP3    H260931   4.347   6.479   7.144
20352TIP3   OH260932   1.347   2.021   0.436
20352TIP3    H160933   1.260   2.058   0.447
20352TIP3    H260934   1.375   2.050   0.349
20353TIP3   OH260935   4.437   6.370   7.023
20353TIP3    H160936   4.405   6.377   6.933
20353TIP3    H260937   4.532   6.381   7.016
20354TIP3   OH260938   1.840   2.384   0.503
20354TIP3    H160939   1.910   2.348   0.449
20354TIP3    H260940   1.835   2.324   0.578
20355TIP3   OH260941   5.224   6.656   6.702
20355TIP3    H160942   5.211   6.619   6.614
20355TIP3    H260943   5.206   6.749   6.691
20356TIP3   OH260944   1.447   1.786   0.540
20356TIP3    H160945   1.450   1.717   0.474
20356TIP3    H260946   1.414   1.863   0.493
20357TIP3   OH260947   1.455   1.589   0.336
20357TIP3    H160948   1.483   1.625   0.251
20357TIP3    H260949   1.365   1.562   0.322
20358TIP3   OH260950   1.454   2.117   0.206
20358TIP3    H160951   1.542   2.152   0.194
20358TIP3    H260952   1.398   2.175   0.154
20359TIP3   OH260953   2.052   2.068   0.580
20359TIP3    H160954   2.090   1.980   0.584
20359TIP3    H260955   2.127   2.126   0.568
20360TIP3   OH260956   2.073   2.338   0.324
20360TIP3    H160957   2.022   2.402   0.275
20360TIP3    H260958   2.163   2.349   0.291
20361TIP3   OH260959   1.333   1.863   0.785
20361TIP3    H160960   1.263   1.801   0.804
20361TIP3    H260961   1.361   1.841   0.696
20362TIP3   OH260962   1.576   1.360   0.443
20362TIP3    H160963   1.535   1.440   0.408
20362TIP3    H260964   1.510   1.292   0.429
20363TIP3   OH260965   1.701   1.825   0.645
20363TIP3    H160966   1.691   1.811   0.739
20363TIP3    H260967   1.615   1.804   0.608
20364TIP3   OH260968   1.948   1.783   0.518
20364TIP3    H160969   1.869   1.781   0.572
20364TIP3    H260970   2.018   1.755   0.576
20365TIP3   OH260971   2.185   1.743   0.659
20365TIP3    H160972   2.199   1.649   0.666
20365TIP3    H260973   2.179   1.773   0.750
20366TIP3   OH260974   1.163   1.646   0.846
20366TIP3    H160975   1.169   1.558   0.810
20366TIP3    H260976   1.202   1.639   0.934
20367TIP3   OH260977   1.640   1.329   0.708
20367TIP3    H160978   1.708   1.262   0.701
20367TIP3    H260979   1.611   1.343   0.618
20368TIP3   OH260980   1.738   1.542   0.852
20368TIP3    H160981   1.707   1.469   0.798
20368TIP3    H260982   1.666   1.604   0.853
20369TIP3   OH260983   4.271   7.429   6.966
20369TIP3    H160984   4.356   7.403   6.931
20369TIP3    H260985   4.225   7.468   6.891
20370TIP3   OH260986   3.721   6.790   7.166
20370TIP3    H160987   3.813   6.805   7.144
20370TIP3    H260988   3.700   6.706   7.125
20371TIP3   OH260989   3.626   7.384   7.600
20371TIP3    H160990   3.562   7.329   7.553
20371TIP3    H260991   3.672   7.322   7.657
20372TIP3   OH260992   3.772   7.215   7.764
20372TIP3    H160993   3.763   7.143   7.827
20372TIP3    H260994   3.825   7.280   7.809
20373TIP3   OH260995   5.514   7.602   7.554
20373TIP3    H160996   5.530   7.627   7.645
20373TIP3    H260997   5.584   7.644   7.504
20374TIP3   OH260998   5.527   7.633   7.830
20374TIP3    H160999   5.478   7.552   7.841
20374TIP3    H261000   5.605   7.622   7.885
20375TIP3   OH261001   2.282   2.703   0.402
20375TIP3    H161002   2.208   2.718   0.459
20375TIP3    H261003   2.336   2.782   0.411
20376TIP3   OH261004   5.405   6.860   7.033
20376TIP3    H161005   5.457   6.934   7.001
20376TIP3    H261006   5.453   6.827   7.108
20377TIP3   OH261007   5.543   6.725   7.235
20377TIP3    H161008   5.475   6.690   7.292
20377TIP3    H261009   5.607   6.764   7.294
20378TIP3   OH261010   5.575   7.119   7.679
20378TIP3    H161011   5.628   7.052   7.637
20378TIP3    H261012   5.593   7.199   7.629
20379TIP3   OH261013   5.381   7.400   7.869
20379TIP3    H161014   5.315   7.450   7.917
20379TIP3    H261015   5.332   7.361   7.796
20380TIP3   OH261016   5.434   6.637   6.878
20380TIP3    H161017   5.362   6.638   6.815
20380TIP3    H261018   5.419   6.714   6.932
20381TIP3   OH261019   5.296   6.281   6.811
20381TIP3    H161020   5.246   6.319   6.739
20381TIP3    H261021   5.288   6.187   6.799
20382TIP3   OH261022   5.335   6.590   7.370
20382TIP3    H161023   5.337   6.495   7.355
20382TIP3    H261024   5.313   6.599   7.462
20383TIP3   OH261025   0.680   2.025   0.148
20383TIP3    H161026   0.670   1.995   0.057
20383TIP3    H261027   0.774   2.021   0.164
20384TIP3   OH261028   2.324   2.374   0.214
20384TIP3    H161029   2.390   2.309   0.191
20384TIP3    H261030   2.311   2.425   0.135
20385TIP3   OH261031   2.500   2.165   0.203
20385TIP3    H161032   2.432   2.119   0.252
20385TIP3    H261033   2.581   2.119   0.226
20386TIP3   OH261034   5.258   6.008   6.786
20386TIP3    H161035   5.318   5.988   6.857
20386TIP3    H261036   5.173   5.978   6.817
20387TIP3   OH261037   5.322   6.310   7.257
20387TIP3    H161038   5.367   6.227   7.270
20387TIP3    H261039   5.362   6.347   7.178
20388TIP3   OH261040   5.472   6.472   7.781
20388TIP3    H161041   5.552   6.491   7.733
20388TIP3    H261042   5.485   6.512   7.867
20389TIP3   OH261043   2.276   1.998   0.008
20389TIP3    H161044   2.203   2.026   0.064
20389TIP3    H261045   2.308   2.079  -0.031
20390TIP3   OH261046   0.900   1.707   0.784
20390TIP3    H161047   0.994   1.703   0.803
20390TIP3    H261048   0.865   1.626   0.822
20391TIP3   OH261049   2.743   1.604   0.540
20391TIP3    H161050   2.809   1.545   0.504
20391TIP3    H261051   2.707   1.650   0.464
20392TIP3   OH261052   5.439   6.060   7.308
20392TIP3    H161053   5.484   6.046   7.391
20392TIP3    H261054   5.376   5.989   7.302
20393TIP3   OH261055   0.881   1.424   0.136
20393TIP3    H161056   0.934   1.344   0.141
20393TIP3    H261057   0.944   1.493   0.116
20394TIP3   OH261058   0.655   1.685   0.193
20394TIP3    H161059   0.707   1.674   0.114
20394TIP3    H261060   0.679   1.772   0.227
20395TIP3   OH261061   2.590   1.715   0.346
20395TIP3    H161062   2.515   1.752   0.393
20395TIP3    H261063   2.552   1.646   0.292
20396TIP3   OH261064   5.483   5.972   6.947
20396TIP3    H161065   5.532   5.910   6.892
20396TIP3    H261066   5.538   6.051   6.949
20397TIP3   OH261067   3.910   5.820   7.694
20397TIP3    H161068   3.825   5.808   7.737
20397TIP3    H261069   3.890   5.874   7.617
20398TIP3   OH261070   5.047   7.556   7.226
20398TIP3    H161071   5.095   7.537   7.145
20398TIP3    H261072   5.102   7.621   7.271
20399TIP3   OH261073   0.872   1.246   0.522
20399TIP3    H161074   0.823   1.244   0.604
20399TIP3    H261075   0.818   1.297   0.462
20400TIP3   OH261076   0.898   2.708   0.594
20400TIP3    H161077   0.805   2.689   0.585
20400TIP3    H261078   0.916   2.698   0.687
20401TIP3   OH261079   1.111   2.759   0.147
20401TIP3    H161080   1.060   2.833   0.114
20401TIP3    H261081   1.195   2.766   0.102
20402TIP3   OH261082   1.499   2.983   0.280
20402TIP3    H161083   1.538   2.976   0.367
20402TIP3    H261084   1.562   3.034   0.230
20403TIP3   OH261085   1.694   3.127   0.151
20403TIP3    H161086   1.751   3.076   0.094
20403TIP3    H261087   1.753   3.173   0.210
20404TIP3   OH261088   2.502   1.467   0.240
20404TIP3    H161089   2.416   1.461   0.199
20404TIP3    H261090   2.538   1.378   0.235
20405TIP3   OH261091   0.771   2.987   0.193
20405TIP3    H161092   0.681   3.007   0.169
20405TIP3    H261093   0.794   3.054   0.257
20406TIP3   OH261094   1.001   2.988   0.041
20406TIP3    H161095   0.918   2.990   0.088
20406TIP3    H261096   0.978   3.010  -0.049
20407TIP3   OH261097   4.675   7.626   7.838
20407TIP3    H161098   4.603   7.635   7.775
20407TIP3    H261099   4.684   7.713   7.877
20408TIP3   OH261100   4.939   7.564   7.878
20408TIP3    H161101   4.847   7.581   7.860
20408TIP3    H261102   4.987   7.629   7.827
20409TIP3   OH261103   5.144   7.734   7.777
20409TIP3    H161104   5.135   7.817   7.730
20409TIP3    H261105   5.176   7.673   7.710
20410TIP3   OH261106   3.947   7.390   7.912
20410TIP3    H161107   3.975   7.367   8.000
20410TIP3    H261108   4.017   7.358   7.855
20411TIP3   OH261109   4.149   7.279   7.769
20411TIP3    H161110   4.162   7.194   7.811
20411TIP3    H261111   4.236   7.319   7.771
20412TIP3   OH261112   4.418   7.364   7.794
20412TIP3    H161113   4.438   7.271   7.777
20412TIP3    H261114   4.473   7.386   7.870
20413TIP3   OH261115   4.978   6.009   7.883
20413TIP3    H161116   4.939   5.938   7.934
20413TIP3    H261117   5.047   5.966   7.832
20414TIP3   OH261118   5.481   5.933   7.770
20414TIP3    H161119   5.516   5.983   7.696
20414TIP3    H261120   5.388   5.953   7.771
20415TIP3   OH261121   5.595   6.007   7.531
20415TIP3    H161122   5.664   5.946   7.506
20415TIP3    H261123   5.634   6.094   7.517
20416TIP3   OH261124   4.218   5.714   7.879
20416TIP3    H161125   4.129   5.680   7.890
20416TIP3    H261126   4.272   5.636   7.870
20417TIP3   OH261127   4.043   5.626   7.534
20417TIP3    H161128   4.068   5.675   7.455
20417TIP3    H261129   4.004   5.692   7.591
20418TIP3   OH261130   4.704   5.750   7.777
20418TIP3    H161131   4.751   5.798   7.709
20418TIP3    H261132   4.744   5.780   7.859
20419TIP3   OH261133   5.193   5.890   7.754
20419TIP3    H161134   5.208   5.854   7.667
20419TIP3    H261135   5.201   5.815   7.813
20420TIP3   OH261136   5.253   5.850   7.318
20420TIP3    H161137   5.174   5.897   7.344
20420TIP3    H261138   5.243   5.763   7.356
20421TIP3   OH261139   3.709   7.197   7.281
20421TIP3    H161140   3.626   7.170   7.241
20421TIP3    H261141   3.716   7.291   7.261
20422TIP3   OH261142   4.146   5.754   7.296
20422TIP3    H161143   4.192   5.693   7.237
20422TIP3    H261144   4.216   5.810   7.331
20423TIP3   OH261145   4.631   5.947   7.394
20423TIP3    H161146   4.690   5.894   7.447
20423TIP3    H261147   4.645   6.037   7.423
20424TIP3   OH261148   4.518   7.341   6.885
20424TIP3    H161149   4.601   7.369   6.846
20424TIP3    H261150   4.486   7.272   6.828
20425TIP3   OH261151   5.189   7.497   7.001
20425TIP3    H161152   5.197   7.402   6.992
20425TIP3    H261153   5.167   7.528   6.913
20426TIP3   OH261154   1.182   1.376   0.759
20426TIP3    H161155   1.148   1.309   0.819
20426TIP3    H261156   1.274   1.385   0.783
20427TIP3   OH261157   1.428   1.383   0.886
20427TIP3    H161158   1.504   1.360   0.833
20427TIP3    H261159   1.422   1.314   0.952
20428TIP3   OH261160   3.841   7.223   6.978
20428TIP3    H161161   3.818   7.203   7.068
20428TIP3    H261162   3.902   7.154   6.952
20429TIP3   OH261163   2.250   1.474   0.659
20429TIP3    H161164   2.264   1.442   0.748
20429TIP3    H261165   2.335   1.469   0.617
20430TIP3   OH261166   2.168   2.986   0.135
20430TIP3    H161167   2.083   2.967   0.095
20430TIP3    H261168   2.159   3.076   0.168
20431TIP3   OH261169   6.713   7.010   6.912
20431TIP3    H161170   6.679   7.097   6.887
20431TIP3    H261171   6.644   6.950   6.886
20432TIP3   OH261172   6.692   7.002   7.311
20432TIP3    H161173   6.730   6.988   7.398
20432TIP3    H261174   6.652   6.918   7.288
20433TIP3   OH261175   6.002   6.854   7.684
20433TIP3    H161176   6.036   6.798   7.754
20433TIP3    H261177   6.078   6.902   7.653
20434TIP3   OH261178   6.974   7.312   7.010
20434TIP3    H161179   6.965   7.246   7.078
20434TIP3    H261180   6.989   7.394   7.057
20435TIP3   OH261181   6.000   7.286   7.357
20435TIP3    H161182   5.984   7.193   7.370
20435TIP3    H261183   6.095   7.293   7.348
20436TIP3   OH261184   5.682   6.495   7.147
20436TIP3    H161185   5.646   6.579   7.174
20436TIP3    H261186   5.606   6.448   7.110
20437TIP3   OH261187   5.768   6.816   7.380
20437TIP3    H161188   5.816   6.738   7.406
20437TIP3    H261189   5.835   6.881   7.361
20438TIP3   OH261190   6.650   7.733   7.035
20438TIP3    H161191   6.672   7.669   6.967
20438TIP3    H261192   6.657   7.684   7.117
20439TIP3   OH261193   6.510   7.221   7.324
20439TIP3    H161194   6.552   7.141   7.294
20439TIP3    H261195   6.582   7.272   7.362
20440TIP3   OH261196   7.536   6.527   7.330
20440TIP3    H161197   7.556   6.603   7.385
20440TIP3    H261198   7.567   6.553   7.243
20441TIP3   OH261199   6.899   6.717   7.382
20441TIP3    H161200   6.941   6.637   7.413
20441TIP3    H261201   6.879   6.700   7.290
20442TIP3   OH261202   6.281   6.369   7.336
20442TIP3    H161203   6.257   6.444   7.281
20442TIP3    H261204   6.223   6.299   7.307
20443TIP3   OH261205   6.977   6.469   6.973
20443TIP3    H161206   7.039   6.461   7.045
20443TIP3    H261207   7.028   6.505   6.901
20444TIP3   OH261208   5.898   6.589   7.468
20444TIP3    H161209   5.981   6.571   7.513
20444TIP3    H261210   5.902   6.536   7.388
20445TIP3   OH261211   6.322   6.792   7.272
20445TIP3    H161212   6.415   6.772   7.280
20445TIP3    H261213   6.282   6.709   7.246
20446TIP3   OH261214   7.591   6.721   7.519
20446TIP3    H161215   7.524   6.784   7.494
20446TIP3    H261216   7.557   6.680   7.599
20447TIP3   OH261217   6.253   6.375   7.788
20447TIP3    H161218   6.202   6.411   7.715
20447TIP3    H261219   6.198   6.388   7.865
20448TIP3   OH261220   6.610   7.230   6.777
20448TIP3    H161221   6.569   7.201   6.695
20448TIP3    H261222   6.558   7.306   6.804
20449TIP3   OH261223   6.363   7.152   7.550
20449TIP3    H161224   6.303   7.220   7.581
20449TIP3    H261225   6.404   7.190   7.472
20450TIP3   OH261226   7.133   6.492   7.195
20450TIP3    H161227   7.084   6.477   7.277
20450TIP3    H261228   7.187   6.568   7.213
20451TIP3   OH261229   6.145   6.478   7.555
20451TIP3    H161230   6.196   6.555   7.578
20451TIP3    H261231   6.195   6.436   7.485
20452TIP3   OH261232   6.190   7.350   7.641
20452TIP3    H161233   6.173   7.440   7.613
20452TIP3    H261234   6.112   7.325   7.690
20453TIP3   OH261235   5.557   7.056   6.901
20453TIP3    H161236   5.524   7.066   6.812
20453TIP3    H261237   5.560   7.145   6.937
20454TIP3   OH261238   6.991   7.563   7.140
20454TIP3    H161239   6.906   7.561   7.184
20454TIP3    H261240   6.994   7.648   7.097
20455TIP3   OH261241   7.331   6.414   7.491
20455TIP3    H161242   7.246   6.437   7.453
20455TIP3    H261243   7.394   6.441   7.425
20456TIP3   OH261244   6.598   6.064   7.522
20456TIP3    H161245   6.590   5.972   7.549
20456TIP3    H261246   6.521   6.107   7.560
20457TIP3   OH261247   6.724   7.590   6.804
20457TIP3    H161248   6.778   7.512   6.792
20457TIP3    H261249   6.781   7.663   6.777
20458TIP3   OH261250   6.859   7.356   6.763
20458TIP3    H161251   6.784   7.298   6.767
20458TIP3    H261252   6.910   7.335   6.841
20459TIP3   OH261253   7.258   7.466   7.483
20459TIP3    H161254   7.251   7.388   7.428
20459TIP3    H261255   7.244   7.539   7.424
20460TIP3   OH261256   6.542   6.844   6.764
20460TIP3    H161257   6.461   6.890   6.741
20460TIP3    H261258   6.591   6.839   6.681
20461TIP3   OH261259   7.432   7.104   7.339
20461TIP3    H161260   7.347   7.147   7.344
20461TIP3    H261261   7.462   7.122   7.250
20462TIP3   OH261262   6.911   6.953   6.734
20462TIP3    H161263   6.853   6.977   6.806
20462TIP3    H261264   6.992   6.925   6.776
20463TIP3   OH261265   7.068   6.895   7.645
20463TIP3    H161266   7.117   6.973   7.618
20463TIP3    H261267   6.979   6.912   7.617
20464TIP3   OH261268   6.129   6.927   7.119
20464TIP3    H161269   6.092   6.863   7.058
20464TIP3    H261270   6.201   6.881   7.161
20465TIP3   OH261271   6.261   7.343   7.262
20465TIP3    H161272   6.234   7.329   7.171
20465TIP3    H261273   6.347   7.301   7.267
20466TIP3   OH261274   6.226   6.919   7.500
20466TIP3    H161275   6.265   6.884   7.420
20466TIP3    H261276   6.275   7.000   7.518
20467TIP3   OH261277   6.759   7.559   7.289
20467TIP3    H161278   6.785   7.601   7.371
20467TIP3    H261279   6.735   7.470   7.314
20468TIP3   OH261280   6.383   7.447   7.809
20468TIP3    H161281   6.329   7.508   7.860
20468TIP3    H261282   6.320   7.402   7.752
20469TIP3   OH261283   6.748   6.807   6.570
20469TIP3    H161284   6.806   6.865   6.619
20469TIP3    H261285   6.770   6.823   6.478
20470TIP3   OH261286   6.150   7.014   7.909
20470TIP3    H161287   6.147   7.100   7.951
20470TIP3    H261288   6.060   6.980   7.916
20471TIP3   OH261289   6.477   7.469   6.813
20471TIP3    H161290   6.557   7.521   6.818
20471TIP3    H261291   6.414   7.527   6.771
20472TIP3   OH261292   6.190   7.630   7.898
20472TIP3    H161293   6.165   7.630   7.806
20472TIP3    H261294   6.112   7.601   7.945
20473TIP3   OH261295   7.238   6.031   6.616
20473TIP3    H161296   7.162   6.049   6.671
20473TIP3    H261297   7.242   6.106   6.556
20474TIP3   OH261298   6.000   6.766   6.919
20474TIP3    H161299   5.920   6.815   6.896
20474TIP3    H261300   5.969   6.678   6.940
20475TIP3   OH261301   7.063   7.400   6.180
20475TIP3    H161302   7.055   7.492   6.158
20475TIP3    H261303   7.152   7.377   6.154
20476TIP3   OH261304   5.772   7.157   7.874
20476TIP3    H161305   5.701   7.135   7.814
20476TIP3    H261306   5.809   7.072   7.899
20477TIP3   OH261307   5.649   7.356   7.545
20477TIP3    H161308   5.684   7.356   7.456
20477TIP3    H261309   5.585   7.427   7.546
20478TIP3   OH261310   7.452   7.788   7.561
20478TIP3    H161311   7.469   7.704   7.603
20478TIP3    H261312   7.376   7.824   7.607
20479TIP3   OH261313   6.557   7.625   7.692
20479TIP3    H161314   6.627   7.618   7.758
20479TIP3    H261315   6.494   7.558   7.717
20480TIP3   OH261316   6.362   7.698   6.646
20480TIP3    H161317   6.306   7.678   6.571
20480TIP3    H261318   6.329   7.780   6.680
20481TIP3   OH261319   6.565   7.624   6.272
20481TIP3    H161320   6.616   7.549   6.240
20481TIP3    H261321   6.599   7.640   6.360
20482TIP3   OH261322   6.616   7.671   6.541
20482TIP3    H161323   6.529   7.677   6.581
20482TIP3    H261324   6.672   7.636   6.611
20483TIP3   OH261325   7.381   6.896   7.768
20483TIP3    H161326   7.294   6.895   7.808
20483TIP3    H261327   7.426   6.820   7.804
20484TIP3   OH261328   5.975   7.330   7.810
20484TIP3    H161329   6.021   7.323   7.893
20484TIP3    H261330   5.899   7.272   7.819
20485TIP3   OH261331   6.360   6.160   7.644
20485TIP3    H161332   6.276   6.126   7.612
20485TIP3    H261333   6.338   6.241   7.690
20486TIP3   OH261334   6.876   6.287   7.829
20486TIP3    H161335   6.944   6.253   7.887
20486TIP3    H261336   6.794   6.269   7.875
20487TIP3   OH261337   7.141   6.656   7.752
20487TIP3    H161338   7.154   6.682   7.843
20487TIP3    H261339   7.115   6.736   7.707
20488TIP3   OH261340   6.799   6.840   6.288
20488TIP3    H161341   6.742   6.916   6.282
20488TIP3    H261342   6.887   6.875   6.277
20489TIP3   OH261343   6.512   6.214   6.612
20489TIP3    H161344   6.480   6.218   6.702
20489TIP3    H261345   6.477   6.132   6.578
20490TIP3   OH261346   6.290   6.691   7.643
20490TIP3    H161347   6.254   6.700   7.731
20490TIP3    H261348   6.266   6.773   7.599
20491TIP3   OH261349   6.177   6.573   7.184
20491TIP3    H161350   6.088   6.550   7.211
20491TIP3    H261351   6.186   6.534   7.097
20492TIP3   OH261352   6.663   6.642   6.906
20492TIP3    H161353   6.616   6.715   6.865
20492TIP3    H261354   6.721   6.609   6.837
20493TIP3   OH261355   6.897   6.876   7.936
20493TIP3    H161356   6.846   6.835   8.006
20493TIP3    H261357   6.988   6.852   7.956
20494TIP3   OH261358   6.838   6.661   7.122
20494TIP3    H161359   6.766   6.678   7.060
20494TIP3    H261360   6.884   6.586   7.084
20495TIP3   OH261361   6.128   6.689   7.872
20495TIP3    H161362   6.167   6.746   7.939
20495TIP3    H261363   6.109   6.607   7.919
20496TIP3   OH261364   6.186   6.200   6.586
20496TIP3    H161365   6.175   6.195   6.681
20496TIP3    H261366   6.103   6.235   6.554
20497TIP3   OH261367   5.729   6.227   7.454
20497TIP3    H161368   5.800   6.263   7.508
20497TIP3    H261369   5.770   6.212   7.369
20498TIP3   OH261370   5.638   6.207   6.950
20498TIP3    H161371   5.693   6.247   6.884
20498TIP3    H261372   5.573   6.274   6.972
20499TIP3   OH261373   6.795   6.904   7.549
20499TIP3    H161374   6.835   6.844   7.486
20499TIP3    H261375   6.775   6.849   7.625
20500TIP3   OH261376   6.547   6.358   7.226
20500TIP3    H161377   6.469   6.358   7.281
20500TIP3    H261378   6.620   6.349   7.287
20501TIP3   OH261379   5.939   6.446   7.238
20501TIP3    H161380   5.852   6.450   7.198
20501TIP3    H261381   5.968   6.356   7.223
20502TIP3   OH261382   6.192   6.440   6.945
20502TIP3    H161383   6.285   6.456   6.928
20502TIP3    H261384   6.148   6.466   6.864
20503TIP3   OH261385   6.987   6.453   7.427
20503TIP3    H161386   6.969   6.470   7.520
20503TIP3    H261387   6.919   6.390   7.401
20504TIP3   OH261388   6.039   6.477   6.721
20504TIP3    H161389   5.959   6.429   6.704
20504TIP3    H261390   6.079   6.489   6.635
20505TIP3   OH261391   7.180   8.153   7.620
20505TIP3    H161392   7.176   8.158   7.525
20505TIP3    H261393   7.240   8.223   7.646
20506TIP3   OH261394   2.842   2.633   0.044
20506TIP3    H161395   2.919   2.673   0.084
20506TIP3    H261396   2.780   2.624   0.117
20507TIP3   OH261397   6.589   6.729   7.324
20507TIP3    H161398   6.663   6.682   7.286
20507TIP3    H261399   6.581   6.692   7.412
20508TIP3   OH261400   6.083   6.197   7.227
20508TIP3    H161401   6.055   6.123   7.280
20508TIP3    H261402   6.108   6.159   7.143
20509TIP3   OH261403   6.553   6.632   7.585
20509TIP3    H161404   6.466   6.661   7.611
20509TIP3    H261405   6.612   6.675   7.647
20510TIP3   OH261406   6.305   6.982   6.706
20510TIP3    H161407   6.235   6.921   6.682
20510TIP3    H261408   6.271   7.030   6.781
20511TIP3   OH261409   7.189   7.248   7.317
20511TIP3    H161410   7.228   7.296   7.244
20511TIP3    H261411   7.110   7.209   7.281
20512TIP3   OH261412   6.767   6.310   6.611
20512TIP3    H161413   6.674   6.289   6.611
20512TIP3    H261414   6.771   6.403   6.632
20513TIP3   OH261415   6.712   7.316   7.719
20513TIP3    H161416   6.781   7.273   7.769
20513TIP3    H261417   6.645   7.338   7.784
20514TIP3   OH261418   6.826   6.569   6.689
20514TIP3    H161419   6.920   6.576   6.703
20514TIP3    H261420   6.803   6.649   6.642
20515TIP3   OH261421   5.992   6.993   7.356
20515TIP3    H161422   6.033   6.979   7.270
20515TIP3    H261423   6.058   6.963   7.418
20516TIP3   OH261424   6.457   7.154   6.552
20516TIP3    H161425   6.409   7.237   6.550
20516TIP3    H261426   6.404   7.096   6.606
20517TIP3   OH261427   2.625   2.314  -0.013
20517TIP3    H161428   2.676   2.305   0.067
20517TIP3    H261429   2.552   2.253  -0.002
20518TIP3   OH261430   6.591   7.064   7.947
20518TIP3    H161431   6.567   7.025   7.863
20518TIP3    H261432   6.684   7.083   7.938
20519TIP3   OH261433   6.832   7.584   7.561
20519TIP3    H161434   6.753   7.543   7.597
20519TIP3    H261435   6.849   7.657   7.621
20520TIP3   OH261436   7.231   6.659   6.508
20520TIP3    H161437   7.163   6.622   6.452
20520TIP3    H261438   7.245   6.747   6.473
20521TIP3   OH261439   7.502   7.505   7.600
20521TIP3    H161440   7.410   7.497   7.576
20521TIP3    H261441   7.549   7.501   7.517
20522TIP3   OH261442   6.978   7.477   6.442
20522TIP3    H161443   6.960   7.408   6.506
20522TIP3    H261444   7.004   7.430   6.363
20523TIP3   OH261445   6.959   7.113   7.213
20523TIP3    H161446   6.868   7.092   7.234
20523TIP3    H261447   6.996   7.031   7.179
20524TIP3   OH261448   6.100   7.354   7.026
20524TIP3    H161449   6.089   7.431   6.969
20524TIP3    H261450   6.019   7.351   7.078
20525TIP3   OH261451   5.678   6.632   6.749
20525TIP3    H161452   5.717   6.717   6.772
20525TIP3    H261453   5.594   6.632   6.796
20526TIP3   OH261454   6.177   7.113   6.910
20526TIP3    H161455   6.160   7.200   6.945
20526TIP3    H261456   6.161   7.054   6.984
20527TIP3   OH261457   6.397   7.680   7.471
20527TIP3    H161458   6.431   7.752   7.417
20527TIP3    H261459   6.470   7.655   7.527
20528TIP3   OH261460   6.012   7.573   6.871
20528TIP3    H161461   5.919   7.575   6.846
20528TIP3    H261462   6.035   7.666   6.882
20529TIP3   OH261463   6.740   7.316   7.444
20529TIP3    H161464   6.723   7.313   7.539
20529TIP3    H261465   6.830   7.286   7.435
20530TIP3   OH261466   6.740   7.196   6.339
20530TIP3    H161467   6.806   7.172   6.405
20530TIP3    H261468   6.657   7.191   6.386
20531TIP3   OH261469   7.024   7.827   7.457
20531TIP3    H161470   6.946   7.804   7.507
20531TIP3    H261471   6.995   7.895   7.396
20532TIP3   OH261472   7.050   7.671   6.130
20532TIP3    H161473   7.061   7.727   6.053
20532TIP3    H261474   6.982   7.716   6.182
20533TIP3   OH261475   2.813   1.819  -0.004
20533TIP3    H161476   2.719   1.833   0.000
20533TIP3    H261477   2.831   1.755   0.065
20534TIP3   OH261478   6.933   7.107   6.507
20534TIP3    H161479   6.919   7.066   6.593
20534TIP3    H261480   7.027   7.122   6.503
20535TIP3   OH261481   5.829   7.542   7.677
20535TIP3    H161482   5.776   7.470   7.641
20535TIP3    H261483   5.895   7.498   7.731
20536TIP3   OH261484   6.115   7.173   6.345
20536TIP3    H161485   6.108   7.081   6.320
20536TIP3    H261486   6.094   7.174   6.438
20537TIP3   OH261487   6.040   7.199   6.614
20537TIP3    H161488   6.083   7.174   6.696
20537TIP3    H261489   6.038   7.295   6.615
20538TIP3   OH261490   5.767   6.887   6.824
20538TIP3    H161491   5.699   6.933   6.874
20538TIP3    H261492   5.785   6.944   6.749
20539TIP3   OH261493   6.921   6.513   7.686
20539TIP3    H161494   7.003   6.549   7.719
20539TIP3    H261495   6.906   6.435   7.739
20540TIP3   OH261496   6.825   6.255   6.882
20540TIP3    H161497   6.807   6.274   6.790
20540TIP3    H261498   6.870   6.332   6.915
20541TIP3   OH261499   6.315   7.384   6.540
20541TIP3    H161500   6.230   7.404   6.579
20541TIP3    H261501   6.337   7.462   6.488
20542TIP3   OH261502   6.472   6.457   6.978
20542TIP3    H161503   6.536   6.524   6.953
20542TIP3    H261504   6.495   6.434   7.067
20543TIP3   OH261505   6.755   6.726   7.749
20543TIP3    H161506   6.799   6.772   7.820
20543TIP3    H261507   6.809   6.649   7.733
20544TIP3   OH261508   6.642   6.149   7.061
20544TIP3    H161509   6.619   6.226   7.114
20544TIP3    H261510   6.711   6.179   7.003
20545TIP3   OH261511   6.067   7.474   6.618
20545TIP3    H161512   6.034   7.543   6.561
20545TIP3    H261513   6.045   7.504   6.706
20546TIP3   OH261514   6.157   6.173   6.862
20546TIP3    H161515   6.144   6.260   6.901
20546TIP3    H261516   6.251   6.157   6.870
20547TIP3   OH261517   7.402   6.596   7.688
20547TIP3    H161518   7.317   6.621   7.722
20547TIP3    H261519   7.383   6.529   7.623
20548TIP3   OH261520   7.051   6.856   7.127
20548TIP3    H161521   6.976   6.798   7.135
20548TIP3    H261522   7.119   6.815   7.180
20549TIP3   OH261523   5.797   7.057   6.605
20549TIP3    H161524   5.861   7.127   6.614
20549TIP3    H261525   5.835   6.998   6.540
20550TIP3   OH261526   5.741   6.364   6.742
20550TIP3    H161527   5.728   6.458   6.755
20550TIP3    H261528   5.680   6.341   6.671
20551TIP3   OH261529   7.029   7.827   7.061
20551TIP3    H161530   6.987   7.881   6.993
20551TIP3    H261531   7.123   7.841   7.049
20552TIP3   OH261532   6.100   6.071   7.608
20552TIP3    H161533   6.070   6.038   7.523
20552TIP3    H261534   6.093   5.996   7.667
20553TIP3   OH261535   2.513   3.191  -0.013
20553TIP3    H161536   2.598   3.195   0.031
20553TIP3    H261537   2.477   3.106   0.011
20554TIP3   OH261538   6.254   7.379   6.226
20554TIP3    H161539   6.209   7.311   6.275
20554TIP3    H261540   6.329   7.336   6.186
20555TIP3   OH261541   6.904   7.793   7.722
20555TIP3    H161542   6.969   7.735   7.762
20555TIP3    H261543   6.930   7.880   7.751
20556TIP3   OH261544   6.693   7.408   6.159
20556TIP3    H161545   6.735   7.345   6.218
20556TIP3    H261546   6.747   7.408   6.080
20557TIP3   OH261547   2.664   2.635   0.260
20557TIP3    H161548   2.657   2.557   0.314
20557TIP3    H261549   2.579   2.641   0.216
20558TIP3   OH261550   5.935   6.879   6.449
20558TIP3    H161551   5.985   6.848   6.525
20558TIP3    H261552   6.001   6.887   6.379
20559TIP3   OH261553   6.556   7.331   7.981
20559TIP3    H161554   6.483   7.356   7.925
20559TIP3    H261555   6.555   7.236   7.983
20560TIP3   OH261556   6.445   7.067   6.293
20560TIP3    H161557   6.452   7.094   6.384
20560TIP3    H261558   6.360   7.023   6.288
20561TIP3   OH261559   7.012   7.373   7.574
20561TIP3    H161560   7.093   7.413   7.541
20561TIP3    H261561   6.947   7.444   7.571
20562TIP3   OH261562   2.799   2.291   0.200
20562TIP3    H161563   2.892   2.269   0.205
20562TIP3    H261564   2.779   2.333   0.284
20563TIP3   OH261565   6.105   6.790   6.655
20563TIP3    H161566   6.074   6.775   6.744
20563TIP3    H261567   6.133   6.704   6.624
20564TIP3   OH261568   6.372   6.857   7.878
20564TIP3    H161569   6.301   6.920   7.891
20564TIP3    H261570   6.425   6.896   7.809
20565TIP3   OH261571   6.206   6.549   6.508
20565TIP3    H161572   6.187   6.497   6.431
20565TIP3    H261573   6.298   6.533   6.526
20566TIP3   OH261574   6.846   7.161   7.949
20566TIP3    H161575   6.895   7.087   7.914
20566TIP3    H261576   6.853   7.152   8.044
20567TIP3   OH261577   7.038   6.917   6.180
20567TIP3    H161578   7.025   6.879   6.093
20567TIP3    H261579   7.016   7.009   6.169
20568TIP3   OH261580   6.479   6.654   8.024
20568TIP3    H161581   6.498   6.581   7.964
20568TIP3    H261582   6.451   6.725   7.966
20569TIP3   OH261583   6.511   6.460   7.818
20569TIP3    H161584   6.538   6.495   7.734
20569TIP3    H261585   6.419   6.435   7.806
20570TIP3   OH261586   6.533   6.985   7.690
20570TIP3    H161587   6.610   6.975   7.634
20570TIP3    H261588   6.477   7.047   7.642
20571TIP3   OH261589   7.166   7.300   7.793
20571TIP3    H161590   7.112   7.309   7.715
20571TIP3    H261591   7.152   7.211   7.823
20572TIP3   OH261592   3.051   2.121   0.233
20572TIP3    H161593   3.012   2.036   0.253
20572TIP3    H261594   3.102   2.105   0.154
20573TIP3   OH261595   6.623   6.226   7.915
20573TIP3    H161596   6.582   6.307   7.884
20573TIP3    H261597   6.555   6.159   7.901
20574TIP3   OH261598   3.474   2.117   0.108
20574TIP3    H161599   3.528   2.069   0.171
20574TIP3    H261600   3.396   2.061   0.095
20575TIP3   OH261601   2.938   1.890   0.328
20575TIP3    H161602   2.941   1.807   0.281
20575TIP3    H261603   2.978   1.871   0.413
20576TIP3   OH261604   3.399   1.550   0.176
20576TIP3    H161605   3.472   1.488   0.171
20576TIP3    H261606   3.380   1.571   0.084
20577TIP3   OH261607   3.474   1.773   0.312
20577TIP3    H161608   3.447   1.698   0.260
20577TIP3    H261609   3.399   1.832   0.310
20578TIP3   OH261610   6.055   7.694   6.438
20578TIP3    H161611   6.141   7.669   6.405
20578TIP3    H261612   6.009   7.727   6.361
20579TIP3   OH261613   5.521   7.059   6.611
20579TIP3    H161614   5.617   7.068   6.611
20579TIP3    H261615   5.505   6.973   6.573
20580TIP3   OH261616   7.299   7.879   7.048
20580TIP3    H161617   7.328   7.898   7.137
20580TIP3    H261618   7.361   7.927   6.992
20581TIP3   OH261619   7.340   7.887   7.324
20581TIP3    H161620   7.293   7.805   7.314
20581TIP3    H261621   7.399   7.872   7.398
20582TIP3   OH261622   7.390   7.683   7.850
20582TIP3    H161623   7.384   7.588   7.866
20582TIP3    H261624   7.478   7.707   7.878
20583TIP3   OH261625   7.209   7.123   6.516
20583TIP3    H161626   7.265   7.196   6.488
20583TIP3    H261627   7.253   7.087   6.593
20584TIP3   OH261628   7.334   6.982   6.720
20584TIP3    H161629   7.270   6.945   6.780
20584TIP3    H261630   7.402   7.018   6.777
20585TIP3   OH261631   7.371   7.384   7.157
20585TIP3    H161632   7.427   7.320   7.114
20585TIP3    H261633   7.374   7.461   7.100
20586TIP3   OH261634   7.184   7.661   7.312
20586TIP3    H161635   7.121   7.714   7.363
20586TIP3    H261636   7.131   7.619   7.245
20587TIP3   OH261637   7.238   6.895   6.368
20587TIP3    H161638   7.168   6.899   6.302
20587TIP3    H261639   7.226   6.974   6.420
20588TIP3   OH261640   7.054   6.581   6.307
20588TIP3    H161641   7.104   6.605   6.229
20588TIP3    H261642   7.046   6.486   6.302
20589TIP3   OH261643   7.133   6.844   6.862
20589TIP3    H161644   7.137   6.750   6.850
20589TIP3    H261645   7.112   6.856   6.955
20590TIP3   OH261646   5.738   6.894   7.641
20590TIP3    H161647   5.730   6.868   7.550
20590TIP3    H261648   5.832   6.889   7.660
20591TIP3   OH261649   7.435   7.230   7.638
20591TIP3    H161650   7.499   7.161   7.656
20591TIP3    H261651   7.487   7.303   7.604
20592TIP3   OH261652   7.604   7.021   7.670
20592TIP3    H161653   7.523   6.973   7.689
20592TIP3    H261654   7.674   6.963   7.700
20593TIP3   OH261655   7.027   6.311   6.291
20593TIP3    H161656   7.102   6.273   6.336
20593TIP3    H261657   6.955   6.251   6.309
20594TIP3   OH261658   7.116   6.564   6.747
20594TIP3    H161659   7.162   6.481   6.759
20594TIP3    H261660   7.159   6.605   6.672
20595TIP3   OH261661   7.265   6.728   7.256
20595TIP3    H161662   7.346   6.742   7.207
20595TIP3    H261663   7.283   6.766   7.342
20596TIP3   OH261664   7.365   6.870   7.473
20596TIP3    H161665   7.326   6.890   7.558
20596TIP3    H261666   7.382   6.956   7.434
20597TIP3   OH261667   2.679   1.960   0.263
20597TIP3    H161668   2.773   1.956   0.281
20597TIP3    H261669   2.644   1.879   0.300
20598TIP3   OH261670   7.786   6.423   7.986
20598TIP3    H161671   7.837   6.362   7.932
20598TIP3    H261672   7.753   6.488   7.923
20599TIP3   OH261673   7.233   6.316   6.795
20599TIP3    H161674   7.279   6.303   6.878
20599TIP3    H261675   7.172   6.243   6.790
20600TIP3   OH261676   5.938   6.297   7.624
20600TIP3    H161677   5.992   6.218   7.630
20600TIP3    H261678   6.000   6.367   7.603
20601TIP3   OH261679   5.713   6.565   7.681
20601TIP3    H161680   5.768   6.556   7.603
20601TIP3    H261681   5.734   6.651   7.716
20602TIP3   OH261682   7.666   6.581   7.800
20602TIP3    H161683   7.600   6.633   7.846
20602TIP3    H261684   7.616   6.520   7.747
20603TIP3   OH261685   7.263   6.230   6.422
20603TIP3    H161686   7.312   6.168   6.368
20603TIP3    H261687   7.322   6.304   6.432
20604TIP3   OH261688   5.706   6.075   7.182
20604TIP3    H161689   5.621   6.064   7.225
20604TIP3    H261690   5.687   6.129   7.105
20605TIP3   OH261691   6.862   7.798   6.703
20605TIP3    H161692   6.919   7.788   6.627
20605TIP3    H261693   6.902   7.869   6.754
20606TIP3   OH261694   2.665   1.505   0.009
20606TIP3    H161695   2.614   1.500   0.090
20606TIP3    H261696   2.610   1.555  -0.051
20607TIP3   OH261697   2.701   2.921   0.030
20607TIP3    H161698   2.606   2.928   0.025
20607TIP3    H261699   2.717   2.886   0.118
20608TIP3   OH261700   6.173   7.627   7.621
20608TIP3    H161701   6.113   7.697   7.595
20608TIP3    H261702   6.253   7.643   7.571
20609TIP3   OH261703   6.655   7.937   7.662
20609TIP3    H161704   6.693   7.908   7.579
20609TIP3    H261705   6.728   7.973   7.711
20610TIP3   OH261706   7.562   6.328   7.692
20610TIP3    H161707   7.473   6.312   7.660
20610TIP3    H261708   7.603   6.241   7.695
20611TIP3   OH261709   5.828   7.869   7.669
20611TIP3    H161710   5.740   7.903   7.653
20611TIP3    H261711   5.819   7.816   7.748
20612TIP3   OH261712   6.059   7.858   7.526
20612TIP3    H161713   5.978   7.868   7.575
20612TIP3    H261714   6.036   7.878   7.436
20613TIP3   OH261715   6.476   7.888   7.310
20613TIP3    H161716   6.405   7.892   7.247
20613TIP3    H261717   6.476   7.975   7.352
20614TIP3   OH261718   6.737   7.875   7.409
20614TIP3    H161719   6.656   7.862   7.360
20614TIP3    H261720   6.794   7.922   7.348
20615TIP3   OH261721   6.944   8.002   7.258
20615TIP3    H161722   6.935   8.086   7.213
20615TIP3    H261723   6.966   7.940   7.188
20616TIP3   OH261724   5.752   7.682   7.435
20616TIP3    H161725   5.789   7.675   7.523
20616TIP3    H261726   5.814   7.635   7.379
20617TIP3   OH261727   5.947   7.551   7.300
20617TIP3    H161728   5.959   7.459   7.324
20617TIP3    H261729   6.035   7.583   7.283
20618TIP3   OH261730   6.220   7.621   7.266
20618TIP3    H161731   6.235   7.527   7.252
20618TIP3    H261732   6.273   7.643   7.342
20619TIP3   OH261733   6.775   6.266   7.363
20619TIP3    H161734   6.737   6.197   7.417
20619TIP3    H261735   6.844   6.222   7.313
20620TIP3   OH261736   7.277   6.187   7.251
20620TIP3    H161737   7.315   6.238   7.179
20620TIP3    H261738   7.185   6.214   7.254
20621TIP3   OH261739   7.392   6.269   7.016
20621TIP3    H161740   7.461   6.206   6.993
20621TIP3    H261741   7.432   6.355   7.002
20622TIP3   OH261742   6.012   5.968   7.367
20622TIP3    H161743   5.924   5.934   7.378
20622TIP3    H261744   6.068   5.890   7.358
20623TIP3   OH261745   5.836   5.882   7.019
20623TIP3    H161746   5.861   5.931   6.941
20623TIP3    H261747   5.798   5.947   7.078
20624TIP3   OH261748   6.497   6.008   7.261
20624TIP3    H161749   6.546   6.055   7.194
20624TIP3    H261750   6.536   6.035   7.343
20625TIP3   OH261751   6.988   6.142   7.237
20625TIP3    H161752   7.013   6.105   7.153
20625TIP3    H261753   6.997   6.070   7.299
20626TIP3   OH261754   7.048   6.105   6.803
20626TIP3    H161755   6.968   6.151   6.828
20626TIP3    H261756   7.040   6.018   6.842
20627TIP3   OH261757   5.944   6.009   6.778
20627TIP3    H161758   5.988   5.943   6.724
20627TIP3    H261759   6.014   6.063   6.813
20628TIP3   OH261760   6.432   6.206   6.877
20628TIP3    H161761   6.490   6.152   6.931
20628TIP3    H261762   6.444   6.295   6.910
20629TIP3   OH261763   6.305   7.609   6.364
20629TIP3    H161764   6.392   7.633   6.331
20629TIP3    H261765   6.279   7.534   6.310
20630TIP3   OH261766   7.013   7.746   6.476
20630TIP3    H161767   7.006   7.651   6.469
20630TIP3    H261768   6.971   7.780   6.397
20631TIP3   OH261769   2.963   1.625   0.235
20631TIP3    H161770   2.927   1.562   0.298
20631TIP3    H261771   3.055   1.632   0.258
20632TIP3   OH261772   3.205   1.608   0.364
20632TIP3    H161773   3.276   1.584   0.305
20632TIP3    H261774   3.209   1.543   0.435
20633TIP3   OH261775   5.629   7.466   6.450
20633TIP3    H161776   5.641   7.494   6.540
20633TIP3    H261777   5.707   7.413   6.430
20634TIP3   OH261778   4.016   1.660   0.100
20634TIP3    H161779   4.042   1.675   0.191
20634TIP3    H261780   4.091   1.689   0.048
20635TIP3   OH261781   7.212   7.885   7.650
20635TIP3    H161782   7.147   7.851   7.588
20635TIP3    H261783   7.205   7.980   7.641
20636TIP3   OH261784   8.461   7.313   6.487
20636TIP3    H161785   8.441   7.386   6.428
20636TIP3    H261786   8.419   7.237   6.447
20637TIP3   OH261787   8.449   7.213   6.781
20637TIP3    H161788   8.483   7.210   6.870
20637TIP3    H261789   8.409   7.127   6.767
20638TIP3   OH261790   7.801   7.123   7.186
20638TIP3    H161791   7.828   7.048   7.238
20638TIP3    H261792   7.857   7.195   7.216
20639TIP3   OH261793   8.688   7.529   6.553
20639TIP3    H161794   8.751   7.463   6.585
20639TIP3    H261795   8.732   7.569   6.478
20640TIP3   OH261796   7.817   7.537   6.859
20640TIP3    H161797   7.784   7.447   6.856
20640TIP3    H261798   7.861   7.544   6.943
20641TIP3   OH261799   7.478   6.754   6.633
20641TIP3    H161800   7.442   6.839   6.660
20641TIP3    H261801   7.402   6.704   6.602
20642TIP3   OH261802   7.565   7.064   6.856
20642TIP3    H161803   7.613   6.987   6.886
20642TIP3    H261804   7.632   7.130   6.839
20643TIP3   OH261805   8.418   7.992   6.517
20643TIP3    H161806   8.448   7.934   6.447
20643TIP3    H261807   8.430   7.942   6.597
20644TIP3   OH261808   9.311   6.793   6.831
20644TIP3    H161809   9.308   6.888   6.819
20644TIP3    H261810   9.362   6.761   6.756
20645TIP3   OH261811   8.716   6.984   6.861
20645TIP3    H161812   8.748   6.902   6.899
20645TIP3    H261813   8.675   6.958   6.779
20646TIP3   OH261814   8.082   6.626   6.816
20646TIP3    H161815   8.054   6.700   6.762
20646TIP3    H261816   8.024   6.554   6.791
20647TIP3   OH261817   8.777   6.724   6.455
20647TIP3    H161818   8.840   6.715   6.527
20647TIP3    H261819   8.828   6.757   6.382
20648TIP3   OH261820   7.701   6.845   6.954
20648TIP3    H161821   7.784   6.826   6.998
20648TIP3    H261822   7.704   6.791   6.875
20649TIP3   OH261823   8.120   7.037   6.745
20649TIP3    H161824   8.210   7.006   6.758
20649TIP3    H261825   8.071   6.958   6.720
20650TIP3   OH261826   8.056   6.633   7.282
20650TIP3    H161827   8.004   6.671   7.211
20650TIP3    H261828   8.001   6.642   7.359
20651TIP3   OH261829   8.397   7.494   6.291
20651TIP3    H161830   8.363   7.458   6.209
20651TIP3    H261831   8.344   7.572   6.308
20652TIP3   OH261832   8.163   7.424   7.010
20652TIP3    H161833   8.097   7.467   7.063
20652TIP3    H261834   8.156   7.465   6.924
20653TIP3   OH261835   8.921   6.744   6.688
20653TIP3    H161836   8.882   6.728   6.773
20653TIP3    H261837   8.982   6.817   6.702
20654TIP3   OH261838   7.947   6.732   7.042
20654TIP3    H161839   7.997   6.811   7.064
20654TIP3    H261840   7.998   6.690   6.973
20655TIP3   OH261841   7.953   7.577   7.108
20655TIP3    H161842   7.963   7.671   7.092
20655TIP3    H261843   7.882   7.572   7.171
20656TIP3   OH261844   7.373   7.319   6.401
20656TIP3    H161845   7.339   7.338   6.313
20656TIP3    H261846   7.395   7.404   6.437
20657TIP3   OH261847   9.129   6.648   7.002
20657TIP3    H161848   9.042   6.675   6.971
20657TIP3    H261849   9.190   6.688   6.939
20658TIP3   OH261850   8.385   6.327   6.998
20658TIP3    H161851   8.377   6.235   7.025
20658TIP3    H261852   8.310   6.370   7.039
20659TIP3   OH261853   8.523   7.855   6.296
20659TIP3    H161854   8.582   7.780   6.288
20659TIP3    H261855   8.579   7.931   6.276
20660TIP3   OH261856   8.663   7.616   6.273
20660TIP3    H161857   8.685   7.578   6.188
20660TIP3    H261858   8.587   7.565   6.302
20661TIP3   OH261859   8.361   7.137   6.281
20661TIP3    H161860   8.273   7.171   6.265
20661TIP3    H261861   8.398   7.125   6.193
20662TIP3   OH261862   8.303   6.923   5.938
20662TIP3    H161863   8.367   6.971   5.990
20662TIP3    H261864   8.354   6.858   5.890
20663TIP3   OH261865   8.675   7.222   6.219
20663TIP3    H161866   8.627   7.235   6.300
20663TIP3    H261867   8.758   7.183   6.246
20664TIP3   OH261868   7.917   7.179   6.619
20664TIP3    H161869   7.879   7.120   6.553
20664TIP3    H261870   7.991   7.130   6.655
20665TIP3   OH261871   8.120   7.557   6.774
20665TIP3    H161872   8.035   7.535   6.736
20665TIP3    H261873   8.148   7.636   6.728
20666TIP3   OH261874   8.033   7.179   6.965
20666TIP3    H161875   8.071   7.140   6.886
20666TIP3    H261876   8.086   7.258   6.981
20667TIP3   OH261877   8.497   7.824   6.729
20667TIP3    H161878   8.580   7.863   6.756
20667TIP3    H261879   8.520   7.737   6.698
20668TIP3   OH261880   8.052   7.728   7.348
20668TIP3    H161881   8.018   7.803   7.298
20668TIP3    H261882   8.064   7.659   7.282
20669TIP3   OH261883   8.522   7.063   6.051
20669TIP3    H161884   8.580   7.125   6.095
20669TIP3    H261885   8.546   7.068   5.959
20670TIP3   OH261886   7.934   7.279   7.401
20670TIP3    H161887   7.955   7.361   7.446
20670TIP3    H261888   7.847   7.256   7.432
20671TIP3   OH261889   8.271   7.739   6.313
20671TIP3    H161890   8.353   7.789   6.309
20671TIP3    H261891   8.210   7.789   6.258
20672TIP3   OH261892   9.036   6.288   6.106
20672TIP3    H161893   8.960   6.309   6.160
20672TIP3    H261894   9.043   6.362   6.045
20673TIP3   OH261895   7.794   7.020   6.418
20673TIP3    H161896   7.716   7.067   6.389
20673TIP3    H261897   7.763   6.933   6.441
20674TIP3   OH261898   8.865   7.667   5.651
20674TIP3    H161899   8.860   7.761   5.633
20674TIP3    H261900   8.954   7.642   5.624
20675TIP3   OH261901   7.575   7.424   7.350
20675TIP3    H161902   7.504   7.405   7.289
20675TIP3    H261903   7.612   7.338   7.371
20676TIP3   OH261904   7.410   7.623   7.012
20676TIP3    H161905   7.494   7.658   7.040
20676TIP3    H261906   7.347   7.693   7.030
20677TIP3   OH261907   8.155   7.930   6.130
20677TIP3    H161908   8.118   7.905   6.045
20677TIP3    H261909   8.117   8.016   6.148
20678TIP3   OH261910   7.596   7.803   6.507
20678TIP3    H161911   7.641   7.791   6.590
20678TIP3    H261912   7.546   7.722   6.495
20679TIP3   OH261913   8.365   7.886   5.764
20679TIP3    H161914   8.416   7.816   5.724
20679TIP3    H261915   8.404   7.899   5.850
20680TIP3   OH261916   8.413   7.932   6.037
20680TIP3    H161917   8.323   7.929   6.071
20680TIP3    H261918   8.467   7.896   6.107
20681TIP3   OH261919   7.743   7.625   7.276
20681TIP3    H161920   7.752   7.676   7.356
20681TIP3    H261921   7.686   7.552   7.301
20682TIP3   OH261922   8.158   6.423   7.131
20682TIP3    H161923   8.072   6.391   7.102
20682TIP3    H261924   8.137   6.498   7.187
20683TIP3   OH261925   8.592   7.065   5.789
20683TIP3    H161926   8.547   7.052   5.706
20683TIP3    H261927   8.678   7.100   5.765
20684TIP3   OH261928   8.309   6.457   6.102
20684TIP3    H161929   8.271   6.466   6.190
20684TIP3    H261930   8.273   6.374   6.070
20685TIP3   OH261931   8.089   6.953   7.115
20685TIP3    H161932   8.059   6.966   7.206
20685TIP3    H261933   8.064   7.034   7.071
20686TIP3   OH261934   7.971   6.824   6.661
20686TIP3    H161935   7.883   6.798   6.688
20686TIP3    H261936   7.979   6.791   6.571
20687TIP3   OH261937   8.460   6.906   6.395
20687TIP3    H161938   8.419   6.985   6.359
20687TIP3    H261939   8.513   6.872   6.323
20688TIP3   OH261940   8.632   6.901   6.611
20688TIP3    H161941   8.560   6.918   6.550
20688TIP3    H261942   8.679   6.827   6.572
20689TIP3   OH261943   7.920   6.932   7.352
20689TIP3    H161944   7.982   6.981   7.407
20689TIP3    H261945   7.901   6.853   7.402
20690TIP3   OH261946   7.977   6.438   6.078
20690TIP3    H161947   7.969   6.442   6.173
20690TIP3    H261948   7.897   6.480   6.045
20691TIP3   OH261949   7.526   6.487   6.933
20691TIP3    H161950   7.598   6.521   6.986
20691TIP3    H261951   7.567   6.461   6.850
20692TIP3   OH261952   7.417   6.461   6.446
20692TIP3    H161953   7.463   6.499   6.371
20692TIP3    H261954   7.355   6.529   6.473
20693TIP3   OH261955   8.588   7.173   7.014
20693TIP3    H161956   8.639   7.110   6.961
20693TIP3    H261957   8.581   7.132   7.100
20694TIP3   OH261958   8.352   6.627   6.721
20694TIP3    H161959   8.270   6.622   6.770
20694TIP3    H261960   8.420   6.609   6.786
20695TIP3   OH261961   7.734   6.702   6.722
20695TIP3    H161962   7.647   6.706   6.685
20695TIP3    H261963   7.762   6.611   6.709
20696TIP3   OH261964   7.991   6.708   6.413
20696TIP3    H161965   8.086   6.717   6.404
20696TIP3    H261966   7.957   6.725   6.326
20697TIP3   OH261967   8.787   6.725   6.947
20697TIP3    H161968   8.776   6.735   7.042
20697TIP3    H261969   8.722   6.660   6.922
20698TIP3   OH261970   7.882   6.731   6.163
20698TIP3    H161971   7.820   6.680   6.110
20698TIP3    H261972   7.935   6.778   6.099
20699TIP3   OH261973   7.979   7.527   7.524
20699TIP3    H161974   7.996   7.608   7.477
20699TIP3    H261975   7.904   7.546   7.580
20700TIP3   OH261976   8.375   6.945   6.798
20700TIP3    H161977   8.426   6.874   6.759
20700TIP3    H261978   8.372   6.924   6.891
20701TIP3   OH261979   7.879   6.454   6.710
20701TIP3    H161980   7.852   6.380   6.763
20701TIP3    H261981   7.899   6.417   6.624
20702TIP3   OH261982   8.358   6.898   7.068
20702TIP3    H161983   8.270   6.929   7.091
20702TIP3    H261984   8.416   6.946   7.127
20703TIP3   OH261985   8.108   7.240   6.221
20703TIP3    H161986   8.033   7.188   6.193
20703TIP3    H261987   8.077   7.286   6.299
20704TIP3   OH261988   8.562   6.557   6.116
20704TIP3    H161989   8.469   6.534   6.105
20704TIP3    H261990   8.562   6.653   6.120
20705TIP3   OH261991   8.616   6.829   6.176
20705TIP3    H161992   8.711   6.827   6.179
20705TIP3    H261993   8.595   6.903   6.119
20706TIP3   OH261994   7.783   7.247   6.853
20706TIP3    H161995   7.824   7.232   6.767
20706TIP3    H261996   7.849   7.218   6.916
20707TIP3   OH261997   8.260   7.399   6.058
20707TIP3    H161998   8.210   7.480   6.048
20707TIP3    H261999   8.202   7.341   6.108
20708TIP3   OH262000   7.670   7.187   7.461
20708TIP3    H162001   7.676   7.136   7.542
20708TIP3    H262002   7.599   7.145   7.412
20709TIP3   OH262003   2.862   1.544   1.857
20709TIP3    H162004   2.849   1.535   1.763
20709TIP3    H262005   2.805   1.617   1.882
20710TIP3   OH262006   9.016   6.918   5.981
20710TIP3    H162007   8.958   6.874   5.918
20710TIP3    H262008   9.026   7.007   5.945
20711TIP3   OH262009   8.762   7.703   5.909
20711TIP3    H162010   8.737   7.619   5.946
20711TIP3    H262011   8.796   7.683   5.822
20712TIP3   OH262012   8.717   7.290   6.703
20712TIP3    H162013   8.731   7.266   6.794
20712TIP3    H262014   8.766   7.225   6.653
20713TIP3   OH262015   7.928   7.610   6.549
20713TIP3    H162016   7.914   7.677   6.482
20713TIP3    H262017   7.846   7.611   6.600
20714TIP3   OH262018   7.476   6.888   6.230
20714TIP3    H162019   7.518   6.971   6.252
20714TIP3    H262020   7.396   6.887   6.283
20715TIP3   OH262021   8.009   7.368   6.438
20715TIP3    H162022   7.992   7.456   6.472
20715TIP3    H262023   7.976   7.310   6.506
20716TIP3   OH262024   8.181   7.949   6.926
20716TIP3    H162025   8.180   8.042   6.949
20716TIP3    H262026   8.273   7.923   6.934
20717TIP3   OH262027   7.839   7.815   6.377
20717TIP3    H162028   7.750   7.822   6.410
20717TIP3    H262029   7.867   7.906   6.367
20718TIP3   OH262030   8.501   7.498   6.799
20718TIP3    H162031   8.416   7.515   6.838
20718TIP3    H262032   8.564   7.524   6.866
20719TIP3   OH262033   8.554   7.469   5.813
20719TIP3    H162034   8.588   7.456   5.902
20719TIP3    H262035   8.470   7.423   5.812
20720TIP3   OH262036   8.863   7.941   5.628
20720TIP3    H162037   8.910   8.012   5.585
20720TIP3    H262038   8.782   7.981   5.660
20721TIP3   OH262039   7.872   6.688   7.486
20721TIP3    H162040   7.779   6.702   7.504
20721TIP3    H262041   7.900   6.627   7.553
20722TIP3   OH262042   8.707   7.442   6.049
20722TIP3    H162043   8.682   7.367   6.104
20722TIP3    H262044   8.800   7.426   6.029
20723TIP3   OH262045   7.608   7.804   7.113
20723TIP3    H162046   7.662   7.748   7.168
20723TIP3    H262047   7.615   7.891   7.153
20724TIP3   OH262048   7.897   7.427   5.826
20724TIP3    H162049   7.904   7.335   5.799
20724TIP3    H262050   7.880   7.422   5.920
20725TIP3   OH262051   7.835   7.444   6.097
20725TIP3    H162052   7.896   7.417   6.166
20725TIP3    H262053   7.834   7.540   6.102
20726TIP3   OH262054   7.568   7.139   6.310
20726TIP3    H162055   7.504   7.189   6.363
20726TIP3    H262056   7.587   7.196   6.236
20727TIP3   OH262057   8.729   6.764   7.229
20727TIP3    H162058   8.807   6.776   7.284
20727TIP3    H262059   8.663   6.730   7.289
20728TIP3   OH262060   8.622   6.509   6.380
20728TIP3    H162061   8.599   6.524   6.288
20728TIP3    H262062   8.669   6.587   6.407
20729TIP3   OH262063   8.110   7.624   6.039
20729TIP3    H162064   8.026   7.649   6.078
20729TIP3    H262065   8.130   7.694   5.976
20730TIP3   OH262066   8.274   6.713   6.466
20730TIP3    H162067   8.335   6.781   6.439
20730TIP3    H262068   8.297   6.694   6.557
20731TIP3   OH262069   8.570   7.002   7.224
20731TIP3    H162070   8.565   7.015   7.319
20731TIP3    H262071   8.628   6.927   7.214
20732TIP3   OH262072   8.431   6.413   6.553
20732TIP3    H162073   8.410   6.490   6.605
20732TIP3    H262074   8.502   6.441   6.495
20733TIP3   OH262075   7.862   7.714   6.121
20733TIP3    H162076   7.842   7.786   6.061
20733TIP3    H262077   7.853   7.752   6.208
20734TIP3   OH262078   7.946   6.434   6.357
20734TIP3    H162079   7.933   6.525   6.385
20734TIP3    H262080   8.040   6.419   6.364
20735TIP3   OH262081   8.849   7.078   6.592
20735TIP3    H162082   8.779   7.014   6.604
20735TIP3    H262083   8.921   7.046   6.646
20736TIP3   OH262084   7.591   7.311   6.091
20736TIP3    H162085   7.661   7.375   6.098
20736TIP3    H262086   7.623   7.248   6.026
20737TIP3   OH262087   7.496   6.609   6.231
20737TIP3    H162088   7.505   6.704   6.238
20737TIP3    H262089   7.499   6.591   6.137
20738TIP3   OH262090   7.899   6.331   7.090
20738TIP3    H162091   7.870   6.298   7.005
20738TIP3    H262092   7.892   6.256   7.148
20739TIP3   OH262093   7.416   7.585   6.484
20739TIP3    H162094   7.378   7.622   6.564
20739TIP3    H262095   7.369   7.629   6.413
20740TIP3   OH262096   8.046   7.630   5.717
20740TIP3    H162097   7.999   7.558   5.759
20740TIP3    H262098   8.121   7.588   5.674
20741TIP3   OH262099   8.491   7.676   5.640
20741TIP3    H162100   8.533   7.613   5.699
20741TIP3    H262101   8.542   7.671   5.559
20742TIP3   OH262102   7.771   7.507   7.705
20742TIP3    H162103   7.788   7.414   7.716
20742TIP3    H262104   7.679   7.512   7.678
20743TIP3   OH262105   7.716   7.121   5.940
20743TIP3    H162106   7.769   7.101   6.017
20743TIP3    H262107   7.780   7.134   5.870
20744TIP3   OH262108   8.309   7.345   5.789
20744TIP3    H162109   8.282   7.353   5.881
20744TIP3    H262110   8.284   7.256   5.764
20745TIP3   OH262111   7.841   7.245   7.748
20745TIP3    H162112   7.867   7.163   7.706
20745TIP3    H262113   7.815   7.219   7.836
20746TIP3   OH262114   7.894   7.072   6.154
20746TIP3    H162115   7.870   7.039   6.240
20746TIP3    H262116   7.941   7.000   6.112
20747TIP3   OH262117   8.150   7.114   7.354
20747TIP3    H162118   8.085   7.180   7.376
20747TIP3    H262119   8.208   7.158   7.291
20748TIP3   OH262120   8.031   6.888   5.994
20748TIP3    H162121   7.999   6.890   5.904
20748TIP3    H262122   8.126   6.896   5.987
20749TIP3   OH262123   8.821   7.173   5.676
20749TIP3    H162124   8.805   7.129   5.592
20749TIP3    H262125   8.801   7.265   5.659
20750TIP3   OH262126   8.293   6.923   7.484
20750TIP3    H162127   8.307   6.847   7.428
20750TIP3    H262128   8.247   6.986   7.428
20751TIP3   OH262129   8.318   6.726   7.292
20751TIP3    H162130   8.330   6.755   7.202
20751TIP3    H262131   8.232   6.684   7.293
20752TIP3   OH262132   8.306   7.235   7.159
20752TIP3    H162133   8.398   7.241   7.133
20752TIP3    H262134   8.263   7.306   7.112
20753TIP3   OH262135   8.177   7.042   7.703
20753TIP3    H162136   8.123   6.970   7.734
20753TIP3    H262137   8.211   7.012   7.619
20754TIP3   OH262138   8.565   6.982   7.494
20754TIP3    H162139   8.602   6.913   7.550
20754TIP3    H262140   8.471   6.977   7.509
20755TIP3   OH262141   8.052   6.803   7.749
20755TIP3    H162142   8.105   6.731   7.716
20755TIP3    H262143   8.020   6.773   7.834
20756TIP3   OH262144   8.608   6.755   7.645
20756TIP3    H162145   8.662   6.734   7.720
20756TIP3    H262146   8.520   6.767   7.681
20757TIP3   OH262147   7.856   7.919   5.936
20757TIP3    H162148   7.944   7.902   5.905
20757TIP3    H262149   7.813   7.965   5.863
20758TIP3   OH262150   7.317   7.313   6.108
20758TIP3    H162151   7.412   7.324   6.104
20758TIP3    H262152   7.301   7.228   6.068
20759TIP3   OH262153   7.223   7.893   6.574
20759TIP3    H162154   7.157   7.841   6.527
20759TIP3    H262155   7.266   7.831   6.632
20760TIP3   OH262156   7.366   7.718   6.735
20760TIP3    H162157   7.359   7.652   6.804
20760TIP3    H262158   7.422   7.786   6.774
20761TIP3   OH262159   8.972   7.383   6.013
20761TIP3    H162160   9.031   7.444   5.970
20761TIP3    H262161   9.023   7.347   6.086
20762TIP3   OH262162   9.105   7.248   6.213
20762TIP3    H162163   9.038   7.200   6.262
20762TIP3    H262164   9.177   7.260   6.275
20763TIP3   OH262165   9.025   7.161   5.856
20763TIP3    H162166   8.956   7.158   5.790
20763TIP3    H262167   9.004   7.238   5.909
20764TIP3   OH262168   8.858   6.813   5.787
20764TIP3    H162169   8.824   6.840   5.702
20764TIP3    H262170   8.853   6.717   5.786
20765TIP3   OH262171   8.899   7.092   6.323
20765TIP3    H162172   8.910   7.000   6.297
20765TIP3    H262173   8.890   7.089   6.418
20766TIP3   OH262174   7.545   7.177   7.104
20766TIP3    H162175   7.536   7.139   7.016
20766TIP3    H262176   7.637   7.165   7.126
20767TIP3   OH262177   8.830   6.544   5.775
20767TIP3    H162178   8.902   6.508   5.827
20767TIP3    H262179   8.753   6.494   5.803
20768TIP3   OH262180   8.911   6.823   6.222
20768TIP3    H162181   8.957   6.741   6.237
20768TIP3    H262182   8.947   6.857   6.140
20769TIP3   OH262183   9.057   6.982   6.747
20769TIP3    H162184   9.144   7.002   6.713
20769TIP3    H262185   9.063   7.000   6.840
20770TIP3   OH262186   7.779   6.839   7.753
20770TIP3    H162187   7.874   6.836   7.744
20770TIP3    H262188   7.755   6.750   7.780
20771TIP3   OH262189   9.024   6.578   6.283
20771TIP3    H162190   9.074   6.563   6.363
20771TIP3    H262191   8.965   6.503   6.277
20772TIP3   OH262192   7.735   6.554   7.101
20772TIP3    H162193   7.788   6.474   7.111
20772TIP3    H262194   7.799   6.623   7.087
20773TIP3   OH262195   7.513   6.809   7.161
20773TIP3    H162196   7.568   6.809   7.083
20773TIP3    H262197   7.551   6.876   7.218
20774TIP3   OH262198   9.066   6.480   5.912
20774TIP3    H162199   9.112   6.423   5.852
20774TIP3    H262200   9.117   6.561   5.914
20775TIP3   OH262201   7.504   6.332   6.671
20775TIP3    H162202   7.420   6.317   6.716
20775TIP3    H262203   7.481   6.384   6.594
20776TIP3   OH262204   8.657   8.073   6.203
20776TIP3    H162205   8.677   8.034   6.118
20776TIP3    H262206   8.728   8.136   6.218
20777TIP3   OH262207   7.703   6.342   7.447
20777TIP3    H162208   7.667   6.351   7.535
20777TIP3    H262209   7.652   6.402   7.394
20778TIP3   OH262210   7.721   7.769   7.504
20778TIP3    H162211   7.629   7.790   7.517
20778TIP3    H262212   7.766   7.810   7.577
20779TIP3   OH262213   7.979   7.847   7.088
20779TIP3    H162214   7.910   7.909   7.065
20779TIP3    H262215   8.055   7.876   7.037
20780TIP3   OH262216   9.258   6.544   7.227
20780TIP3    H162217   9.222   6.588   7.150
20780TIP3    H262218   9.333   6.494   7.195
20781TIP3   OH262219   7.602   8.087   7.162
20781TIP3    H162220   7.521   8.135   7.148
20781TIP3    H262221   7.639   8.125   7.242
20782TIP3   OH262222   7.816   8.042   6.988
20782TIP3    H162223   7.740   8.066   7.040
20782TIP3    H262224   7.817   8.106   6.917
20783TIP3   OH262225   7.541   7.897   6.865
20783TIP3    H162226   7.563   7.873   6.955
20783TIP3    H262227   7.615   7.867   6.813
20784TIP3   OH262228   7.751   7.777   6.735
20784TIP3    H162229   7.771   7.699   6.787
20784TIP3    H262230   7.833   7.827   6.735
20785TIP3   OH262231   8.005   7.905   6.713
20785TIP3    H162232   8.063   7.864   6.650
20785TIP3    H262233   8.058   7.916   6.792
20786TIP3   OH262234   8.574   6.529   6.871
20786TIP3    H162235   8.526   6.455   6.908
20786TIP3    H262236   8.644   6.489   6.819
20787TIP3   OH262237   9.073   6.437   6.726
20787TIP3    H162238   9.109   6.491   6.656
20787TIP3    H262239   8.981   6.464   6.733
20788TIP3   OH262240   9.191   6.530   6.495
20788TIP3    H162241   9.257   6.462   6.477
20788TIP3    H262242   9.236   6.612   6.476
20789TIP3   OH262243   7.808   6.226   6.850
20789TIP3    H162244   7.720   6.191   6.864
20789TIP3    H262245   7.863   6.148   6.841
20790TIP3   OH262246   7.629   6.138   6.505
20790TIP3    H162247   7.655   6.187   6.427
20790TIP3    H262248   7.594   6.204   6.564
20791TIP3   OH262249   8.289   6.257   6.741
20791TIP3    H162250   8.337   6.308   6.675
20791TIP3    H262251   8.324   6.288   6.824
20792TIP3   OH262252   8.782   6.405   6.737
20792TIP3    H162253   8.790   6.366   6.650
20792TIP3    H262254   8.796   6.332   6.797
20793TIP3   OH262255   8.845   6.364   6.291
20793TIP3    H162256   8.764   6.409   6.316
20793TIP3    H262257   8.836   6.276   6.328
20794TIP3   OH262258   7.292   7.706   6.271
20794TIP3    H162259   7.209   7.675   6.234
20794TIP3    H262260   7.301   7.796   6.239
20795TIP3   OH262261   7.737   6.267   6.265
20795TIP3    H162262   7.783   6.203   6.211
20795TIP3    H262263   7.806   6.322   6.302
20796TIP3   OH262264   8.220   6.463   6.365
20796TIP3    H162265   8.277   6.407   6.418
20796TIP3    H262266   8.238   6.552   6.396
20797TIP3   OH262267   8.112   7.848   5.864
20797TIP3    H162268   8.193   7.879   5.824
20797TIP3    H262269   8.080   7.781   5.803
20798TIP3   OH262270   8.761   7.972   5.967
20798TIP3    H162271   8.767   7.878   5.952
20798TIP3    H262272   8.729   8.007   5.883
20799TIP3   OH262273   7.982   6.492   7.663
20799TIP3    H162274   7.955   6.426   7.727
20799TIP3    H262275   8.069   6.520   7.692
20800TIP3   OH262276   8.233   6.588   7.739
20800TIP3    H162277   8.297   6.658   7.724
20800TIP3    H262278   8.284   6.518   7.779
20801TIP3   OH262279   7.417   7.697   5.919
20801TIP3    H162280   7.420   7.713   6.014
20801TIP3    H262281   7.498   7.650   5.900
20802TIP3   OH262282   9.242   7.022   6.117
20802TIP3    H162283   9.202   7.107   6.139
20802TIP3    H262284   9.172   6.973   6.075
20803TIP3   OH262285   9.339   7.263   6.358
20803TIP3    H162286   9.391   7.198   6.405
20803TIP3    H262287   9.403   7.310   6.304
20804TIP3   OH262288   9.746   6.929   6.400
20804TIP3    H162289   9.772   6.975   6.321
20804TIP3    H262290   9.729   6.839   6.371
20805TIP3   OH262291   9.505   7.061   6.466
20805TIP3    H162292   9.600   7.047   6.475
20805TIP3    H262293   9.484   7.024   6.380
20806TIP3   OH262294   9.141   7.544   5.871
20806TIP3    H162295   9.117   7.566   5.781
20806TIP3    H262296   9.167   7.627   5.911
20807TIP3   OH262297   0.289   7.380   5.633
20807TIP3    H162298   0.222   7.446   5.649
20807TIP3    H262299   0.367   7.413   5.678
20808TIP3   OH262300   0.271   7.172   5.455
20808TIP3    H162301   0.281   7.249   5.511
20808TIP3    H262302   0.316   7.102   5.502
20809TIP3   OH262303   9.584   7.257   5.869
20809TIP3    H162304   9.501   7.302   5.855
20809TIP3    H262305   9.560   7.174   5.910
20810TIP3   OH262306   0.208   6.727   5.610
20810TIP3    H162307   0.209   6.724   5.705
20810TIP3    H262308   0.166   6.645   5.584
20811TIP3   OH262309   9.751   7.041   6.147
20811TIP3    H162310   9.659   7.037   6.170
20811TIP3    H262311   9.755   7.012   6.056
20812TIP3   OH262312   9.715   6.711   5.560
20812TIP3    H162313   9.717   6.712   5.655
20812TIP3    H262314   9.643   6.770   5.537
20813TIP3   OH262315   9.333   6.746   6.418
20813TIP3    H162316   9.391   6.771   6.490
20813TIP3    H262317   9.392   6.735   6.343
20814TIP3   OH262318   9.204   6.719   5.928
20814TIP3    H162319   9.257   6.756   5.857
20814TIP3    H262320   9.141   6.789   5.948
20815TIP3   OH262321   9.493   6.971   6.207
20815TIP3    H162322   9.406   6.986   6.169
20815TIP3    H262323   9.507   6.877   6.197
20816TIP3   OH262324   9.735   6.952   5.887
20816TIP3    H162325   9.827   6.970   5.873
20816TIP3    H262326   9.692   6.974   5.804
20817TIP3   OH262327   9.628   6.996   5.641
20817TIP3    H162328   9.561   6.957   5.585
20817TIP3    H262329   9.690   7.036   5.580
20818TIP3   OH262330   9.526   6.697   6.217
20818TIP3    H162331   9.574   6.624   6.256
20818TIP3    H262332   9.455   6.656   6.168
20819TIP3   OH262333   0.050   7.530   5.698
20819TIP3    H162334  -0.004   7.459   5.664
20819TIP3    H262335   0.043   7.521   5.793
20820TIP3   OH262336   0.647   6.879   5.584
20820TIP3    H162337   0.641   6.818   5.657
20820TIP3    H262338   0.643   6.965   5.624
20821TIP3   OH262339   9.262   7.141   5.714
20821TIP3    H162340   9.306   7.224   5.733
20821TIP3    H262341   9.182   7.144   5.767
20822TIP3   OH262342   9.769   7.666   5.327
20822TIP3    H162343   9.736   7.582   5.293
20822TIP3    H262344   9.717   7.682   5.406
20823TIP3   OH262345   9.655   7.697   5.581
20823TIP3    H162346   9.726   7.647   5.621
20823TIP3    H262347   9.667   7.787   5.613
20824TIP3   OH262348   9.356   7.391   5.788
20824TIP3    H162349   9.284   7.434   5.835
20824TIP3    H262350   9.380   7.454   5.720
20825TIP3   OH262351   0.724   6.856   5.862
20825TIP3    H162352   0.702   6.768   5.893
20825TIP3    H262353   0.647   6.909   5.882
20826TIP3   OH262354   0.204   6.997   5.915
20826TIP3    H162355   0.293   7.005   5.879
20826TIP3    H262356   0.200   7.064   5.984
20827TIP3   OH262357   0.446   6.756   6.115
20827TIP3    H162358   0.512   6.792   6.174
20827TIP3    H262359   0.488   6.677   6.079
20828TIP3   OH262360   9.729   6.681   5.835
20828TIP3    H162361   9.714   6.769   5.871
20828TIP3    H262362   9.819   6.660   5.862
20829TIP3   OH262363   9.393   7.578   5.581
20829TIP3    H162364   9.465   7.641   5.585
20829TIP3    H262365   9.422   7.514   5.515
20830TIP3   OH262366   9.300   6.867   5.722
20830TIP3    H162367   9.302   6.963   5.724
20830TIP3    H262368   9.280   6.846   5.631
20831TIP3   OH262369   9.656   6.580   6.587
20831TIP3    H162370   9.645   6.541   6.501
20831TIP3    H262371   9.672   6.506   6.645
20832TIP3   OH262372   9.207   7.791   5.962
20832TIP3    H162373   9.217   7.850   6.037
20832TIP3    H262374   9.179   7.848   5.891
20833TIP3   OH262375   0.088   7.866   5.173
20833TIP3    H162376   0.044   7.806   5.234
20833TIP3    H262377   0.169   7.821   5.150
20834TIP3   OH262378   9.504   7.383   5.425
20834TIP3    H162379   9.556   7.357   5.500
20834TIP3    H262380   9.568   7.401   5.356
20835TIP3   OH262381   0.228   7.601   5.248
20835TIP3    H162382   0.147   7.628   5.291
20835TIP3    H262383   0.219   7.506   5.238
20836TIP3   OH262384   9.687   7.324   5.626
20836TIP3    H162385   9.655   7.291   5.710
20836TIP3    H262386   9.728   7.248   5.584
20837TIP3   OH262387  -0.002   7.125   5.471
20837TIP3    H162388  -0.032   7.138   5.382
20837TIP3    H262389   0.093   7.135   5.466
20838TIP3   OH262390   7.202   7.114   7.565
20838TIP3    H162391   7.280   7.157   7.600
20838TIP3    H262392   7.176   7.168   7.490
20839TIP3   OH262393   9.117   7.572   5.584
20839TIP3    H162394   9.212   7.584   5.584
20839TIP3    H262395   9.104   7.485   5.545
20840TIP3   OH262396   8.882   8.197   6.077
20840TIP3    H162397   8.865   8.113   6.034
20840TIP3    H262398   8.959   8.231   6.031
20841TIP3   OH262399   9.503   6.795   6.628
20841TIP3    H162400   9.555   6.715   6.625
20841TIP3    H262401   9.566   6.865   6.613
20842TIP3   OH262402   9.320   7.051   6.693
20842TIP3    H162403   9.368   7.020   6.616
20842TIP3    H262404   9.354   7.138   6.709
20843TIP3   OH262405   9.287   6.578   6.142
20843TIP3    H162406   9.208   6.570   6.196
20843TIP3    H262407   9.260   6.631   6.067
20844TIP3   OH262408   9.497   6.609   6.940
20844TIP3    H162409   9.525   6.635   7.027
20844TIP3    H262410   9.435   6.676   6.914
20845TIP3   OH262411   9.601   6.465   6.343
20845TIP3    H162412   9.516   6.425   6.361
20845TIP3    H262413   9.660   6.392   6.327
20846TIP3   OH262414   9.427   6.388   5.999
20846TIP3    H162415   9.447   6.440   5.921
20846TIP3    H262416   9.378   6.448   6.055
20847TIP3   OH262417   0.234   6.588   6.220
20847TIP3    H162418   0.303   6.648   6.193
20847TIP3    H262419   0.190   6.633   6.293
20848TIP3   OH262420   9.106   7.950   5.768
20848TIP3    H162421   9.019   7.920   5.741
20848TIP3    H262422   9.117   8.034   5.724
20849TIP3   OH262423   9.498   6.542   5.775
20849TIP3    H162424   9.533   6.474   5.718
20849TIP3    H262425   9.576   6.591   5.804
20850TIP3   OH262426   0.204   6.715   5.884
20850TIP3    H162427   0.264   6.669   5.943
20850TIP3    H262428   0.207   6.806   5.913
20851TIP3   OH262429   9.189   7.963   5.391
20851TIP3    H162430   9.189   7.995   5.481
20851TIP3    H262431   9.275   7.922   5.380
20852TIP3   OH262432   8.246   2.995   0.466
20852TIP3    H162433   8.284   2.912   0.494
20852TIP3    H262434   8.264   3.000   0.372
20853TIP3   OH262435   7.644   3.188   0.597
20853TIP3    H162436   7.674   3.105   0.633
20853TIP3    H262437   7.602   3.165   0.514
20854TIP3   OH262438   7.701   2.856   0.091
20854TIP3    H162439   7.746   2.915   0.152
20854TIP3    H262440   7.712   2.898   0.006
20855TIP3   OH262441   8.392   3.284   0.827
20855TIP3    H162442   8.368   3.341   0.754
20855TIP3    H262443   8.386   3.196   0.792
20856TIP3   OH262444   7.872   2.960   0.279
20856TIP3    H162445   7.923   2.893   0.325
20856TIP3    H262446   7.933   2.997   0.215
20857TIP3   OH262447   8.065   2.895   0.662
20857TIP3    H162448   8.006   2.963   0.630
20857TIP3    H262449   8.153   2.929   0.646
20858TIP3   OH262450   0.713   6.605   5.984
20858TIP3    H162451   0.720   6.515   6.015
20858TIP3    H262452   0.769   6.655   6.043
20859TIP3   OH262453   8.183   3.502   0.385
20859TIP3    H162454   8.144   3.555   0.454
20859TIP3    H262455   8.236   3.563   0.334
20860TIP3   OH262456   1.127   8.045   7.903
20860TIP3    H162457   1.108   8.095   7.982
20860TIP3    H262458   1.207   7.997   7.923
20861TIP3   OH262459   1.060   7.810   7.750
20861TIP3    H162460   1.072   7.896   7.790
20861TIP3    H262461   1.036   7.829   7.659
20862TIP3   OH262462   1.484   7.047   7.733
20862TIP3    H162463   1.403   7.057   7.782
20862TIP3    H262464   1.503   7.135   7.698
20863TIP3   OH262465   1.317   8.468   7.349
20863TIP3    H162466   1.315   8.561   7.327
20863TIP3    H262467   1.403   8.438   7.319
20864TIP3   OH262468   7.655   2.762   1.133
20864TIP3    H162469   7.722   2.717   1.185
20864TIP3    H262470   7.580   2.703   1.134
20865TIP3   OH262471   1.034   7.811   7.450
20865TIP3    H162472   0.992   7.810   7.363
20865TIP3    H262473   1.109   7.869   7.440
20866TIP3   OH262474   7.551   3.077   0.365
20866TIP3    H162475   7.457   3.096   0.366
20866TIP3    H262476   7.581   3.111   0.281
20867TIP3   OH262477   7.724   2.927   0.621
20867TIP3    H162478   7.711   2.881   0.704
20867TIP3    H262479   7.700   2.862   0.554
20868TIP3   OH262480   1.533   7.712   7.670
20868TIP3    H162481   1.457   7.666   7.636
20868TIP3    H262482   1.531   7.798   7.627
20869TIP3   OH262483   1.215   8.479   7.608
20869TIP3    H162484   1.194   8.390   7.636
20869TIP3    H262485   1.250   8.468   7.519
20870TIP3   OH262486   1.324   8.761   7.306
20870TIP3    H162487   1.381   8.838   7.310
20870TIP3    H262488   1.266   8.778   7.232
20871TIP3   OH262489   1.181   8.204   7.661
20871TIP3    H162490   1.143   8.160   7.737
20871TIP3    H262491   1.275   8.189   7.667
20872TIP3   OH262492   7.701   2.802   0.858
20872TIP3    H162493   7.789   2.832   0.885
20872TIP3    H262494   7.661   2.772   0.939
20873TIP3   OH262495   1.042   7.269   7.936
20873TIP3    H162496   0.965   7.223   7.970
20873TIP3    H262497   1.066   7.331   8.005
20874TIP3   OH262498   8.155   3.017   0.927
20874TIP3    H162499   8.074   2.966   0.925
20874TIP3    H262500   8.150   3.072   0.849
20875TIP3   OH262501   7.826   3.299   0.313
20875TIP3    H162502   7.772   3.244   0.257
20875TIP3    H262503   7.915   3.267   0.298
20876TIP3   OH262504   1.252   7.959   7.371
20876TIP3    H162505   1.256   7.934   7.279
20876TIP3    H262506   1.228   8.052   7.369
20877TIP3   OH262507   1.453   8.166   7.676
20877TIP3    H162508   1.504   8.239   7.641
20877TIP3    H262509   1.508   8.129   7.745
20878TIP3   OH262510   1.625   8.047   7.853
20878TIP3    H162511   1.581   8.042   7.938
20878TIP3    H262512   1.708   8.091   7.871
20879TIP3   OH262513   1.480   7.940   7.523
20879TIP3    H162514   1.406   7.947   7.463
20879TIP3    H262515   1.473   8.017   7.579
20880TIP3   OH262516   1.306   7.635   7.516
20880TIP3    H162517   1.301   7.726   7.490
20880TIP3    H262518   1.315   7.586   7.434
20881TIP3   OH262519   7.868   3.273  -0.000
20881TIP3    H162520   7.916   3.191   0.007
20881TIP3    H262521   7.926   3.339   0.038
20882TIP3   OH262522   1.267   7.350   7.607
20882TIP3    H162523   1.357   7.319   7.601
20882TIP3    H262524   1.214   7.270   7.597
20883TIP3   OH262525   8.100   3.238   0.344
20883TIP3    H162526   8.191   3.225   0.316
20883TIP3    H262527   8.099   3.327   0.381
20884TIP3   OH262528   8.697   2.934   1.145
20884TIP3    H162529   8.716   2.844   1.117
20884TIP3    H262530   8.614   2.956   1.102
20885TIP3   OH262531   1.497   7.297   7.888
20885TIP3    H162532   1.507   7.329   7.978
20885TIP3    H262533   1.419   7.241   7.891
20886TIP3   OH262534   8.475   3.010   1.004
20886TIP3    H162535   8.423   3.090   1.016
20886TIP3    H262536   8.411   2.944   0.976
20887TIP3   OH262537   1.528   7.281   7.578
20887TIP3    H162538   1.570   7.217   7.520
20887TIP3    H262539   1.590   7.354   7.582
20888TIP3   OH262540   8.345   2.795   0.884
20888TIP3    H162541   8.283   2.723   0.872
20888TIP3    H262542   8.425   2.752   0.915
20889TIP3   OH262543   7.468   2.731   0.625
20889TIP3    H162544   7.488   2.639   0.644
20889TIP3    H262545   7.488   2.741   0.532
20890TIP3   OH262546   8.216   2.548   0.328
20890TIP3    H162547   8.283   2.602   0.287
20890TIP3    H262548   8.143   2.608   0.342
20891TIP3   OH262549   8.371   2.726   0.192
20891TIP3    H162550   8.383   2.650   0.135
20891TIP3    H262551   8.350   2.798   0.133
20892TIP3   OH262552   7.614   2.519   0.289
20892TIP3    H162553   7.689   2.553   0.241
20892TIP3    H262554   7.649   2.447   0.341
20893TIP3   OH262555   1.276   7.126   7.896
20893TIP3    H162556   1.195   7.177   7.906
20893TIP3    H262557   1.269   7.058   7.963
20894TIP3   OH262558   1.337   8.723   7.629
20894TIP3    H162559   1.290   8.641   7.639
20894TIP3    H262560   1.286   8.772   7.564
20895TIP3   OH262561   2.753   8.317   7.585
20895TIP3    H162562   2.727   8.404   7.555
20895TIP3    H262563   2.690   8.258   7.545
20896TIP3   OH262564   9.288   3.676  -0.004
20896TIP3    H162565   9.346   3.656   0.070
20896TIP3    H262566   9.250   3.591  -0.027
20897TIP3   OH262567   8.618   3.581   0.302
20897TIP3    H162568   8.636   3.510   0.364
20897TIP3    H262569   8.699   3.590   0.252
20898TIP3   OH262570   3.028   8.606   7.680
20898TIP3    H162571   3.012   8.537   7.744
20898TIP3    H262572   3.051   8.683   7.733
20899TIP3   OH262573   8.655   3.953   0.091
20899TIP3    H162574   8.615   3.871   0.064
20899TIP3    H262575   8.722   3.970   0.025
20900TIP3   OH262576   1.728   7.781   7.854
20900TIP3    H162577   1.705   7.873   7.860
20900TIP3    H262578   1.662   7.743   7.796
20901TIP3   OH262579   1.857   8.142   7.960
20901TIP3    H162580   1.915   8.072   7.990
20901TIP3    H262581   1.914   8.218   7.952
20902TIP3   OH262582   2.679   9.032   7.689
20902TIP3    H162583   2.711   8.979   7.616
20902TIP3    H262584   2.667   8.969   7.760
20903TIP3   OH262585   9.122   3.899  -0.001
20903TIP3    H162586   9.167   3.818  -0.025
20903TIP3    H262587   9.191   3.956   0.033
20904TIP3   OH262588   0.334   3.225   0.019
20904TIP3    H162589   0.346   3.312   0.057
20904TIP3    H262590   0.358   3.235  -0.073
20905TIP3   OH262591   9.500   3.392   0.035
20905TIP3    H162592   9.532   3.307   0.064
20905TIP3    H262593   9.463   3.376  -0.051
20906TIP3   OH262594   2.346   7.664   7.973
20906TIP3    H162595   2.320   7.735   7.914
20906TIP3    H262596   2.287   7.592   7.951
20907TIP3   OH262597   3.020   7.780   7.637
20907TIP3    H162598   3.084   7.774   7.707
20907TIP3    H262599   3.069   7.814   7.562
20908TIP3   OH262600   8.561   3.327   0.067
20908TIP3    H162601   8.636   3.296   0.117
20908TIP3    H262602   8.549   3.260  -0.001
20909TIP3   OH262603   2.385   8.082   7.925
20909TIP3    H162604   2.479   8.065   7.931
20909TIP3    H262605   2.348   8.000   7.892
20910TIP3   OH262606   0.382   3.451   0.185
20910TIP3    H162607   0.292   3.482   0.178
20910TIP3    H262608   0.411   3.483   0.270
20911TIP3   OH262609   8.878   3.042   0.430
20911TIP3    H162610   8.801   3.082   0.390
20911TIP3    H262611   8.862   3.046   0.524
20912TIP3   OH262612   2.655   8.536   7.445
20912TIP3    H162613   2.617   8.502   7.365
20912TIP3    H262614   2.601   8.612   7.468
20913TIP3   OH262615   8.936   3.855   0.198
20913TIP3    H162616   8.859   3.909   0.183
20913TIP3    H262617   8.999   3.882   0.131
20914TIP3   OH262618   3.174   7.802   7.861
20914TIP3    H162619   3.134   7.777   7.945
20914TIP3    H262620   3.232   7.875   7.883
20915TIP3   OH262621   8.773   3.183   0.186
20915TIP3    H162622   8.833   3.247   0.224
20915TIP3    H262623   8.826   3.137   0.121
20916TIP3   OH262624   1.617   8.357   7.563
20916TIP3    H162625   1.593   8.378   7.473
20916TIP3    H262626   1.636   8.441   7.603
20917TIP3   OH262627   3.068   8.846   7.824
20917TIP3    H162628   2.979   8.841   7.859
20917TIP3    H262629   3.067   8.922   7.767
20918TIP3   OH262630   0.132   3.121   0.189
20918TIP3    H162631   0.048   3.137   0.147
20918TIP3    H262632   0.197   3.145   0.123
20919TIP3   OH262633   9.205   2.741   0.167
20919TIP3    H162634   9.197   2.650   0.194
20919TIP3    H262635   9.124   2.783   0.199
20920TIP3   OH262636   2.779   8.912   7.462
20920TIP3    H162637   2.827   8.829   7.458
20920TIP3    H262638   2.844   8.978   7.438
20921TIP3   OH262639   2.900   8.672   7.445
20921TIP3    H162640   2.828   8.608   7.440
20921TIP3    H262641   2.954   8.640   7.518
20922TIP3   OH262642   0.045   4.108   0.152
20922TIP3    H162643   0.021   4.039   0.090
20922TIP3    H262644   0.025   4.189   0.105
20923TIP3   OH262645   2.592   8.164   7.417
20923TIP3    H162646   2.507   8.204   7.397
20923TIP3    H262647   2.639   8.165   7.333
20924TIP3   OH262648   2.560   7.969   7.116
20924TIP3    H162649   2.627   8.025   7.155
20924TIP3    H262650   2.609   7.902   7.068
20925TIP3   OH262651   3.468   8.415   8.030
20925TIP3    H162652   3.381   8.454   8.021
20925TIP3    H262653   3.507   8.424   7.943
20926TIP3   OH262654   2.935   8.199   7.410
20926TIP3    H162655   2.887   8.246   7.478
20926TIP3    H262656   3.025   8.197   7.441
20927TIP3   OH262657   9.702   3.649   0.329
20927TIP3    H162658   9.700   3.729   0.382
20927TIP3    H262659   9.620   3.649   0.281
20928TIP3   OH262660   2.178   8.211   7.785
20928TIP3    H162661   2.139   8.151   7.722
20928TIP3    H262662   2.254   8.164   7.820
20929TIP3   OH262663   2.335   8.616   7.924
20929TIP3    H162664   2.307   8.605   7.833
20929TIP3    H262665   2.425   8.583   7.926
20930TIP3   OH262666   8.840   3.600   0.147
20930TIP3    H162667   8.873   3.563   0.065
20930TIP3    H262668   8.884   3.684   0.155
20931TIP3   OH262669   2.825   8.846   7.947
20931TIP3    H162670   2.805   8.927   7.992
20931TIP3    H262671   2.813   8.777   8.013
20932TIP3   OH262672   2.782   8.111   7.202
20932TIP3    H162673   2.841   8.156   7.262
20932TIP3    H262674   2.827   8.114   7.117
20933TIP3   OH262675   2.530   8.782   7.485
20933TIP3    H162676   2.611   8.833   7.480
20933TIP3    H262677   2.470   8.828   7.427
20934TIP3   OH262678   3.288   7.331   7.283
20934TIP3    H162679   3.211   7.353   7.336
20934TIP3    H262680   3.297   7.404   7.222
20935TIP3   OH262681   2.046   8.054   7.593
20935TIP3    H162682   1.968   8.102   7.563
20935TIP3    H262683   2.016   7.964   7.602
20936TIP3   OH262684   3.100   8.704   6.838
20936TIP3    H162685   3.105   8.796   6.811
20936TIP3    H262686   3.180   8.664   6.803
20937TIP3   OH262687   0.247   4.508   0.201
20937TIP3    H162688   0.269   4.415   0.206
20937TIP3    H262689   0.182   4.522   0.269
20938TIP3   OH262690   2.419   8.979   7.304
20938TIP3    H162691   2.370   8.961   7.224
20938TIP3    H262692   2.381   9.061   7.337
20939TIP3   OH262693   1.852   8.810   7.682
20939TIP3    H162694   1.886   8.800   7.771
20939TIP3    H262695   1.784   8.743   7.675
20940TIP3   OH262696   2.633   8.891   6.933
20940TIP3    H162697   2.687   8.819   6.902
20940TIP3    H262698   2.663   8.907   7.023
20941TIP3   OH262699   2.671   8.955   7.202
20941TIP3    H162700   2.582   8.959   7.237
20941TIP3    H262701   2.723   8.917   7.273
20942TIP3   OH262702   0.148   3.599   0.484
20942TIP3    H162703   0.063   3.602   0.440
20942TIP3    H262704   0.168   3.506   0.489
20943TIP3   OH262705   8.964   2.836   0.265
20943TIP3    H162706   8.881   2.803   0.234
20943TIP3    H262707   8.941   2.914   0.316
20944TIP3   OH262708   9.501   2.966   0.503
20944TIP3    H162709   9.568   2.938   0.564
20944TIP3    H262710   9.418   2.946   0.546
20945TIP3   OH262711   9.712   3.387   0.422
20945TIP3    H162712   9.673   3.383   0.509
20945TIP3    H262713   9.691   3.476   0.391
20946TIP3   OH262714   2.560   7.500   7.282
20946TIP3    H162715   2.521   7.506   7.369
20946TIP3    H262716   2.526   7.418   7.246
20947TIP3   OH262717   8.925   3.381   0.295
20947TIP3    H162718   8.918   3.405   0.387
20947TIP3    H262719   8.897   3.459   0.248
20948TIP3   OH262720   2.245   7.868   7.820
20948TIP3    H162721   2.155   7.844   7.843
20948TIP3    H262722   2.254   7.840   7.729
20949TIP3   OH262723   2.707   7.955   7.555
20949TIP3    H162724   2.663   8.029   7.514
20949TIP3    H262725   2.767   7.923   7.488
20950TIP3   OH262726   9.431   3.595   0.623
20950TIP3    H162727   9.402   3.531   0.688
20950TIP3    H262728   9.520   3.617   0.650
20951TIP3   OH262729   2.869   7.962   7.784
20951TIP3    H162730   2.806   7.987   7.716
20951TIP3    H262731   2.918   7.889   7.746
20952TIP3   OH262732   8.687   3.395   0.485
20952TIP3    H162733   8.694   3.422   0.577
20952TIP3    H262734   8.669   3.302   0.489
20953TIP3   OH262735   2.226   7.480   7.252
20953TIP3    H162736   2.218   7.490   7.347
20953TIP3    H262737   2.148   7.523   7.217
20954TIP3   OH262738   1.728   7.514   7.993
20954TIP3    H162739   1.773   7.598   7.983
20954TIP3    H262740   1.757   7.462   7.918
20955TIP3   OH262741   1.698   7.501   7.605
20955TIP3    H162742   1.740   7.538   7.528
20955TIP3    H262743   1.645   7.573   7.641
20956TIP3   OH262744   9.451   3.594   0.209
20956TIP3    H162745   9.478   3.527   0.146
20956TIP3    H262746   9.412   3.546   0.281
20957TIP3   OH262747   2.612   7.662   7.880
20957TIP3    H162748   2.531   7.659   7.931
20957TIP3    H262749   2.681   7.652   7.945
20958TIP3   OH262750   2.003   7.752   7.879
20958TIP3    H162751   1.909   7.750   7.857
20958TIP3    H262752   2.031   7.661   7.871
20959TIP3   OH262753   2.246   7.753   7.572
20959TIP3    H162754   2.341   7.761   7.562
20959TIP3    H262755   2.212   7.769   7.484
20960TIP3   OH262756   9.569   3.132   0.100
20960TIP3    H162757   9.551   3.151   0.192
20960TIP3    H262758   9.502   3.069   0.074
20961TIP3   OH262759   2.133   7.774   7.323
20961TIP3    H162760   2.073   7.725   7.267
20961TIP3    H262761   2.188   7.823   7.262
20962TIP3   OH262762   2.653   8.028   7.976
20962TIP3    H162763   2.717   7.985   7.919
20962TIP3    H262764   2.661   7.982   8.060
20963TIP3   OH262765   2.129   7.500   7.863
20963TIP3    H162766   2.108   7.420   7.912
20963TIP3    H262767   2.150   7.469   7.775
20964TIP3   OH262768   9.181   3.305   0.236
20964TIP3    H162769   9.093   3.335   0.258
20964TIP3    H262770   9.239   3.355   0.293
20965TIP3   OH262771   2.342   8.288   7.376
20965TIP3    H162772   2.268   8.233   7.349
20965TIP3    H262773   2.313   8.330   7.457
20966TIP3   OH262774   3.231   8.540   7.972
20966TIP3    H162775   3.264   8.589   7.897
20966TIP3    H262776   3.152   8.497   7.940
20967TIP3   OH262777   2.813   7.607   7.287
20967TIP3    H162778   2.719   7.586   7.279
20967TIP3    H262779   2.815   7.703   7.289
20968TIP3   OH262780   9.314   3.970   0.401
20968TIP3    H162781   9.392   3.969   0.456
20968TIP3    H262782   9.244   3.940   0.460
20969TIP3   OH262783   2.870   7.878   7.340
20969TIP3    H162784   2.965   7.884   7.352
20969TIP3    H262785   2.848   7.951   7.283
20970TIP3   OH262786   8.597   3.696   0.007
20970TIP3    H162787   8.636   3.673  -0.077
20970TIP3    H262788   8.648   3.649   0.072
20971TIP3   OH262789   2.504   8.448   7.225
20971TIP3    H162790   2.456   8.531   7.219
20971TIP3    H262791   2.445   8.390   7.273
20972TIP3   OH262792   9.194   3.793   0.602
20972TIP3    H162793   9.169   3.745   0.523
20972TIP3    H262794   9.278   3.756   0.628
20973TIP3   OH262795   9.484   4.272   0.293
20973TIP3    H162796   9.392   4.280   0.320
20973TIP3    H262797   9.506   4.358   0.256
20974TIP3   OH262798   3.288   7.962   7.171
20974TIP3    H162799   3.238   7.910   7.108
20974TIP3    H262800   3.278   8.052   7.140
20975TIP3   OH262801   0.279   4.234   0.227
20975TIP3    H162802   0.191   4.196   0.232
20975TIP3    H262803   0.317   4.196   0.148
20976TIP3   OH262804   3.041   8.764   7.102
20976TIP3    H162805   3.028   8.688   7.159
20976TIP3    H262806   3.059   8.727   7.016
20977TIP3   OH262807   3.004   8.404   7.876
20977TIP3    H162808   2.913   8.382   7.898
20977TIP3    H262809   3.040   8.324   7.839
20978TIP3   OH262810   2.157   8.648   7.705
20978TIP3    H162811   2.145   8.712   7.634
20978TIP3    H262812   2.089   8.670   7.769
20979TIP3   OH262813   1.727   7.927   7.396
20979TIP3    H162814   1.770   8.010   7.420
20979TIP3    H262815   1.643   7.930   7.441
20980TIP3   OH262816   2.232   8.406   7.594
20980TIP3    H162817   2.207   8.492   7.629
20980TIP3    H262818   2.213   8.345   7.666
20981TIP3   OH262819   2.081   8.861   7.543
20981TIP3    H162820   1.994   8.856   7.582
20981TIP3    H262821   2.102   8.955   7.544
20982TIP3   OH262822   9.345   4.010   0.127
20982TIP3    H162823   9.332   4.004   0.222
20982TIP3    H262824   9.426   3.962   0.111
20983TIP3   OH262825   9.568   4.497   0.132
20983TIP3    H162826   9.477   4.491   0.102
20983TIP3    H262827   9.600   4.580   0.095
20984TIP3   OH262828   3.117   8.977   6.793
20984TIP3    H162829   3.154   9.048   6.741
20984TIP3    H262830   3.037   9.014   6.830
20985TIP3   OH262831   8.836   3.116   0.706
20985TIP3    H162832   8.783   3.163   0.770
20985TIP3    H262833   8.888   3.055   0.758
20986TIP3   OH262834   2.135   8.475   7.011
20986TIP3    H162835   2.151   8.385   6.981
20986TIP3    H262836   2.124   8.466   7.106
20987TIP3   OH262837   2.086   8.485   7.286
20987TIP3    H162838   2.152   8.460   7.349
20987TIP3    H262839   2.085   8.580   7.288
20988TIP3   OH262840   1.819   8.177   7.485
20988TIP3    H162841   1.754   8.227   7.534
20988TIP3    H262842   1.843   8.234   7.412
20989TIP3   OH262843   9.517   3.200   0.362
20989TIP3    H162844   9.597   3.244   0.390
20989TIP3    H262845   9.512   3.121   0.415
20990TIP3   OH262846   2.876   7.558   7.551
20990TIP3    H162847   2.854   7.576   7.460
20990TIP3    H262848   2.919   7.638   7.581
20991TIP3   OH262849   2.359   8.677   7.221
20991TIP3    H162850   2.272   8.700   7.253
20991TIP3    H262851   2.379   8.744   7.155
20992TIP3   OH262852   2.526   7.760   7.632
20992TIP3    H162853   2.585   7.828   7.601
20992TIP3    H262854   2.557   7.739   7.720
20993TIP3   OH262855   9.358   3.431   0.407
20993TIP3    H162856   9.380   3.479   0.487
20993TIP3    H262857   9.410   3.351   0.411
20994TIP3   OH262858   2.688   7.449   7.718
20994TIP3    H162859   2.667   7.526   7.771
20994TIP3    H262860   2.758   7.477   7.660
20995TIP3   OH262861   2.106   8.757   7.292
20995TIP3    H162862   2.090   8.829   7.231
20995TIP3    H262863   2.094   8.795   7.379
20996TIP3   OH262864   2.195   7.478   7.536
20996TIP3    H162865   2.186   7.571   7.556
20996TIP3    H262866   2.289   7.461   7.542
20997TIP3   OH262867   0.171   3.315   0.400
20997TIP3    H162868   0.078   3.334   0.412
20997TIP3    H262869   0.175   3.254   0.327
20998TIP3   OH262870   3.099   8.150   7.792
20998TIP3    H162871   3.023   8.093   7.798
20998TIP3    H262872   3.165   8.109   7.847
20999TIP3   OH262873   1.841   8.356   7.270
20999TIP3    H162874   1.914   8.417   7.282
20999TIP3    H262875   1.873   8.295   7.204
21000TIP3   OH262876   1.770   7.652   7.391
21000TIP3    H162877   1.765   7.748   7.397
21000TIP3    H262878   1.797   7.635   7.301
21001TIP3   OH262879   3.082   9.091   7.694
21001TIP3    H162880   3.044   9.117   7.610
21001TIP3    H262881   3.174   9.114   7.688
21002TIP3   OH262882   8.708   2.750   0.224
21002TIP3    H162883   8.663   2.718   0.146
21002TIP3    H262884   8.693   2.682   0.290
21003TIP3   OH262885   1.637   8.624   7.649
21003TIP3    H162886   1.558   8.654   7.694
21003TIP3    H262887   1.631   8.661   7.562
21004TIP3   OH262888   2.307   8.662   6.902
21004TIP3    H162889   2.256   8.594   6.946
21004TIP3    H262890   2.385   8.617   6.870
21005TIP3   OH262891   2.790   8.695   6.814
21005TIP3    H162892   2.874   8.666   6.849
21005TIP3    H262893   2.806   8.708   6.720
21006TIP3   OH262894   1.960   8.168   7.112
21006TIP3    H162895   2.012   8.142   7.188
21006TIP3    H262896   2.024   8.182   7.042
21007TIP3   OH262897   2.481   8.395   6.949
21007TIP3    H162898   2.500   8.403   7.042
21007TIP3    H262899   2.486   8.302   6.930
21008TIP3   OH262900   9.623   4.038   0.303
21008TIP3    H162901   9.697   4.067   0.249
21008TIP3    H262902   9.563   4.112   0.304
21009TIP3   OH262903   2.136   8.108   7.322
21009TIP3    H162904   2.122   8.071   7.409
21009TIP3    H262905   2.189   8.042   7.276
21010TIP3   OH262906   8.998   3.516   0.530
21010TIP3    H162907   8.928   3.571   0.564
21010TIP3    H262908   9.047   3.573   0.471
21011TIP3   OH262909   2.286   7.936   7.162
21011TIP3    H162910   2.259   7.940   7.070
21011TIP3    H262911   2.381   7.944   7.159
21012TIP3   OH262912   9.496   3.930   0.609
21012TIP3    H162913   9.584   3.904   0.583
21012TIP3    H262914   9.489   3.901   0.700
21013TIP3   OH262915   9.107   3.310   0.675
21013TIP3    H162916   9.118   3.239   0.611
21013TIP3    H262917   9.070   3.382   0.625
21014TIP3   OH262918   9.134   3.130   0.457
21014TIP3    H162919   9.165   3.171   0.376
21014TIP3    H262920   9.044   3.104   0.437
21015TIP3   OH262921   9.114   3.698   0.353
21015TIP3    H162922   9.195   3.702   0.303
21015TIP3    H262923   9.053   3.756   0.306
21016TIP3   OH262924   9.698   3.625   0.733
21016TIP3    H162925   9.731   3.535   0.731
21016TIP3    H262926   9.776   3.679   0.736
21017TIP3   OH262927   9.745   3.882   0.484
21017TIP3    H162928   9.690   3.938   0.429
21017TIP3    H262929   9.834   3.899   0.453
21018TIP3   OH262930   8.986   3.380   0.922
21018TIP3    H162931   8.952   3.301   0.963
21018TIP3    H262932   9.020   3.350   0.838
21019TIP3   OH262933   9.240   2.903   0.569
21019TIP3    H162934   9.201   2.980   0.529
21019TIP3    H262935   9.184   2.830   0.542
21020TIP3   OH262936   9.353   3.380   0.778
21020TIP3    H162937   9.339   3.371   0.872
21020TIP3    H262938   9.270   3.353   0.739
21021TIP3   OH262939   9.604   3.342   0.663
21021TIP3    H162940   9.525   3.344   0.716
21021TIP3    H262941   9.672   3.309   0.722
21022TIP3   OH262942   0.041   3.287   0.800
21022TIP3    H162943   0.054   3.192   0.807
21022TIP3    H262944   0.040   3.318   0.891
21023TIP3   OH262945   8.878   3.164   1.077
21023TIP3    H162946   8.869   3.072   1.052
21023TIP3    H262947   8.851   3.167   1.168
21024TIP3   OH262948   9.318   2.902   0.827
21024TIP3    H162949   9.381   2.830   0.823
21024TIP3    H262950   9.282   2.906   0.739
21025TIP3   OH262951   9.400   3.103   0.995
21025TIP3    H162952   9.375   3.039   0.929
21025TIP3    H262953   9.328   3.167   0.995
21026TIP3   OH262954   2.118   8.966   7.113
21026TIP3    H162955   2.205   8.946   7.080
21026TIP3    H262956   2.070   8.998   7.036
21027TIP3   OH262957   1.567   8.366   7.276
21027TIP3    H162958   1.662   8.374   7.274
21027TIP3    H262959   1.549   8.279   7.239
21028TIP3   OH262960   3.345   9.166   7.696
21028TIP3    H162961   3.363   9.185   7.788
21028TIP3    H262962   3.401   9.226   7.647
21029TIP3   OH262963   3.375   9.187   7.967
21029TIP3    H162964   3.326   9.105   7.979
21029TIP3    H262965   3.442   9.184   8.035
21030TIP3   OH262966   0.098   4.270   0.567
21030TIP3    H162967   0.004   4.265   0.551
21030TIP3    H262968   0.120   4.362   0.550
21031TIP3   OH262969   3.262   8.419   7.170
21031TIP3    H162970   3.322   8.491   7.149
21031TIP3    H262971   3.301   8.378   7.248
21032TIP3   OH262972   3.377   8.282   7.385
21032TIP3    H162973   3.307   8.242   7.437
21032TIP3    H262974   3.439   8.316   7.451
21033TIP3   OH262975   3.422   8.684   7.822
21033TIP3    H162976   3.472   8.614   7.780
21033TIP3    H262977   3.427   8.757   7.760
21034TIP3   OH262978   9.762   4.335   0.019
21034TIP3    H162979   9.692   4.380   0.065
21034TIP3    H262980   9.719   4.291  -0.054
21035TIP3   OH262981   3.230   8.189   7.023
21035TIP3    H162982   3.143   8.166   6.990
21035TIP3    H262983   3.218   8.273   7.067
21036TIP3   OH262984   3.156   7.846   6.968
21036TIP3    H162985   3.091   7.912   6.943
21036TIP3    H262986   3.127   7.766   6.923
21037TIP3   OH262987   3.184   8.142   7.526
21037TIP3    H162988   3.182   8.048   7.507
21037TIP3    H262989   3.160   8.148   7.619
21038TIP3   OH262990   8.358   3.636   0.230
21038TIP3    H162991   8.349   3.632   0.135
21038TIP3    H262992   8.452   3.626   0.246
21039TIP3   OH262993   0.190   3.947   0.373
21039TIP3    H162994   0.253   3.876   0.360
21039TIP3    H262995   0.168   3.975   0.284
21040TIP3   OH262996   0.360   3.731   0.375
21040TIP3    H162997   0.286   3.689   0.418
21040TIP3    H262998   0.435   3.677   0.398
21041TIP3   OH262999   3.094   7.570   6.930
21041TIP3    H163000   3.153   7.557   7.005
21041TIP3    H263001   3.009   7.541   6.962
21042TIP3   OH263002   3.168   7.872   7.413
21042TIP3    H163003   3.213   7.788   7.424
21042TIP3    H263004   3.205   7.909   7.333
21043TIP3   OH263005   3.315   8.031   7.932
21043TIP3    H163006   3.396   8.047   7.883
21043TIP3    H263007   3.331   8.072   8.017
21044TIP3   OH263008   0.122   3.562   0.156
21044TIP3    H163009   0.048   3.589   0.211
21044TIP3    H263010   0.152   3.643   0.115
21045TIP3   OH263011   8.676   3.226   0.905
21045TIP3    H163012   8.741   3.217   0.974
21045TIP3    H263013   8.592   3.220   0.950
21046TIP3   OH263014   0.588   3.162   0.691
21046TIP3    H163015   0.653   3.105   0.650
21046TIP3    H263016   0.549   3.210   0.618
21047TIP3   OH263017   3.282   7.620   7.464
21047TIP3    H163018   3.323   7.602   7.548
21047TIP3    H263019   3.219   7.549   7.452
21048TIP3   OH263020   8.581   2.997   0.248
21048TIP3    H163021   8.624   2.912   0.255
21048TIP3    H263022   8.651   3.057   0.223
21049TIP3   OH263023   8.335   3.326   0.217
21049TIP3    H163024   8.417   3.341   0.171
21049TIP3    H263025   8.336   3.389   0.290
21050TIP3   OH263026   0.436   3.272   0.492
21050TIP3    H163027   0.352   3.311   0.514
21050TIP3    H263028   0.414   3.196   0.438
21051TIP3   OH263029   3.325   7.526   7.094
21051TIP3    H163030   3.374   7.468   7.036
21051TIP3    H263031   3.377   7.606   7.096
21052TIP3   OH263032   1.758   7.319   7.796
21052TIP3    H163033   1.670   7.297   7.826
21052TIP3    H263034   1.745   7.381   7.725
21053TIP3   OH263035   2.941   9.113   7.373
21053TIP3    H163036   2.972   9.074   7.291
21053TIP3    H263037   2.979   9.201   7.373
21054TIP3   OH263038   8.569   2.869   0.539
21054TIP3    H163039   8.605   2.856   0.626
21054TIP3    H263040   8.486   2.821   0.539
21055TIP3   OH263041   0.351   3.021   0.391
21055TIP3    H163042   0.263   3.012   0.354
21055TIP3    H263043   0.387   2.932   0.386
21056TIP3   OH263044   2.785   9.114   8.022
21056TIP3    H163045   2.694   9.141   8.014
21056TIP3    H263046   2.832   9.170   7.961
21057TIP3   OH263047   6.228   0.025   7.872
21057TIP3    H163048   6.220   0.095   7.808
21057TIP3    H263049   6.274  -0.045   7.824
21058TIP3   OH263050   1.996   8.762   7.913
21058TIP3    H163051   1.999   8.713   7.995
21058TIP3    H263052   2.065   8.827   7.921
21059TIP3   OH263053   2.245   8.882   7.895
21059TIP3    H163054   2.287   8.801   7.922
21059TIP3    H263055   2.265   8.890   7.801
21060TIP3   OH263056   9.361   2.947   0.033
21060TIP3    H163057   9.318   2.874   0.078
21060TIP3    H263058   9.429   2.905  -0.020
21061TIP3   OH263059   3.320   7.500   7.937
21061TIP3    H163060   3.355   7.543   7.859
21061TIP3    H263061   3.225   7.508   7.929
21062TIP3   OH263062   3.432   7.559   7.692
21062TIP3    H163063   3.501   7.500   7.661
21062TIP3    H263064   3.469   7.647   7.679
21063TIP3   OH263065   2.073   7.257   7.990
21063TIP3    H163066   1.988   7.215   7.994
21063TIP3    H263067   2.136   7.185   7.993
21064TIP3   OH263068   1.887   7.129   7.640
21064TIP3    H163069   1.921   7.183   7.568
21064TIP3    H263070   1.850   7.192   7.702
21065TIP3   OH263071   2.546   7.311   7.918
21065TIP3    H163072   2.591   7.355   7.847
21065TIP3    H263073   2.595   7.335   7.997
21066TIP3   OH263074   3.040   7.447   7.903
21066TIP3    H163075   3.054   7.413   7.815
21066TIP3    H263076   3.046   7.370   7.960
21067TIP3   OH263077   3.097   7.409   7.467
21067TIP3    H163078   3.017   7.457   7.490
21067TIP3    H263079   3.085   7.322   7.504
21068TIP3   OH263080   1.587   8.731   7.403
21068TIP3    H163081   1.494   8.710   7.396
21068TIP3    H263082   1.591   8.826   7.389
21069TIP3   OH263083   1.996   7.299   7.438
21069TIP3    H163084   2.044   7.245   7.375
21069TIP3    H263085   2.062   7.357   7.475
21070TIP3   OH263086   2.469   7.505   7.545
21070TIP3    H163087   2.532   7.452   7.594
21070TIP3    H263088   2.489   7.595   7.570
21071TIP3   OH263089   2.370   8.891   7.032
21071TIP3    H163090   2.457   8.911   6.995
21071TIP3    H263091   2.338   8.819   6.978
21072TIP3   OH263092   3.049   9.034   7.132
21072TIP3    H163093   3.050   8.938   7.125
21072TIP3    H263094   3.010   9.064   7.050
21073TIP3   OH263095   8.900   2.917   0.912
21073TIP3    H163096   8.869   2.845   0.967
21073TIP3    H263097   8.990   2.930   0.940
21074TIP3   OH263098   9.144   2.916   1.036
21074TIP3    H163099   9.205   2.920   0.962
21074TIP3    H263100   9.169   2.837   1.083
21075TIP3   OH263101   1.669   8.734   7.108
21075TIP3    H163102   1.668   8.726   7.203
21075TIP3    H263103   1.750   8.691   7.081
21076TIP3   OH263104   0.098   3.017   0.815
21076TIP3    H163105   0.116   2.991   0.906
21076TIP3    H263106   0.184   3.016   0.773
21077TIP3   OH263107   4.578   8.580   7.012
21077TIP3    H163108   4.532   8.663   7.000
21077TIP3    H263109   4.509   8.514   7.007
21078TIP3   OH263110   4.540   8.564   7.473
21078TIP3    H163111   4.590   8.546   7.552
21078TIP3    H263112   4.495   8.481   7.455
21079TIP3   OH263113   3.850   8.422   7.836
21079TIP3    H163114   3.888   8.367   7.904
21079TIP3    H263115   3.923   8.444   7.779
21080TIP3   OH263116   4.790   8.884   7.150
21080TIP3    H163117   4.787   8.812   7.213
21080TIP3    H263118   4.827   8.957   7.198
21081TIP3   OH263119   3.857   8.860   7.525
21081TIP3    H163120   3.837   8.767   7.529
21081TIP3    H263121   3.952   8.864   7.512
21082TIP3   OH263122   3.525   8.059   7.300
21082TIP3    H163123   3.484   8.141   7.326
21082TIP3    H263124   3.455   8.010   7.257
21083TIP3   OH263125   3.600   8.358   7.537
21083TIP3    H163126   3.650   8.280   7.560
21083TIP3    H263127   3.663   8.413   7.490
21084TIP3   OH263128   7.736   0.059   7.168
21084TIP3    H163129   7.771  -0.017   7.121
21084TIP3    H263130   7.738   0.032   7.260
21085TIP3   OH263131   4.360   8.786   7.491
21085TIP3    H163132   4.405   8.705   7.466
21085TIP3    H263133   4.430   8.842   7.525
21086TIP3   OH263134   5.384   8.088   7.497
21086TIP3    H163135   5.395   8.173   7.539
21086TIP3    H263136   5.405   8.102   7.405
21087TIP3   OH263137   4.764   8.269   7.521
21087TIP3    H163138   4.796   8.185   7.552
21087TIP3    H263139   4.729   8.251   7.434
21088TIP3   OH263140   4.121   7.924   7.481
21088TIP3    H163141   4.097   7.998   7.424
21088TIP3    H263142   4.067   7.852   7.450
21089TIP3   OH263143   4.818   8.031   7.120
21089TIP3    H163144   4.881   8.021   7.192
21089TIP3    H263145   4.871   8.062   7.046
21090TIP3   OH263146   3.746   8.138   7.618
21090TIP3    H163147   3.830   8.117   7.659
21090TIP3    H263148   3.746   8.087   7.537
21091TIP3   OH263149   4.159   8.343   7.435
21091TIP3    H163150   4.253   8.327   7.437
21091TIP3    H263151   4.122   8.261   7.403
21092TIP3   OH263152   5.433   8.325   7.631
21092TIP3    H163153   5.341   8.350   7.639
21092TIP3    H263154   5.474   8.356   7.712
21093TIP3   OH263155   4.097   7.934   7.940
21093TIP3    H163156   4.048   7.966   7.865
21093TIP3    H263157   4.040   7.950   8.015
21094TIP3   OH263158   4.458   8.803   6.895
21094TIP3    H163159   4.409   8.765   6.823
21094TIP3    H263160   4.404   8.876   6.925
21095TIP3   OH263161   4.192   8.710   7.700
21095TIP3    H163162   4.138   8.781   7.737
21095TIP3    H263163   4.240   8.752   7.629
21096TIP3   OH263164   4.973   8.050   7.344
21096TIP3    H163165   4.927   8.034   7.426
21096TIP3    H263166   5.025   8.129   7.361
21097TIP3   OH263167   3.994   8.034   7.704
21097TIP3    H163168   4.049   8.109   7.726
21097TIP3    H263169   4.041   7.992   7.632
21098TIP3   OH263170   4.033   8.909   7.817
21098TIP3    H163171   4.022   8.997   7.783
21098TIP3    H263172   3.949   8.889   7.860
21099TIP3   OH263173   3.428   8.622   7.068
21099TIP3    H163174   3.377   8.646   6.991
21099TIP3    H263175   3.451   8.706   7.108
21100TIP3   OH263176   4.853   9.117   7.290
21100TIP3    H163177   4.767   9.109   7.330
21100TIP3    H263178   4.853   9.203   7.249
21101TIP3   OH263179   5.165   7.977   7.640
21101TIP3    H163180   5.087   7.982   7.585
21101TIP3    H263181   5.237   8.003   7.582
21102TIP3   OH263182   4.443   7.625   7.675
21102TIP3    H163183   4.435   7.533   7.699
21102TIP3    H263184   4.365   7.666   7.712
21103TIP3   OH263185   4.574   9.105   6.999
21103TIP3    H163186   4.634   9.041   7.036
21103TIP3    H263187   4.630   9.167   6.951
21104TIP3   OH263188   4.735   8.831   6.889
21104TIP3    H163189   4.639   8.828   6.893
21104TIP3    H263190   4.762   8.847   6.979
21105TIP3   OH263191   5.096   9.005   7.632
21105TIP3    H163192   5.071   8.934   7.574
21105TIP3    H263193   5.084   9.084   7.580
21106TIP3   OH263194   4.384   8.410   6.911
21106TIP3    H163195   4.298   8.448   6.895
21106TIP3    H263196   4.425   8.406   6.825
21107TIP3   OH263197   4.363   8.215   6.608
21107TIP3    H163198   4.433   8.260   6.657
21107TIP3    H263199   4.409   8.145   6.561
21108TIP3   OH263200   5.253   8.667   7.513
21108TIP3    H163201   5.169   8.711   7.504
21108TIP3    H263202   5.293   8.672   7.426
21109TIP3   OH263203   4.784   8.553   6.838
21109TIP3    H163204   4.717   8.566   6.905
21109TIP3    H263205   4.849   8.497   6.880
21110TIP3   OH263206   4.944   8.492   7.799
21110TIP3    H163207   4.955   8.581   7.834
21110TIP3    H263208   4.860   8.495   7.754
21111TIP3   OH263209   3.962   8.472   7.278
21111TIP3    H163210   3.922   8.411   7.216
21111TIP3    H263211   4.032   8.421   7.320
21112TIP3   OH263212   4.113   8.904   7.418
21112TIP3    H163213   4.088   8.883   7.328
21112TIP3    H263214   4.199   8.863   7.429
21113TIP3   OH263215   4.063   8.471   7.660
21113TIP3    H163216   4.101   8.433   7.581
21113TIP3    H263217   4.111   8.552   7.674
21114TIP3   OH263218   4.616   9.094   7.418
21114TIP3    H163219   4.595   9.176   7.462
21114TIP3    H263220   4.602   9.027   7.485
21115TIP3   OH263221   4.245   9.000   7.966
21115TIP3    H163222   4.202   9.050   8.036
21115TIP3    H263223   4.173   8.960   7.918
21116TIP3   OH263224   4.588   8.374   6.710
21116TIP3    H163225   4.645   8.437   6.755
21116TIP3    H263226   4.608   8.384   6.617
21117TIP3   OH263227   0.718   3.930   0.113
21117TIP3    H163228   0.719   4.025   0.130
21117TIP3    H263229   0.625   3.907   0.111
21118TIP3   OH263230   4.308   9.034   6.935
21118TIP3    H163231   4.392   9.063   6.972
21118TIP3    H263232   4.265   9.115   6.907
21119TIP3   OH263233   0.699   4.668   0.023
21119TIP3    H163234   0.708   4.619  -0.058
21119TIP3    H263235   0.653   4.607   0.082
21120TIP3   OH263236   5.079   7.589   6.760
21120TIP3    H163237   5.002   7.607   6.813
21120TIP3    H263238   5.088   7.665   6.703
21121TIP3   OH263239   3.832   8.313   7.082
21121TIP3    H163240   3.752   8.358   7.052
21121TIP3    H263241   3.805   8.222   7.094
21122TIP3   OH263242   4.882   8.966   6.363
21122TIP3    H163243   4.886   9.058   6.335
21122TIP3    H263244   4.965   8.929   6.333
21123TIP3   OH263245   3.631   8.723   8.006
21123TIP3    H163246   3.559   8.704   7.946
21123TIP3    H263247   3.663   8.637   8.034
21124TIP3   OH263248   3.469   8.917   7.672
21124TIP3    H163249   3.555   8.949   7.699
21124TIP3    H263250   3.411   8.992   7.686
21125TIP3   OH263251   8.585   0.148   7.682
21125TIP3    H163252   8.605   0.054   7.687
21125TIP3    H263253   8.503   0.157   7.730
21126TIP3   OH263254   4.429   9.133   7.814
21126TIP3    H163255   4.420   9.222   7.847
21126TIP3    H263256   4.364   9.083   7.864
21127TIP3   OH263257   7.479   0.003   6.788
21127TIP3    H163258   7.439  -0.009   6.701
21127TIP3    H263259   7.442   0.085   6.820
21128TIP3   OH263260   3.642   9.097   7.179
21128TIP3    H163261   3.688   9.094   7.263
21128TIP3    H263262   3.593   9.015   7.175
21129TIP3   OH263263   4.423   9.149   6.426
21129TIP3    H163264   4.483   9.083   6.392
21129TIP3    H263265   4.453   9.165   6.516
21130TIP3   OH263266   4.471   9.201   6.694
21130TIP3    H163267   4.386   9.204   6.739
21130TIP3    H263268   4.535   9.196   6.765
21131TIP3   OH263269   5.195   8.459   7.940
21131TIP3    H163270   5.103   8.465   7.916
21131TIP3    H263271   5.207   8.368   7.967
21132TIP3   OH263272   0.541   4.311  -0.013
21132TIP3    H163273   0.601   4.282   0.056
21132TIP3    H263274   0.475   4.241  -0.018
21133TIP3   OH263275   4.204   7.717   7.798
21133TIP3    H163276   4.122   7.682   7.765
21133TIP3    H263277   4.180   7.797   7.844
21134TIP3   OH263278   1.477   3.222  -0.001
21134TIP3    H163279   1.547   3.192   0.057
21134TIP3    H263280   1.397   3.204   0.047
21135TIP3   OH263281   4.966   8.241   7.902
21135TIP3    H163282   4.928   8.246   7.990
21135TIP3    H263283   4.949   8.327   7.864
21136TIP3   OH263284   4.664   8.411   6.454
21136TIP3    H163285   4.611   8.388   6.377
21136TIP3    H263286   4.742   8.455   6.417
21137TIP3   OH263287   4.360   7.757   6.767
21137TIP3    H163288   4.321   7.767   6.854
21137TIP3    H263289   4.322   7.676   6.733
21138TIP3   OH263290   4.141   8.247   7.805
21138TIP3    H163291   4.096   8.252   7.889
21138TIP3    H263292   4.120   8.329   7.761
21139TIP3   OH263293   4.019   8.130   7.328
21139TIP3    H163294   3.930   8.102   7.353
21139TIP3    H263295   4.029   8.098   7.238
21140TIP3   OH263296   4.502   8.208   7.054
21140TIP3    H163297   4.453   8.279   7.012
21140TIP3    H263298   4.558   8.173   6.985
21141TIP3   OH263299   1.389   3.839   0.082
21141TIP3    H163300   1.377   3.774   0.151
21141TIP3    H263301   1.480   3.869   0.094
21142TIP3   OH263302   4.673   8.217   7.270
21142TIP3    H163303   4.603   8.233   7.207
21142TIP3    H263304   4.722   8.143   7.232
21143TIP3   OH263305   0.711   3.640   0.024
21143TIP3    H163306   0.726   3.702   0.096
21143TIP3    H263307   0.691   3.557   0.068
21144TIP3   OH263308   4.027   7.744   6.747
21144TIP3    H163309   4.014   7.742   6.842
21144TIP3    H263310   3.947   7.784   6.713
21145TIP3   OH263311   3.562   7.783   7.617
21145TIP3    H163312   3.641   7.817   7.658
21145TIP3    H263313   3.588   7.764   7.527
21146TIP3   OH263314   3.475   7.763   7.110
21146TIP3    H163315   3.518   7.795   7.031
21146TIP3    H263316   3.410   7.830   7.132
21147TIP3   OH263317   4.688   8.469   7.686
21147TIP3    H163318   4.721   8.403   7.624
21147TIP3    H263319   4.647   8.417   7.756
21148TIP3   OH263320   4.393   7.922   7.379
21148TIP3    H163321   4.314   7.917   7.433
21148TIP3    H263322   4.465   7.908   7.441
21149TIP3   OH263323   3.782   8.001   7.384
21149TIP3    H163324   3.694   8.008   7.346
21149TIP3    H263325   3.808   7.910   7.367
21150TIP3   OH263326   4.037   8.013   7.081
21150TIP3    H163327   4.132   8.019   7.070
21150TIP3    H263328   4.001   8.029   6.994
21151TIP3   OH263329   4.830   8.006   7.579
21151TIP3    H163330   4.813   8.021   7.672
21151TIP3    H263331   4.763   7.943   7.552
21152TIP3   OH263332   3.926   8.041   6.832
21152TIP3    H163333   3.864   7.987   6.784
21152TIP3    H263334   3.983   8.079   6.765
21153TIP3   OH263335   8.219   0.512   7.782
21153TIP3    H163336   8.236   0.510   7.688
21153TIP3    H263337   8.301   0.482   7.821
21154TIP3   OH263338   0.689   4.200   0.197
21154TIP3    H163339   0.770   4.212   0.246
21154TIP3    H263340   0.621   4.193   0.264
21155TIP3   OH263341   4.433   8.293   7.473
21155TIP3    H163342   4.499   8.242   7.425
21155TIP3    H263343   4.425   8.250   7.557
21156TIP3   OH263344   3.926   7.752   7.366
21156TIP3    H163345   3.897   7.678   7.420
21156TIP3    H263346   3.938   7.714   7.279
21157TIP3   OH263347   4.396   8.181   7.726
21157TIP3    H163348   4.311   8.212   7.758
21157TIP3    H263349   4.461   8.227   7.780
21158TIP3   OH263350   4.142   8.538   6.863
21158TIP3    H163351   4.071   8.477   6.842
21158TIP3    H263352   4.117   8.576   6.947
21159TIP3   OH263353   5.020   8.807   7.457
21159TIP3    H163354   5.060   8.851   7.382
21159TIP3    H263355   4.942   8.764   7.421
21160TIP3   OH263356   4.609   7.866   6.770
21160TIP3    H163357   4.518   7.838   6.767
21160TIP3    H263358   4.605   7.961   6.783
21161TIP3   OH263359   4.569   8.878   7.882
21161TIP3    H163360   4.621   8.863   7.961
21161TIP3    H263361   4.531   8.966   7.894
21162TIP3   OH263362   4.664   8.135   6.838
21162TIP3    H163363   4.760   8.129   6.847
21162TIP3    H263364   4.650   8.213   6.785
21163TIP3   OH263365   3.849   8.581   7.507
21163TIP3    H163366   3.880   8.552   7.422
21163TIP3    H263367   3.908   8.540   7.570
21164TIP3   OH263368   4.273   8.717   6.705
21164TIP3    H163369   4.207   8.786   6.695
21164TIP3    H263370   4.228   8.648   6.754
21165TIP3   OH263371   0.445   3.870   0.145
21165TIP3    H163372   0.449   3.839   0.235
21165TIP3    H263373   0.369   3.826   0.107
21166TIP3   OH263374   1.169   3.976   0.159
21166TIP3    H163375   1.097   3.920   0.131
21166TIP3    H263376   1.247   3.937   0.119
21167TIP3   OH263377   4.694   9.178   7.743
21167TIP3    H163378   4.602   9.153   7.741
21167TIP3    H263379   4.706   9.219   7.829
21168TIP3   OH263380   5.088   8.209   6.646
21168TIP3    H163381   5.034   8.162   6.584
21168TIP3    H263382   5.088   8.300   6.616
21169TIP3   OH263383   5.356   9.118   7.696
21169TIP3    H163384   5.273   9.093   7.736
21169TIP3    H263385   5.361   9.065   7.616
21170TIP3   OH263386   4.803   8.860   6.610
21170TIP3    H163387   4.757   8.939   6.640
21170TIP3    H263388   4.834   8.882   6.522
21171TIP3   OH263389   4.796   8.670   7.344
21171TIP3    H163390   4.709   8.646   7.375
21171TIP3    H263391   4.834   8.588   7.312
21172TIP3   OH263392   3.954   8.897   7.181
21172TIP3    H163393   3.940   8.967   7.118
21172TIP3    H263394   3.871   8.888   7.227
21173TIP3   OH263395   3.484   8.186   6.911
21173TIP3    H163396   3.524   8.269   6.936
21173TIP3    H263397   3.396   8.190   6.948
21174TIP3   OH263398   4.047   8.655   7.087
21174TIP3    H163399   4.022   8.742   7.117
21174TIP3    H263400   4.019   8.596   7.157
21175TIP3   OH263401   7.513  -0.012   7.621
21175TIP3    H163402   7.546   0.067   7.578
21175TIP3    H263403   7.589  -0.047   7.667
21176TIP3   OH263404   3.859   9.108   7.016
21176TIP3    H163405   3.778   9.114   7.066
21176TIP3    H263406   3.901   9.193   7.028
21177TIP3   OH263407   4.594   8.887   7.607
21177TIP3    H163408   4.582   8.884   7.702
21177TIP3    H263409   4.668   8.828   7.591
21178TIP3   OH263410   8.100   0.157   7.645
21178TIP3    H163411   8.038   0.086   7.660
21178TIP3    H263412   8.070   0.197   7.563
21179TIP3   OH263413   8.172  -0.006   6.289
21179TIP3    H163414   8.214   0.056   6.229
21179TIP3    H263415   8.094   0.040   6.319
21180TIP3   OH263416   0.653   3.391   0.142
21180TIP3    H163417   0.558   3.404   0.145
21180TIP3    H263418   0.672   3.331   0.214
21181TIP3   OH263419   3.669   9.100   7.787
21181TIP3    H163420   3.721   9.049   7.849
21181TIP3    H263421   3.680   9.191   7.815
21182TIP3   OH263422   3.986   8.710   6.498
21182TIP3    H163423   3.980   8.621   6.463
21182TIP3    H263424   3.939   8.706   6.582
21183TIP3   OH263425   3.909   8.734   6.768
21183TIP3    H163426   3.938   8.672   6.835
21183TIP3    H263427   3.975   8.803   6.769
21184TIP3   OH263428   3.607   8.435   6.974
21184TIP3    H163429   3.546   8.488   7.025
21184TIP3    H263430   3.626   8.488   6.897
21185TIP3   OH263431   4.768   8.063   7.841
21185TIP3    H163432   4.849   8.106   7.868
21185TIP3    H263433   4.761   7.987   7.899
21186TIP3   OH263434   4.668   7.812   7.037
21186TIP3    H163435   4.647   7.830   6.946
21186TIP3    H263436   4.713   7.890   7.068
21187TIP3   OH263437   4.097   8.944   6.749
21187TIP3    H163438   4.152   8.966   6.824
21187TIP3    H263439   4.123   9.006   6.681
21188TIP3   OH263440   4.318   8.015   7.129
21188TIP3    H163441   4.380   8.084   7.104
21188TIP3    H263442   4.342   7.993   7.219
21189TIP3   OH263443   4.600   8.288   7.873
21189TIP3    H163444   4.620   8.336   7.954
21189TIP3    H263445   4.655   8.211   7.876
21190TIP3   OH263446   4.482   7.708   7.215
21190TIP3    H163447   4.460   7.786   7.265
21190TIP3    H263448   4.552   7.736   7.156
21191TIP3   OH263449   3.812   9.040   6.752
21191TIP3    H163450   3.893   8.989   6.746
21191TIP3    H263451   3.806   9.065   6.845
21192TIP3   OH263452   3.994   7.737   7.027
21192TIP3    H163453   3.983   7.828   7.055
21192TIP3    H263454   4.089   7.722   7.032
21193TIP3   OH263455   5.217   8.163   7.835
21193TIP3    H163456   5.129   8.187   7.863
21193TIP3    H263457   5.203   8.097   7.767
21194TIP3   OH263458   4.889   8.412   7.261
21194TIP3    H163459   4.815   8.354   7.276
21194TIP3    H263460   4.960   8.374   7.314
21195TIP3   OH263461   3.642   8.618   6.761
21195TIP3    H163462   3.714   8.680   6.769
21195TIP3    H263463   3.671   8.556   6.694
21196TIP3   OH263464   3.519   7.913   6.885
21196TIP3    H163465   3.519   8.008   6.901
21196TIP3    H263466   3.437   7.896   6.838
21197TIP3   OH263467   8.138   0.137   7.201
21197TIP3    H163468   8.094   0.181   7.128
21197TIP3    H263469   8.230   0.160   7.191
21198TIP3   OH263470   3.944   7.628   7.758
21198TIP3    H163471   3.914   7.597   7.673
21198TIP3    H263472   3.934   7.552   7.816
21199TIP3   OH263473   3.470   8.882   7.162
21199TIP3    H163474   3.429   8.914   7.242
21199TIP3    H263475   3.422   8.925   7.091
21200TIP3   OH263476   0.401   4.745   0.203
21200TIP3    H163477   0.480   4.695   0.221
21200TIP3    H263478   0.331   4.679   0.198
21201TIP3   OH263479   0.904   4.729   0.223
21201TIP3    H163480   0.933   4.775   0.302
21201TIP3    H263481   0.949   4.645   0.227
21202TIP3   OH263482   4.118   8.918   6.385
21202TIP3    H163483   4.073   8.842   6.423
21202TIP3    H263484   4.196   8.882   6.344
21203TIP3   OH263485   1.454   4.665  -0.007
21203TIP3    H163486   1.413   4.601   0.051
21203TIP3    H263487   1.447   4.748   0.039
21204TIP3   OH263488   4.597   8.969   6.300
21204TIP3    H163489   4.685   8.952   6.334
21204TIP3    H263490   4.608   8.974   6.205
21205TIP3   OH263491   0.495   4.168   0.391
21205TIP3    H163492   0.515   4.075   0.401
21205TIP3    H263493   0.409   4.170   0.349
21206TIP3   OH263494   3.764   8.433   6.602
21206TIP3    H163495   3.813   8.400   6.678
21206TIP3    H263496   3.829   8.439   6.532
21207TIP3   OH263497   1.104   4.239   0.169
21207TIP3    H163498   1.083   4.265   0.079
21207TIP3    H263499   1.137   4.149   0.160
21208TIP3   OH263500   4.321   8.650   6.436
21208TIP3    H163501   4.307   8.662   6.530
21208TIP3    H263502   4.311   8.556   6.422
21209TIP3   OH263503   4.882   8.981   7.803
21209TIP3    H163504   4.956   8.993   7.744
21209TIP3    H263505   4.812   9.035   7.766
21210TIP3   OH263506   0.626   3.925   0.407
21210TIP3    H163507   0.706   3.900   0.359
21210TIP3    H263508   0.656   3.946   0.495
21211TIP3   OH263509   3.935   8.364   6.817
21211TIP3    H163510   3.905   8.329   6.901
21211TIP3    H263511   3.980   8.291   6.775
21212TIP3   OH263512   0.967   3.817   0.058
21212TIP3    H163513   0.882   3.861   0.067
21212TIP3    H263514   1.000   3.847  -0.027
21213TIP3   OH263515   4.084   8.187   6.659
21213TIP3    H163516   4.052   8.188   6.569
21213TIP3    H263517   4.179   8.192   6.651
21214TIP3   OH263518   1.442   4.226   0.126
21214TIP3    H163519   1.538   4.218   0.128
21214TIP3    H263520   1.411   4.158   0.187
21215TIP3   OH263521   4.895   8.512   6.321
21215TIP3    H163522   4.859   8.462   6.248
21215TIP3    H263523   4.951   8.577   6.280
21216TIP3   OH263524   1.074   3.592   0.172
21216TIP3    H163525   1.083   3.521   0.108
21216TIP3    H263526   1.039   3.665   0.122
21217TIP3   OH263527   4.357   8.017   7.969
21217TIP3    H163528   4.383   8.049   7.882
21217TIP3    H263529   4.266   7.991   7.959
21218TIP3   OH263530   4.357   8.543   7.842
21218TIP3    H163531   4.448   8.569   7.828
21218TIP3    H263532   4.305   8.606   7.792
21219TIP3   OH263533   1.648   3.878   0.160
21219TIP3    H163534   1.654   3.782   0.154
21219TIP3    H263535   1.728   3.904   0.205
21220TIP3   OH263536   4.988   8.742   7.888
21220TIP3    H163537   4.937   8.820   7.867
21220TIP3    H263538   5.079   8.766   7.869
21221TIP3   OH263539   0.949   3.671   0.407
21221TIP3    H163540   0.885   3.603   0.428
21221TIP3    H263541   0.984   3.645   0.321
21222TIP3   OH263542   1.212   3.170   0.074
21222TIP3    H163543   1.173   3.250   0.040
21222TIP3    H263544   1.146   3.102   0.060
21223TIP3   OH263545   1.334   3.640   0.262
21223TIP3    H163546   1.343   3.629   0.356
21223TIP3    H263547   1.244   3.615   0.243
21224TIP3   OH263548   1.586   3.610   0.145
21224TIP3    H163549   1.505   3.598   0.195
21224TIP3    H263550   1.650   3.556   0.191
21225TIP3   OH263551   1.804   3.500   0.264
21225TIP3    H163552   1.827   3.409   0.282
21225TIP3    H263553   1.804   3.542   0.350
21226TIP3   OH263554   0.794   3.450   0.472
21226TIP3    H163555   0.800   3.362   0.433
21226TIP3    H263556   0.829   3.439   0.561
21227TIP3   OH263557   1.267   3.128   0.339
21227TIP3    H163558   1.338   3.065   0.331
21227TIP3    H263559   1.240   3.145   0.248
21228TIP3   OH263560   1.361   3.345   0.477
21228TIP3    H163561   1.327   3.272   0.426
21228TIP3    H263562   1.288   3.407   0.481
21229TIP3   OH263563   3.885   9.190   6.516
21229TIP3    H163564   3.981   9.183   6.524
21229TIP3    H263565   3.872   9.251   6.443
21230TIP3   OH263566   3.363   8.621   6.748
21230TIP3    H163567   3.458   8.626   6.761
21230TIP3    H263568   3.348   8.532   6.716
21231TIP3   OH263569   3.256   9.179   7.246
21231TIP3    H163570   3.198   9.126   7.192
21231TIP3    H263571   3.305   9.116   7.298
21232TIP3   OH263572   3.414   9.015   7.404
21232TIP3    H163573   3.411   8.947   7.472
21232TIP3    H263574   3.464   9.086   7.443
21233TIP3   OH263575   8.398   0.217   7.188
21233TIP3    H163576   8.430   0.242   7.275
21233TIP3    H263577   8.472   0.231   7.130
21234TIP3   OH263578   8.417   0.228   7.471
21234TIP3    H163579   8.373   0.143   7.468
21234TIP3    H263580   8.494   0.213   7.525
21235TIP3   OH263581   5.212   9.188   7.948
21235TIP3    H163582   5.117   9.190   7.965
21235TIP3    H263583   5.241   9.277   7.966
21236TIP3   OH263584   5.022   8.688   6.713
21236TIP3    H163585   5.080   8.746   6.664
21236TIP3    H263586   5.080   8.639   6.771
21237TIP3   OH263587   5.176   8.536   6.877
21237TIP3    H163588   5.115   8.494   6.937
21237TIP3    H263589   5.246   8.570   6.933
21238TIP3   OH263590   5.193   8.925   7.282
21238TIP3    H163591   5.253   8.857   7.252
21238TIP3    H263592   5.213   9.001   7.228
21239TIP3   OH263593   5.014   9.227   7.490
21239TIP3    H163594   4.944   9.268   7.541
21239TIP3    H263595   4.968   9.184   7.418
21240TIP3   OH263596   5.070   8.462   6.532
21240TIP3    H163597   5.005   8.468   6.462
21240TIP3    H263598   5.049   8.534   6.591
21241TIP3   OH263599   4.933   8.101   6.448
21241TIP3    H163600   4.884   8.133   6.373
21241TIP3    H263601   4.930   8.005   6.439
21242TIP3   OH263602   4.957   8.399   6.991
21242TIP3    H163603   4.961   8.304   6.978
21242TIP3    H263604   4.935   8.408   7.084
21243TIP3   OH263605   3.586   8.461   7.788
21243TIP3    H163606   3.575   8.428   7.699
21243TIP3    H263607   3.680   8.457   7.804
21244TIP3   OH263608   5.245   8.818   7.823
21244TIP3    H163609   5.308   8.746   7.823
21244TIP3    H263610   5.250   8.854   7.734
21245TIP3   OH263611   5.403   8.599   7.834
21245TIP3    H163612   5.329   8.554   7.875
21245TIP3    H263613   5.477   8.539   7.846
21246TIP3   OH263614   4.899   7.827   6.405
21246TIP3    H163615   4.964   7.806   6.473
21246TIP3    H263616   4.817   7.794   6.440
21247TIP3   OH263617   4.959   8.122   6.887
21247TIP3    H163618   5.002   8.038   6.904
21247TIP3    H263619   5.002   8.154   6.808
21248TIP3   OH263620   5.104   8.290   7.394
21248TIP3    H163621   5.187   8.305   7.350
21248TIP3    H263622   5.117   8.327   7.482
21249TIP3   OH263623   5.171   8.428   7.623
21249TIP3    H163624   5.106   8.447   7.690
21249TIP3    H263625   5.203   8.513   7.595
21250TIP3   OH263626   0.535   3.525   0.429
21250TIP3    H163627   0.629   3.515   0.439
21250TIP3    H263628   0.498   3.444   0.465
21251TIP3   OH263629   2.351   3.375   0.115
21251TIP3    H163630   2.415   3.316   0.076
21251TIP3    H263631   2.322   3.430   0.042
21252TIP3   OH263632   5.069   7.874   6.952
21252TIP3    H163633   5.109   7.856   7.037
21252TIP3    H263634   5.009   7.801   6.938
21253TIP3   OH263635   3.784   7.854   7.774
21253TIP3    H163636   3.835   7.773   7.779
21253TIP3    H263637   3.848   7.922   7.751
21254TIP3   OH263638   3.561   8.116   7.834
21254TIP3    H163639   3.610   8.098   7.754
21254TIP3    H263640   3.590   8.203   7.862
21255TIP3   OH263641   5.477   8.151   7.944
21255TIP3    H163642   5.400   8.192   7.983
21255TIP3    H263643   5.442   8.084   7.885
21256TIP3   OH263644   5.116   7.794   6.578
21256TIP3    H163645   5.158   7.728   6.523
21256TIP3    H263646   5.185   7.859   6.592
21257TIP3   OH263647   3.548   7.660   7.352
21257TIP3    H163648   3.461   7.637   7.385
21257TIP3    H263649   3.531   7.701   7.268
21258TIP3   OH263650   7.972   0.050   6.845
21258TIP3    H163651   8.032   0.056   6.771
21258TIP3    H263652   7.992   0.128   6.898
21259TIP3   OH263653   0.512   3.067   0.162
21259TIP3    H163654   0.458   3.057   0.240
21259TIP3    H263655   0.456   3.115   0.100
21260TIP3   OH263656   0.563   4.519   0.210
21260TIP3    H163657   0.507   4.459   0.161
21260TIP3    H263658   0.547   4.497   0.302
21261TIP3   OH263659   4.024   9.180   7.774
21261TIP3    H163660   3.970   9.248   7.734
21261TIP3    H263661   4.109   9.188   7.731
21262TIP3   OH263662   7.679   0.177   7.846
21262TIP3    H163663   7.704   0.144   7.933
21262TIP3    H263664   7.756   0.224   7.815
21263TIP3   OH263665   7.886   0.331   7.759
21263TIP3    H163666   7.963   0.287   7.723
21263TIP3    H263667   7.920   0.389   7.826
21264TIP3   OH263668   5.393   7.873   7.861
21264TIP3    H163669   5.305   7.852   7.833
21264TIP3    H263670   5.440   7.790   7.858
21265TIP3   OH263671   6.950   0.138   7.822
21265TIP3    H163672   6.858   0.162   7.805
21265TIP3    H263673   6.977   0.197   7.892
21266TIP3   OH263674   7.173   0.159   7.664
21266TIP3    H163675   7.092   0.156   7.714
21266TIP3    H263676   7.148   0.192   7.578
21267TIP3   OH263677   7.580   0.204   7.459
21267TIP3    H163678   7.509   0.212   7.395
21267TIP3    H263679   7.590   0.292   7.494
21268TIP3   OH263680   7.831   0.109   7.496
21268TIP3    H163681   7.743   0.144   7.485
21268TIP3    H263682   7.888   0.177   7.462
21269TIP3   OH263683   8.031   0.276   7.411
21269TIP3    H163684   8.036   0.367   7.382
21269TIP3    H263685   8.067   0.226   7.338
21270TIP3   OH263686   3.587   9.200   7.537
21270TIP3    H163687   3.609   9.173   7.626
21270TIP3    H263688   3.661   9.172   7.484
21271TIP3   OH263689   3.797   9.095   7.404
21271TIP3    H163690   3.810   9.013   7.453
21271TIP3    H263691   3.883   9.138   7.406
21272TIP3   OH263692   4.063   9.179   7.421
21272TIP3    H163693   4.082   9.086   7.407
21272TIP3    H263694   4.119   9.204   7.495
21273TIP3   OH263695   4.620   7.821   7.515
21273TIP3    H163696   4.580   7.751   7.567
21273TIP3    H263697   4.687   7.776   7.463
21274TIP3   OH263698   5.112   7.756   7.425
21274TIP3    H163699   5.145   7.800   7.347
21274TIP3    H263700   5.017   7.764   7.419
21275TIP3   OH263701   5.220   7.805   7.176
21275TIP3    H163702   5.282   7.742   7.140
21275TIP3    H263703   5.264   7.890   7.169
21276TIP3   OH263704   3.854   7.529   7.518
21276TIP3    H163705   3.764   7.496   7.525
21276TIP3    H263706   3.907   7.451   7.505
21277TIP3   OH263707   3.696   7.460   7.203
21277TIP3    H163708   3.711   7.497   7.116
21277TIP3    H263709   3.651   7.530   7.251
21278TIP3   OH263710   4.340   7.565   7.414
21278TIP3    H163711   4.387   7.611   7.344
21278TIP3    H263712   4.382   7.594   7.495
21279TIP3   OH263713   4.835   7.696   7.389
21279TIP3    H163714   4.863   7.658   7.306
21279TIP3    H263715   4.838   7.623   7.451
21280TIP3   OH263716   4.887   7.662   6.947
21280TIP3    H163717   4.808   7.707   6.975
21280TIP3    H263718   4.880   7.574   6.986
21281TIP3   OH263719   3.342   9.007   6.958
21281TIP3    H163720   3.265   8.967   6.918
21281TIP3    H263721   3.352   9.090   6.911
21282TIP3   OH263722   3.777   7.573   6.947
21282TIP3    H163723   3.814   7.505   6.890
21282TIP3    H263724   3.853   7.623   6.977
21283TIP3   OH263725   4.269   7.765   7.029
21283TIP3    H163726   4.326   7.708   7.082
21283TIP3    H263727   4.287   7.853   7.061
21284TIP3   OH263728   4.159   9.141   6.530
21284TIP3    H163729   4.244   9.168   6.497
21284TIP3    H263730   4.136   9.064   6.477
21285TIP3   OH263731   8.132   0.059   6.610
21285TIP3    H163732   8.205   0.020   6.562
21285TIP3    H263733   8.078   0.100   6.543
21286TIP3   OH263734   0.818   3.182   0.392
21286TIP3    H163735   0.783   3.117   0.454
21286TIP3    H263736   0.909   3.192   0.417
21287TIP3   OH263737   1.062   3.187   0.519
21287TIP3    H163738   1.136   3.162   0.464
21287TIP3    H263739   1.058   3.118   0.585
21288TIP3   OH263740   1.885   3.245   0.313
21288TIP3    H163741   1.913   3.220   0.401
21288TIP3    H263742   1.965   3.245   0.261
21289TIP3   OH263743   8.332   0.180   7.792
21289TIP3    H163744   8.252   0.173   7.741
21289TIP3    H263745   8.341   0.273   7.811
21290TIP3   OH263746   6.347   8.814   6.547
21290TIP3    H163747   6.314   8.902   6.529
21290TIP3    H263748   6.273   8.756   6.528
21291TIP3   OH263749   6.321   8.815   6.958
21291TIP3    H163750   6.367   8.798   7.040
21291TIP3    H263751   6.279   8.732   6.937
21292TIP3   OH263752   5.635   8.661   7.310
21292TIP3    H163753   5.672   8.614   7.385
21292TIP3    H263754   5.711   8.702   7.268
21293TIP3   OH263755   6.620   9.091   6.631
21293TIP3    H163756   6.602   9.033   6.705
21293TIP3    H263757   6.633   9.177   6.671
21294TIP3   OH263758   5.626   9.095   7.030
21294TIP3    H163759   5.614   9.001   7.023
21294TIP3    H263760   5.721   9.108   7.020
21295TIP3   OH263761   5.324   8.319   6.778
21295TIP3    H163762   5.281   8.398   6.808
21295TIP3    H263763   5.253   8.264   6.743
21296TIP3   OH263764   5.404   8.623   7.010
21296TIP3    H163765   5.455   8.546   7.038
21296TIP3    H263766   5.470   8.691   6.995
21297TIP3   OH263767   9.545   0.302   6.668
21297TIP3    H163768   9.579   0.241   6.602
21297TIP3    H263769   9.515   0.246   6.740
21298TIP3   OH263770   6.149   9.044   6.973
21298TIP3    H163771   6.189   8.962   6.944
21298TIP3    H263772   6.224   9.098   7.001
21299TIP3   OH263773   7.180   8.341   6.971
21299TIP3    H163774   7.180   8.432   7.001
21299TIP3    H263775   7.222   8.344   6.885
21300TIP3   OH263776   6.541   8.524   7.017
21300TIP3    H163777   6.585   8.443   7.045
21300TIP3    H263778   6.516   8.507   6.926
21301TIP3   OH263779   5.929   8.197   6.981
21301TIP3    H163780   5.897   8.259   6.916
21301TIP3    H263781   5.890   8.114   6.956
21302TIP3   OH263782   6.611   8.285   6.606
21302TIP3    H163783   6.674   8.275   6.676
21302TIP3    H263784   6.662   8.320   6.532
21303TIP3   OH263785   5.541   8.399   7.093
21303TIP3    H163786   5.623   8.381   7.141
21303TIP3    H263787   5.546   8.342   7.016
21304TIP3   OH263788   5.952   8.594   6.911
21304TIP3    H163789   6.046   8.579   6.920
21304TIP3    H263790   5.917   8.509   6.883
21305TIP3   OH263791   7.201   8.585   7.103
21305TIP3    H163792   7.117   8.630   7.108
21305TIP3    H263793   7.224   8.565   7.193
21306TIP3   OH263794   5.896   8.180   7.416
21306TIP3    H163795   5.846   8.220   7.345
21306TIP3    H263796   5.841   8.190   7.494
21307TIP3   OH263797   6.211   9.024   6.435
21307TIP3    H163798   6.185   9.009   6.345
21307TIP3    H263799   6.175   9.111   6.456
21308TIP3   OH263800   5.987   8.969   7.184
21308TIP3    H163801   5.937   9.041   7.222
21308TIP3    H263802   6.036   9.009   7.113
21309TIP3   OH263803   6.768   8.297   6.829
21309TIP3    H163804   6.721   8.281   6.911
21309TIP3    H263805   6.820   8.375   6.846
21310TIP3   OH263806   5.787   8.301   7.193
21310TIP3    H163807   5.838   8.377   7.220
21310TIP3    H263808   5.839   8.260   7.124
21311TIP3   OH263809   5.838   9.179   7.291
21311TIP3    H163810   5.825   9.271   7.267
21311TIP3    H263811   5.754   9.151   7.325
21312TIP3   OH263812   5.191   8.847   6.563
21312TIP3    H163813   5.164   8.868   6.474
21312TIP3    H263814   5.219   8.931   6.600
21313TIP3   OH263815   0.122   0.102   6.740
21313TIP3    H163816   0.047   0.102   6.799
21313TIP3    H263817   0.131   0.193   6.712
21314TIP3   OH263818   6.958   8.248   7.128
21314TIP3    H163819   6.879   8.272   7.081
21314TIP3    H263820   7.030   8.270   7.068
21315TIP3   OH263821   6.234   7.879   7.146
21315TIP3    H163822   6.230   7.787   7.171
21315TIP3    H263823   6.159   7.919   7.191
21316TIP3   OH263824   9.631   0.158   6.444
21316TIP3    H163825   9.683   0.079   6.432
21316TIP3    H263826   9.689   0.229   6.417
21317TIP3   OH263827   6.516   9.178   6.391
21317TIP3    H163828   6.519   9.105   6.329
21317TIP3    H263829   6.552   9.142   6.472
21318TIP3   OH263830   6.165   8.653   6.402
21318TIP3    H163831   6.087   8.706   6.387
21318TIP3    H263832   6.216   8.661   6.322
21319TIP3   OH263833   6.125   8.441   6.126
21319TIP3    H163834   6.185   8.501   6.169
21319TIP3    H263835   6.179   8.391   6.065
21320TIP3   OH263836   7.037   8.920   6.961
21320TIP3    H163837   6.966   8.983   6.974
21320TIP3    H263838   7.085   8.954   6.886
21321TIP3   OH263839   6.529   8.751   6.355
21321TIP3    H163840   6.475   8.777   6.429
21321TIP3    H263841   6.613   8.726   6.394
21322TIP3   OH263842   6.714   8.815   7.246
21322TIP3    H163843   6.710   8.910   7.262
21322TIP3    H263844   6.625   8.792   7.220
21323TIP3   OH263845   5.764   8.735   6.760
21323TIP3    H163846   5.729   8.670   6.700
21323TIP3    H263847   5.836   8.690   6.805
21324TIP3   OH263848   5.895   9.161   6.921
21324TIP3    H163849   5.871   9.152   6.828
21324TIP3    H263850   5.982   9.122   6.927
21325TIP3   OH263851   5.855   8.732   7.138
21325TIP3    H163852   5.896   8.695   7.060
21325TIP3    H263853   5.903   8.813   7.154
21326TIP3   OH263854   9.706   0.110   6.907
21326TIP3    H163855   9.673   0.189   6.951
21326TIP3    H263856   9.681   0.039   6.966
21327TIP3   OH263857   9.302   0.014   7.482
21327TIP3    H163858   9.242   0.079   7.519
21327TIP3    H263859   9.247  -0.035   7.420
21328TIP3   OH263860   6.354   8.608   6.194
21328TIP3    H163861   6.416   8.666   6.239
21328TIP3    H263862   6.381   8.612   6.102
21329TIP3   OH263863   5.787   8.800   7.550
21329TIP3    H163864   5.790   8.894   7.564
21329TIP3    H263865   5.694   8.777   7.559
21330TIP3   OH263866   9.380   0.044   6.453
21330TIP3    H163867   9.465   0.088   6.457
21330TIP3    H263868   9.324   0.105   6.405
21331TIP3   OH263869   9.110   0.200   7.541
21331TIP3    H163870   9.082   0.218   7.451
21331TIP3    H263871   9.029   0.175   7.587
21332TIP3   OH263872   6.872   7.841   6.257
21332TIP3    H163873   6.797   7.863   6.311
21332TIP3    H263874   6.884   7.916   6.199
21333TIP3   OH263875   5.633   8.567   6.564
21333TIP3    H163876   5.558   8.620   6.538
21333TIP3    H263877   5.594   8.492   6.609
21334TIP3   OH263878   6.700   9.218   5.810
21334TIP3    H163879   6.695   9.310   5.786
21334TIP3    H263880   6.790   9.192   5.787
21335TIP3   OH263881   5.400   8.961   7.477
21335TIP3    H163882   5.332   8.934   7.416
21335TIP3    H263883   5.441   8.880   7.505
21336TIP3   OH263884   5.290   9.146   7.145
21336TIP3    H163885   5.385   9.148   7.133
21336TIP3    H263886   5.271   9.227   7.193
21337TIP3   OH263887   9.516   0.145   7.367
21337TIP3    H163888   9.473   0.204   7.305
21337TIP3    H263889   9.444   0.108   7.418
21338TIP3   OH263890   9.272   0.249   6.282
21338TIP3    H163891   9.230   0.240   6.196
21338TIP3    H263892   9.245   0.335   6.313
21339TIP3   OH263893   8.697   0.100   6.645
21339TIP3    H163894   8.749   0.095   6.725
21339TIP3    H263895   8.654   0.015   6.638
21340TIP3   OH263896   9.463   0.198   5.914
21340TIP3    H163897   9.512   0.125   5.875
21340TIP3    H263898   9.502   0.210   6.000
21341TIP3   OH263899   9.526   0.234   6.182
21341TIP3    H163900   9.440   0.233   6.224
21341TIP3    H263901   9.585   0.198   6.247
21342TIP3   OH263902   7.050   8.723   7.454
21342TIP3    H163903   7.038   8.792   7.388
21342TIP3    H263904   6.975   8.666   7.443
21343TIP3   OH263905   5.589   9.154   7.422
21343TIP3    H163906   5.652   9.136   7.491
21343TIP3    H263907   5.520   9.088   7.435
21344TIP3   OH263908   5.999   7.964   7.274
21344TIP3    H163909   5.916   7.927   7.244
21344TIP3    H263910   5.974   8.043   7.323
21345TIP3   OH263911   6.518   8.107   7.483
21345TIP3    H163912   6.574   8.067   7.549
21345TIP3    H263913   6.429   8.091   7.513
21346TIP3   OH263914   6.814   8.594   7.383
21346TIP3    H163915   6.749   8.560   7.444
21346TIP3    H263916   6.769   8.666   7.338
21347TIP3   OH263917   6.437   8.587   5.931
21347TIP3    H163918   6.395   8.595   5.845
21347TIP3    H263919   6.522   8.630   5.920
21348TIP3   OH263920   6.091   8.021   6.237
21348TIP3    H163921   6.097   8.029   6.333
21348TIP3    H263922   6.053   7.935   6.223
21349TIP3   OH263923   5.936   8.512   7.287
21349TIP3    H163924   5.890   8.515   7.370
21349TIP3    H263925   5.912   8.594   7.243
21350TIP3   OH263926   5.815   8.371   6.801
21350TIP3    H163927   5.729   8.339   6.825
21350TIP3    H263928   5.823   8.350   6.708
21351TIP3   OH263929   6.298   8.453   6.536
21351TIP3    H163930   6.251   8.525   6.495
21351TIP3    H263931   6.358   8.421   6.468
21352TIP3   OH263932   6.497   8.790   7.580
21352TIP3    H163933   6.481   8.704   7.620
21352TIP3    H263934   6.577   8.821   7.623
21353TIP3   OH263935   6.468   8.472   6.758
21353TIP3    H163936   6.398   8.492   6.695
21353TIP3    H263937   6.515   8.398   6.718
21354TIP3   OH263938   5.774   8.508   7.506
21354TIP3    H163939   5.785   8.570   7.578
21354TIP3    H263940   5.754   8.425   7.548
21355TIP3   OH263941   5.352   8.032   7.117
21355TIP3    H163942   5.433   8.068   7.153
21355TIP3    H263943   5.374   8.011   7.026
21356TIP3   OH263944   5.290   8.013   6.609
21356TIP3    H163945   5.334   8.047   6.531
21356TIP3    H263946   5.222   8.077   6.629
21357TIP3   OH263947   6.455   8.721   7.182
21357TIP3    H163948   6.490   8.655   7.122
21357TIP3    H263949   6.430   8.671   7.260
21358TIP3   OH263950   6.188   8.180   6.870
21358TIP3    H163951   6.111   8.184   6.926
21358TIP3    H263952   6.261   8.168   6.931
21359TIP3   OH263953   5.576   8.249   6.858
21359TIP3    H163954   5.488   8.268   6.826
21359TIP3    H263955   5.581   8.154   6.859
21360TIP3   OH263956   5.861   8.345   6.523
21360TIP3    H163957   5.950   8.319   6.547
21360TIP3    H263958   5.863   8.440   6.518
21361TIP3   OH263959   6.635   8.265   7.070
21361TIP3    H163960   6.627   8.283   7.164
21361TIP3    H263961   6.565   8.202   7.052
21362TIP3   OH263962   5.770   9.072   7.607
21362TIP3    H163963   5.858   9.076   7.646
21362TIP3    H263964   5.711   9.077   7.682
21363TIP3   OH263965   6.223   8.542   6.958
21363TIP3    H163966   6.297   8.497   6.918
21363TIP3    H263967   6.217   8.504   7.046
21364TIP3   OH263968   5.813   7.970   6.883
21364TIP3    H163969   5.745   7.911   6.916
21364TIP3    H263970   5.887   7.914   6.864
21365TIP3   OH263971   6.194   8.444   7.218
21365TIP3    H163972   6.108   8.475   7.245
21365TIP3    H263973   6.255   8.490   7.275
21366TIP3   OH263974   5.931   8.794   6.355
21366TIP3    H163975   5.856   8.743   6.325
21366TIP3    H263976   5.897   8.846   6.428
21367TIP3   OH263977   6.769   9.061   7.006
21367TIP3    H163978   6.817   9.113   6.942
21367TIP3    H263979   6.709   9.008   6.953
21368TIP3   OH263980   6.371   8.116   6.265
21368TIP3    H163981   6.277   8.111   6.245
21368TIP3    H263982   6.390   8.209   6.270
21369TIP3   OH263983   6.326   9.113   7.339
21369TIP3    H163984   6.366   9.082   7.420
21369TIP3    H263985   6.296   9.202   7.359
21370TIP3   OH263986   6.460   8.376   6.318
21370TIP3    H163987   6.555   8.380   6.330
21370TIP3    H263988   6.439   8.454   6.267
21371TIP3   OH263989   5.623   8.806   6.992
21371TIP3    H163990   5.664   8.794   6.906
21371TIP3    H263991   5.689   8.777   7.054
21372TIP3   OH263992   6.084   8.954   6.191
21372TIP3    H163993   6.037   9.038   6.188
21372TIP3    H263994   6.029   8.898   6.247
21373TIP3   OH263995   5.516   8.744   7.605
21373TIP3    H163996   5.542   8.749   7.697
21373TIP3    H263997   5.440   8.686   7.604
21374TIP3   OH263998   6.244   8.889   7.611
21374TIP3    H163999   6.179   8.827   7.580
21374TIP3    H264000   6.328   8.855   7.580
21375TIP3   OH264001   9.793   0.135   7.304
21375TIP3    H164002   9.702   0.135   7.333
21375TIP3    H264003   9.793   0.185   7.222
21376TIP3   OH264004   6.871   8.474   6.139
21376TIP3    H164005   6.811   8.431   6.078
21376TIP3    H264006   6.880   8.563   6.105
21377TIP3   OH264007   0.086   0.042   6.070
21377TIP3    H164008   0.058  -0.034   6.122
21377TIP3    H264009   0.108   0.006   5.985
21378TIP3   OH264010   6.582   8.914   6.855
21378TIP3    H164011   6.490   8.891   6.869
21378TIP3    H264012   6.621   8.835   6.817
21379TIP3   OH264013   5.758   9.179   6.673
21379TIP3    H164014   5.755   9.241   6.599
21379TIP3    H264015   5.699   9.216   6.738
21380TIP3   OH264016   5.309   8.433   6.390
21380TIP3    H164017   5.354   8.516   6.409
21380TIP3    H264018   5.229   8.436   6.443
21381TIP3   OH264019   5.801   8.928   6.556
21381TIP3    H164020   5.795   9.016   6.593
21381TIP3    H264021   5.789   8.870   6.631
21382TIP3   OH264022   9.333   0.243   7.168
21382TIP3    H164023   9.328   0.322   7.115
21382TIP3    H264024   9.344   0.172   7.105
21383TIP3   OH264025   8.927   0.140   6.493
21383TIP3    H164026   8.844   0.140   6.540
21383TIP3    H264027   8.964   0.227   6.507
21384TIP3   OH264028   6.391   9.138   7.076
21384TIP3    H164029   6.370   9.127   7.169
21384TIP3    H264030   6.465   9.079   7.062
21385TIP3   OH264031   6.388   9.028   5.973
21385TIP3    H164032   6.429   9.010   6.057
21385TIP3    H264033   6.305   8.980   5.976
21386TIP3   OH264034   0.167   0.250   5.774
21386TIP3    H164035   0.210   0.319   5.723
21386TIP3    H264036   0.086   0.290   5.805
21387TIP3   OH264037   5.716   8.258   7.611
21387TIP3    H164038   5.620   8.263   7.614
21387TIP3    H264039   5.740   8.210   7.690
21388TIP3   OH264040   6.556   8.976   6.193
21388TIP3    H164041   6.539   8.899   6.248
21388TIP3    H264042   6.650   8.970   6.172
21389TIP3   OH264043   8.738   0.119   7.284
21389TIP3    H164044   8.777   0.046   7.333
21389TIP3    H264045   8.803   0.189   7.289
21390TIP3   OH264046   5.730   8.990   5.992
21390TIP3    H164047   5.741   8.900   5.961
21390TIP3    H264048   5.716   8.982   6.086
21391TIP3   OH264049   5.667   9.000   6.268
21391TIP3    H164050   5.716   8.981   6.347
21391TIP3    H264051   5.669   9.095   6.260
21392TIP3   OH264052   5.405   8.690   6.464
21392TIP3    H164053   5.338   8.732   6.519
21392TIP3    H264054   5.418   8.751   6.392
21393TIP3   OH264055   6.587   8.325   7.336
21393TIP3    H164056   6.633   8.372   7.406
21393TIP3    H264057   6.559   8.244   7.377
21394TIP3   OH264058   6.459   8.067   6.526
21394TIP3    H164059   6.429   8.085   6.437
21394TIP3    H264060   6.503   8.147   6.553
21395TIP3   OH264061   5.944   9.185   6.185
21395TIP3    H164062   5.856   9.210   6.215
21395TIP3    H264063   5.978   9.264   6.144
21396TIP3   OH264064   6.109   8.277   6.624
21396TIP3    H164065   6.177   8.338   6.597
21396TIP3    H264066   6.133   8.252   6.713
21397TIP3   OH264067   6.399   8.537   7.380
21397TIP3    H164068   6.410   8.554   7.474
21397TIP3    H264069   6.458   8.464   7.363
21398TIP3   OH264070   6.274   7.965   6.707
21398TIP3    H164071   6.255   8.042   6.762
21398TIP3    H264072   6.344   7.994   6.648
21399TIP3   OH264073   8.956   0.034   6.244
21399TIP3    H164074   8.923   0.100   6.183
21399TIP3    H264075   8.945   0.073   6.330
21400TIP3   OH264076   5.820   8.078   6.417
21400TIP3    H164077   5.786   8.111   6.500
21400TIP3    H264078   5.902   8.034   6.440
21401TIP3   OH264079   7.018   8.411   7.346
21401TIP3    H164080   6.941   8.468   7.356
21401TIP3    H264081   6.992   8.348   7.279
21402TIP3   OH264082   6.681   8.664   6.758
21402TIP3    H164083   6.605   8.606   6.766
21402TIP3    H264084   6.748   8.624   6.814
21403TIP3   OH264085   5.417   8.870   6.249
21403TIP3    H164086   5.489   8.933   6.261
21403TIP3    H264087   5.450   8.809   6.183
21404TIP3   OH264088   5.352   8.156   6.379
21404TIP3    H164089   5.340   8.251   6.381
21404TIP3    H264090   5.285   8.125   6.317
21405TIP3   OH264091   0.142   0.374   6.680
21405TIP3    H164092   0.091   0.436   6.627
21405TIP3    H264093   0.189   0.430   6.742
21406TIP3   OH264094   5.738   7.877   7.232
21406TIP3    H164095   5.704   7.833   7.154
21406TIP3    H264096   5.731   7.811   7.301
21407TIP3   OH264097   5.250   9.105   6.652
21407TIP3    H164098   5.237   9.148   6.737
21407TIP3    H264099   5.199   9.158   6.591
21408TIP3   OH264100   8.703   0.409   7.689
21408TIP3    H164101   8.791   0.386   7.719
21408TIP3    H264102   8.657   0.325   7.685
21409TIP3   OH264103   5.887   9.192   5.882
21409TIP3    H164104   5.840   9.123   5.929
21409TIP3    H264105   5.963   9.149   5.844
21410TIP3   OH264106   6.325   9.229   5.792
21410TIP3    H164107   6.366   9.167   5.853
21410TIP3    H264108   6.380   9.225   5.714
21411TIP3   OH264109   5.597   9.070   7.815
21411TIP3    H164110   5.606   8.981   7.847
21411TIP3    H264111   5.507   9.076   7.783
21412TIP3   OH264112   5.551   8.684   6.096
21412TIP3    H164113   5.604   8.656   6.171
21412TIP3    H264114   5.614   8.700   6.026
21413TIP3   OH264115   6.237   9.159   7.642
21413TIP3    H164116   6.167   9.188   7.584
21413TIP3    H264117   6.246   9.066   7.624
21414TIP3   OH264118   6.140   8.897   5.931
21414TIP3    H164119   6.112   8.910   6.021
21414TIP3    H264120   6.120   8.805   5.912
21415TIP3   OH264121   6.667   9.096   7.259
21415TIP3    H164122   6.709   9.099   7.173
21415TIP3    H264123   6.628   9.183   7.269
21416TIP3   OH264124   5.646   8.795   7.846
21416TIP3    H164125   5.726   8.742   7.850
21416TIP3    H264126   5.604   8.783   7.931
21417TIP3   OH264127   5.729   8.603   6.301
21417TIP3    H164128   5.698   8.588   6.390
21417TIP3    H264129   5.773   8.521   6.276
21418TIP3   OH264130   6.049   8.700   7.527
21418TIP3    H164131   5.960   8.735   7.536
21418TIP3    H264132   6.076   8.726   7.439
21419TIP3   OH264133   5.865   8.341   6.178
21419TIP3    H164134   5.832   8.372   6.093
21419TIP3    H264135   5.956   8.370   6.180
21420TIP3   OH264136   6.658   8.722   5.834
21420TIP3    H164137   6.648   8.683   5.747
21420TIP3    H264138   6.636   8.814   5.822
21421TIP3   OH264139   6.145   8.471   7.639
21421TIP3    H164140   6.144   8.397   7.577
21421TIP3    H264141   6.112   8.545   7.588
21422TIP3   OH264142   6.152   8.270   7.448
21422TIP3    H164143   6.177   8.301   7.361
21422TIP3    H264144   6.062   8.237   7.437
21423TIP3   OH264145   6.164   8.792   7.299
21423TIP3    H164146   6.253   8.814   7.271
21423TIP3    H264147   6.109   8.861   7.262
21424TIP3   OH264148   5.957   8.605   7.816
21424TIP3    H164149   5.922   8.527   7.858
21424TIP3    H264150   6.022   8.572   7.754
21425TIP3   OH264151   6.270   8.036   7.551
21425TIP3    H164152   6.221   8.116   7.531
21425TIP3    H264153   6.204   7.968   7.557
21426TIP3   OH264154   6.414   8.542   7.678
21426TIP3    H164155   6.420   8.584   7.763
21426TIP3    H264156   6.324   8.511   7.672
21427TIP3   OH264157   6.652   8.466   7.564
21427TIP3    H164158   6.574   8.491   7.614
21427TIP3    H264159   6.721   8.457   7.630
21428TIP3   OH264160   6.827   8.441   7.769
21428TIP3    H164161   6.821   8.355   7.811
21428TIP3    H264162   6.854   8.500   7.839
21429TIP3   OH264163   5.851   8.376   7.914
21429TIP3    H164164   5.846   8.284   7.887
21429TIP3    H264165   5.823   8.375   8.006
21430TIP3   OH264166   6.459   8.246   7.810
21430TIP3    H164167   6.514   8.281   7.740
21430TIP3    H264168   6.396   8.316   7.828
21431TIP3   OH264169   8.941   0.254   6.055
21431TIP3    H164170   9.034   0.235   6.046
21431TIP3    H264171   8.938   0.341   6.095
21432TIP3   OH264172   5.140   8.870   6.286
21432TIP3    H164173   5.234   8.884   6.271
21432TIP3    H264174   5.119   8.791   6.238
21433TIP3   OH264175   8.347   0.193   6.737
21433TIP3    H164176   8.280   0.145   6.688
21433TIP3    H264177   8.390   0.126   6.790
21434TIP3   OH264178   8.492   0.013   6.889
21434TIP3    H164179   8.485  -0.048   6.963
21434TIP3    H264180   8.544   0.086   6.923
21435TIP3   OH264181   6.830   8.942   6.156
21435TIP3    H164182   6.890   9.009   6.124
21435TIP3    H264183   6.877   8.901   6.229
21436TIP3   OH264184   6.958   8.794   6.352
21436TIP3    H164185   6.890   8.756   6.408
21436TIP3    H264186   7.025   8.826   6.413
21437TIP3   OH264187   6.930   9.166   6.814
21437TIP3    H164188   7.007   9.130   6.771
21437TIP3    H264189   6.882   9.209   6.743
21438TIP3   OH264190   6.873   8.714   6.004
21438TIP3    H164191   6.801   8.710   5.942
21438TIP3    H264192   6.856   8.793   6.055
21439TIP3   OH264193   6.708   8.364   5.949
21439TIP3    H164194   6.663   8.396   5.871
21439TIP3    H264195   6.706   8.269   5.942
21440TIP3   OH264196   6.756   8.658   6.490
21440TIP3    H164197   6.765   8.563   6.481
21440TIP3    H264198   6.737   8.671   6.583
21441TIP3   OH264199   5.373   8.718   7.267
21441TIP3    H164200   5.365   8.681   7.179
21441TIP3    H264201   5.465   8.707   7.289
21442TIP3   OH264202   6.684   8.092   5.922
21442TIP3    H164203   6.753   8.064   5.982
21442TIP3    H264204   6.604   8.051   5.955
21443TIP3   OH264205   6.751   8.376   6.377
21443TIP3    H164206   6.800   8.295   6.390
21443TIP3    H264207   6.792   8.417   6.301
21444TIP3   OH264208   6.887   8.536   6.901
21444TIP3    H164209   6.966   8.557   6.852
21444TIP3    H264210   6.897   8.583   6.984
21445TIP3   OH264211   6.948   8.711   7.112
21445TIP3    H164212   6.870   8.743   7.157
21445TIP3    H264213   6.979   8.786   7.060
21446TIP3   OH264214   5.581   8.393   7.855
21446TIP3    H164215   5.675   8.400   7.873
21446TIP3    H264216   5.553   8.314   7.901
21447TIP3   OH264217   6.871   8.130   6.432
21447TIP3    H164218   6.918   8.115   6.515
21447TIP3    H264219   6.808   8.058   6.427
21448TIP3   OH264220   5.584   8.108   7.243
21448TIP3    H164221   5.636   8.028   7.249
21448TIP3    H264222   5.649   8.178   7.232
21449TIP3   OH264223   5.356   8.368   7.310
21449TIP3    H164224   5.411   8.373   7.232
21449TIP3    H264225   5.409   8.406   7.380
21450TIP3   OH264226   7.326   8.396   7.613
21450TIP3    H164227   7.250   8.441   7.651
21450TIP3    H264228   7.322   8.416   7.520
21451TIP3   OH264229   6.913   8.039   6.071
21451TIP3    H164230   6.963   7.979   6.016
21451TIP3    H264231   6.966   8.119   6.075
21452TIP3   OH264232   5.354   7.914   6.865
21452TIP3    H164233   5.265   7.884   6.883
21452TIP3    H264234   5.355   7.933   6.772
21453TIP3   OH264235   9.765   0.369   6.339
21453TIP3    H164236   9.812   0.354   6.257
21453TIP3    H264237   9.818   0.432   6.387
21454TIP3   OH264238   5.572   7.968   7.669
21454TIP3    H164239   5.509   7.935   7.733
21454TIP3    H264240   5.517   8.001   7.598
21455TIP3   OH264241   8.876   0.136   7.679
21455TIP3    H164242   8.790   0.129   7.638
21455TIP3    H264243   8.866   0.088   7.762
21456TIP3   OH264244   9.063   0.216   7.258
21456TIP3    H164245   9.011   0.260   7.191
21456TIP3    H264246   9.154   0.239   7.237
21457TIP3   OH264247   7.196   8.121   7.345
21457TIP3    H164248   7.108   8.096   7.316
21457TIP3    H264249   7.247   8.040   7.340
21458TIP3   OH264250   9.370   0.457   6.973
21458TIP3    H164251   9.327   0.449   6.888
21458TIP3    H264252   9.305   0.499   7.029
21459TIP3   OH264253   9.624   0.358   6.991
21459TIP3    H164254   9.536   0.394   7.000
21459TIP3    H264255   9.658   0.397   6.911
21460TIP3   OH264256   8.635   0.196   7.044
21460TIP3    H164257   8.671   0.164   7.127
21460TIP3    H264258   8.698   0.261   7.014
21461TIP3   OH264259   8.862   0.070   6.858
21461TIP3    H164260   8.860   0.005   6.928
21461TIP3    H264261   8.874   0.153   6.904
21462TIP3   OH264262   9.169   0.209   6.900
21462TIP3    H164263   9.160   0.114   6.907
21462TIP3    H264264   9.089   0.243   6.939
21463TIP3   OH264265   6.408   8.078   7.011
21463TIP3    H164266   6.360   8.007   7.054
21463TIP3    H264267   6.476   8.035   6.961
21464TIP3   OH264268   6.911   8.005   6.890
21464TIP3    H164269   6.950   8.055   6.818
21464TIP3    H264270   6.820   8.035   6.894
21465TIP3   OH264271   7.029   8.076   6.653
21465TIP3    H164272   7.099   8.014   6.630
21465TIP3    H264273   7.068   8.162   6.640
21466TIP3   OH264274   5.631   7.782   6.985
21466TIP3    H164275   5.542   7.795   6.955
21466TIP3    H264276   5.666   7.713   6.930
21467TIP3   OH264277   5.439   7.659   6.617
21467TIP3    H164278   5.474   7.716   6.549
21467TIP3    H264279   5.514   7.639   6.673
21468TIP3   OH264280   6.088   7.848   6.892
21468TIP3    H164281   6.150   7.879   6.826
21468TIP3    H264282   6.132   7.861   6.975
21469TIP3   OH264283   6.621   7.959   6.882
21469TIP3    H164284   6.644   7.924   6.796
21469TIP3    H264285   6.633   7.885   6.942
21470TIP3   OH264286   6.682   7.921   6.441
21470TIP3    H164287   6.603   7.968   6.468
21470TIP3    H264288   6.673   7.834   6.480
21471TIP3   OH264289   8.379   0.015   6.471
21471TIP3    H164290   8.323  -0.005   6.396
21471TIP3    H264291   8.420   0.098   6.448
21472TIP3   OH264292   5.586   7.817   6.409
21472TIP3    H164293   5.628   7.743   6.364
21472TIP3    H264294   5.651   7.846   6.472
21473TIP3   OH264295   6.074   8.029   6.509
21473TIP3    H164296   6.118   7.966   6.566
21473TIP3    H264297   6.090   8.114   6.551
21474TIP3   OH264298   9.205   0.186   6.014
21474TIP3    H164299   9.290   0.210   5.976
21474TIP3    H264300   9.178   0.108   5.966
21475TIP3   OH264301   0.096   0.313   6.102
21475TIP3    H164302   0.095   0.217   6.096
21475TIP3    H264303   0.055   0.342   6.021
21476TIP3   OH264304   5.795   8.118   7.840
21476TIP3    H164305   5.733   8.047   7.822
21476TIP3    H264306   5.876   8.073   7.863
21477TIP3   OH264307   6.030   8.014   7.943
21477TIP3    H164308   6.120   8.044   7.936
21477TIP3    H264309   6.036   7.928   7.985
21478TIP3   OH264310   8.501  -0.008   6.066
21478TIP3    H164311   8.497   0.045   6.146
21478TIP3    H264312   8.592  -0.037   6.062
21479TIP3   OH264313   6.982   8.046   7.797
21479TIP3    H164314   7.017   8.057   7.886
21479TIP3    H264315   7.042   8.095   7.741
21480TIP3   OH264316   7.111   8.567   6.275
21480TIP3    H164317   7.073   8.652   6.298
21480TIP3    H264318   7.039   8.518   6.234
21481TIP3   OH264319   7.177   8.860   6.508
21481TIP3    H164320   7.218   8.780   6.539
21481TIP3    H264321   7.249   8.919   6.488
21482TIP3   OH264322   7.697   8.453   6.468
21482TIP3    H164323   7.674   8.516   6.399
21482TIP3    H264324   7.653   8.372   6.442
21483TIP3   OH264325   8.376   8.561   6.132
21483TIP3    H164326   8.442   8.515   6.184
21483TIP3    H264327   8.419   8.578   6.049
21484TIP3   OH264328   7.322   8.646   6.599
21484TIP3    H164329   7.406   8.628   6.641
21484TIP3    H264330   7.327   8.598   6.516
21485TIP3   OH264331   7.707   8.850   6.399
21485TIP3    H164332   7.802   8.846   6.390
21485TIP3    H264333   7.675   8.768   6.359
21486TIP3   OH264334   7.680   8.443   6.915
21486TIP3    H164335   7.638   8.489   6.842
21486TIP3    H264336   7.621   8.458   6.989
21487TIP3   OH264337   7.575   8.566   6.687
21487TIP3    H164338   7.627   8.645   6.698
21487TIP3    H264339   7.619   8.518   6.617
21488TIP3   OH264340   7.005   9.124   6.038
21488TIP3    H164341   6.974   9.141   5.949
21488TIP3    H264342   7.034   9.210   6.069
21489TIP3   OH264343   7.995   8.168   6.603
21489TIP3    H164344   8.000   8.079   6.639
21489TIP3    H264345   7.930   8.212   6.659
21490TIP3   OH264346   7.966   8.889   5.923
21490TIP3    H164347   7.889   8.943   5.906
21490TIP3    H264348   8.023   8.903   5.848
21491TIP3   OH264349   7.931   8.718   5.592
21491TIP3    H164350   7.981   8.779   5.646
21491TIP3    H264351   7.994   8.653   5.564
21492TIP3   OH264352   7.523   8.994   6.253
21492TIP3    H164353   7.494   8.934   6.184
21492TIP3    H264354   7.592   8.946   6.299
21493TIP3   OH264355   8.142   8.860   5.713
21493TIP3    H164356   8.200   8.784   5.718
21493TIP3    H264357   8.153   8.893   5.624
21494TIP3   OH264358   8.657   8.093   5.741
21494TIP3    H164359   8.576   8.119   5.785
21494TIP3    H264360   8.680   8.168   5.688
21495TIP3   OH264361   7.424   8.823   6.052
21495TIP3    H164362   7.347   8.872   6.021
21495TIP3    H264363   7.392   8.734   6.064
21496TIP3   OH264364   0.685   0.392   6.144
21496TIP3    H164365   0.711   0.372   6.234
21496TIP3    H264366   0.639   0.313   6.115
21497TIP3   OH264367   1.587   0.497   5.484
21497TIP3    H164368   1.626   0.409   5.484
21497TIP3    H264369   1.554   0.509   5.573
21498TIP3   OH264370   7.791   8.233   6.783
21498TIP3    H164371   7.706   8.203   6.752
21498TIP3    H264372   7.772   8.311   6.835
21499TIP3   OH264373   8.182   8.910   5.448
21499TIP3    H164374   8.132   8.866   5.379
21499TIP3    H264375   8.271   8.876   5.439
21500TIP3   OH264376   7.981   8.225   5.790
21500TIP3    H164377   7.912   8.228   5.856
21500TIP3    H264378   7.948   8.164   5.724
21501TIP3   OH264379   7.602   8.628   6.281
21501TIP3    H164380   7.514   8.606   6.312
21501TIP3    H264381   7.605   8.593   6.191
21502TIP3   OH264382   8.109   8.682   6.017
21502TIP3    H164383   8.058   8.759   5.994
21502TIP3    H264384   8.154   8.657   5.936
21503TIP3   OH264385   7.616   8.253   5.718
21503TIP3    H164386   7.597   8.248   5.812
21503TIP3    H264387   7.538   8.294   5.681
21504TIP3   OH264388   7.162   8.296   6.574
21504TIP3    H164389   7.233   8.332   6.626
21504TIP3    H264390   7.201   8.277   6.489
21505TIP3   OH264391   7.058   8.276   6.081
21505TIP3    H164392   7.104   8.312   6.006
21505TIP3    H264393   6.994   8.344   6.104
21506TIP3   OH264394   8.058   8.536   6.292
21506TIP3    H164395   7.986   8.567   6.346
21506TIP3    H264396   8.087   8.455   6.334
21507TIP3   OH264397   7.367   8.512   6.363
21507TIP3    H164398   7.280   8.517   6.323
21507TIP3    H264399   7.395   8.422   6.347
21508TIP3   OH264400   7.602   8.504   6.038
21508TIP3    H164401   7.696   8.509   6.021
21508TIP3    H264402   7.561   8.524   5.954
21509TIP3   OH264403   7.493   8.544   5.794
21509TIP3    H164404   7.439   8.490   5.735
21509TIP3    H264405   7.551   8.592   5.735
21510TIP3   OH264406   7.518   8.266   6.348
21510TIP3    H164407   7.491   8.190   6.400
21510TIP3    H264408   7.540   8.230   6.263
21511TIP3   OH264409   7.743   9.039   5.857
21511TIP3    H164410   7.663   8.993   5.829
21511TIP3    H264411   7.716   9.086   5.936
21512TIP3   OH264412   8.259   8.579   5.815
21512TIP3    H164413   8.355   8.578   5.818
21512TIP3    H264414   8.238   8.563   5.722
21513TIP3   OH264415   7.403   9.019   6.502
21513TIP3    H164416   7.427   9.029   6.410
21513TIP3    H264417   7.487   9.012   6.547
21514TIP3   OH264418   7.863   9.204   5.673
21514TIP3    H164419   7.824   9.286   5.705
21514TIP3    H264420   7.836   9.138   5.738
21515TIP3   OH264421   8.698   8.637   5.670
21515TIP3    H164422   8.630   8.592   5.619
21515TIP3    H264423   8.685   8.730   5.650
21516TIP3   OH264424   0.955   0.151   6.089
21516TIP3    H164425   0.963   0.243   6.063
21516TIP3    H264426   0.863   0.129   6.071
21517TIP3   OH264427   7.112   8.698   5.866
21517TIP3    H164428   7.154   8.781   5.886
21517TIP3    H264429   7.031   8.699   5.915
21518TIP3   OH264430   7.646   9.167   6.074
21518TIP3    H164431   7.606   9.254   6.081
21518TIP3    H264432   7.606   9.117   6.144
21519TIP3   OH264433   0.921   0.415   6.004
21519TIP3    H164434   0.836   0.429   6.045
21519TIP3    H264435   0.956   0.503   5.989
21520TIP3   OH264436   8.172   9.190   5.442
21520TIP3    H164437   8.204   9.212   5.529
21520TIP3    H264438   8.164   9.094   5.442
21521TIP3   OH264439   7.470   8.490   7.084
21521TIP3    H164440   7.390   8.543   7.082
21521TIP3    H264441   7.446   8.411   7.132
21522TIP3   OH264442   7.509   9.229   5.471
21522TIP3    H164443   7.532   9.142   5.441
21522TIP3    H264444   7.501   9.221   5.566
21523TIP3   OH264445   0.939   0.007   5.746
21523TIP3    H164446   1.017  -0.012   5.798
21523TIP3    H264447   0.930   0.102   5.750
21524TIP3   OH264448   7.202   8.949   5.947
21524TIP3    H164449   7.137   8.997   5.998
21524TIP3    H264450   7.222   9.007   5.873
21525TIP3   OH264451   8.194   8.326   5.929
21525TIP3    H164452   8.128   8.288   5.871
21525TIP3    H264453   8.220   8.407   5.887
21526TIP3   OH264454   1.198   0.194   5.741
21526TIP3    H164455   1.109   0.219   5.764
21526TIP3    H264456   1.231   0.266   5.688
21527TIP3   OH264457   7.881   8.509   6.052
21527TIP3    H164458   7.929   8.566   5.993
21527TIP3    H264459   7.924   8.520   6.137
21528TIP3   OH264460   8.082   8.202   6.155
21528TIP3    H164461   8.127   8.238   6.231
21528TIP3    H264462   8.127   8.240   6.080
21529TIP3   OH264463   0.935   0.277   5.770
21529TIP3    H164464   0.929   0.348   5.706
21529TIP3    H264465   0.928   0.321   5.855
21530TIP3   OH264466   7.561   8.231   5.994
21530TIP3    H164467   7.552   8.323   6.018
21530TIP3    H264468   7.654   8.211   6.008
21531TIP3   OH264469   7.226   9.125   5.732
21531TIP3    H164470   7.301   9.183   5.743
21531TIP3    H264471   7.254   9.062   5.666
21532TIP3   OH264472   7.139   8.420   5.864
21532TIP3    H164473   7.148   8.515   5.872
21532TIP3    H264474   7.107   8.407   5.775
21533TIP3   OH264475   7.534   8.142   6.729
21533TIP3    H164476   7.507   8.111   6.643
21533TIP3    H264477   7.529   8.064   6.785
21534TIP3   OH264478   0.539   0.150   6.119
21534TIP3    H164479   0.497   0.182   6.198
21534TIP3    H264480   0.488   0.190   6.047
21535TIP3   OH264481   1.155   0.173   5.379
21535TIP3    H164482   1.092   0.108   5.411
21535TIP3    H264483   1.240   0.141   5.409
21536TIP3   OH264484   1.656   0.244   5.396
21536TIP3    H164485   1.713   0.171   5.422
21536TIP3    H264486   1.678   0.259   5.304
21537TIP3   OH264487   7.342   8.933   5.579
21537TIP3    H164488   7.396   8.911   5.656
21537TIP3    H264489   7.406   8.942   5.508
21538TIP3   OH264490   7.808   9.121   5.415
21538TIP3    H164491   7.827   9.138   5.507
21538TIP3    H264492   7.808   9.026   5.407
21539TIP3   OH264493   7.521   8.882   5.790
21539TIP3    H164494   7.499   8.846   5.876
21539TIP3    H264495   7.570   8.812   5.746
21540TIP3   OH264496   7.661   8.696   5.642
21540TIP3    H164497   7.630   8.693   5.551
21540TIP3    H264498   7.756   8.699   5.635
21541TIP3   OH264499   8.444   8.874   5.383
21541TIP3    H164500   8.493   8.840   5.307
21541TIP3    H264501   8.426   8.965   5.362
21542TIP3   OH264502   0.957   0.507   5.623
21542TIP3    H164503   1.034   0.473   5.578
21542TIP3    H264504   0.900   0.537   5.552
21543TIP3   OH264505   6.954   9.125   5.752
21543TIP3    H164506   7.048   9.137   5.744
21543TIP3    H264507   6.936   9.042   5.709
21544TIP3   OH264508   0.304   0.464   6.194
21544TIP3    H164509   0.238   0.415   6.145
21544TIP3    H264510   0.358   0.397   6.235
21545TIP3   OH264511   0.448   0.285   6.351
21545TIP3    H164512   0.394   0.231   6.408
21545TIP3    H264513   0.483   0.354   6.408
21546TIP3   OH264514   8.627   8.891   5.587
21546TIP3    H164515   8.554   8.864   5.533
21546TIP3    H264516   8.639   8.984   5.567
21547TIP3   OH264517   8.493   8.571   5.510
21547TIP3    H164518   8.501   8.612   5.424
21547TIP3    H264519   8.399   8.554   5.520
21548TIP3   OH264520   7.156   9.027   6.725
21548TIP3    H164521   7.139   8.964   6.656
21548TIP3    H264522   7.243   9.062   6.705
21549TIP3   OH264523   8.528   8.571   5.893
21549TIP3    H164524   8.579   8.496   5.923
21549TIP3    H264525   8.586   8.615   5.830
21550TIP3   OH264526   8.668   8.352   5.975
21550TIP3    H164527   8.743   8.307   6.014
21550TIP3    H264528   8.606   8.281   5.957
21551TIP3   OH264529   7.369   8.363   6.748
21551TIP3    H164530   7.426   8.286   6.753
21551TIP3    H264531   7.429   8.437   6.743
21552TIP3   OH264532   7.121   8.628   6.795
21552TIP3    H164533   7.184   8.626   6.723
21552TIP3    H264534   7.158   8.691   6.857
21553TIP3   OH264535   8.738   8.297   5.583
21553TIP3    H164536   8.764   8.240   5.510
21553TIP3    H264537   8.732   8.384   5.543
21554TIP3   OH264538   7.141   8.148   6.308
21554TIP3    H164539   7.057   8.134   6.351
21554TIP3    H264540   7.120   8.200   6.230
21555TIP3   OH264541   7.364   8.231   7.151
21555TIP3    H164542   7.310   8.209   7.226
21555TIP3    H264543   7.302   8.258   7.083
21556TIP3   OH264544   8.150   8.308   6.406
21556TIP3    H164545   8.112   8.265   6.483
21556TIP3    H264546   8.240   8.276   6.402
21557TIP3   OH264547   7.448   8.038   6.489
21557TIP3    H164548   7.359   8.004   6.501
21557TIP3    H264549   7.503   7.959   6.479
21558TIP3   OH264550   7.271   7.951   6.148
21558TIP3    H164551   7.291   7.995   6.066
21558TIP3    H264552   7.235   8.019   6.204
21559TIP3   OH264553   7.913   8.077   6.353
21559TIP3    H164554   7.962   8.126   6.287
21559TIP3    H264555   7.936   8.119   6.436
21560TIP3   OH264556   8.397   8.204   6.344
21560TIP3    H164557   8.470   8.185   6.285
21560TIP3    H264558   8.404   8.137   6.412
21561TIP3   OH264559   8.457   8.179   5.920
21561TIP3    H164560   8.371   8.221   5.915
21561TIP3    H264561   8.441   8.095   5.964
21562TIP3   OH264562   0.401   0.274   5.924
21562TIP3    H164563   0.319   0.238   5.891
21562TIP3    H264564   0.407   0.360   5.883
21563TIP3   OH264565   7.359   8.066   5.900
21563TIP3    H164566   7.407   8.006   5.842
21563TIP3    H264567   7.427   8.123   5.936
21564TIP3   OH264568   7.831   8.241   6.024
21564TIP3    H164569   7.903   8.198   6.071
21564TIP3    H264570   7.849   8.334   6.034
21565TIP3   OH264571   1.196   0.393   5.544
21565TIP3    H164572   1.262   0.452   5.508
21565TIP3    H264573   1.195   0.318   5.485
21566TIP3   OH264574   0.518   0.270   5.553
21566TIP3    H164575   0.527   0.289   5.647
21566TIP3    H264576   0.599   0.223   5.531
21567TIP3   OH264577   9.539   8.529   5.247
21567TIP3    H164578   9.541   8.576   5.330
21567TIP3    H264579   9.446   8.522   5.225
21568TIP3   OH264580   8.979   8.590   5.675
21568TIP3    H164581   9.012   8.599   5.586
21568TIP3    H264582   8.886   8.613   5.669
21569TIP3   OH264583   9.077   8.622   5.410
21569TIP3    H164584   9.139   8.687   5.378
21569TIP3    H264585   8.991   8.660   5.394
21570TIP3   OH264586   8.950   8.338   5.792
21570TIP3    H164587   8.855   8.339   5.781
21570TIP3    H264588   8.977   8.426   5.765
21571TIP3   OH264589   9.054   8.164   5.600
21571TIP3    H164590   9.076   8.221   5.527
21571TIP3    H264591   9.019   8.223   5.667
21572TIP3   OH264592   9.122   8.343   5.401
21572TIP3    H164593   9.188   8.316   5.338
21572TIP3    H264594   9.135   8.438   5.411
21573TIP3   OH264595   1.197   9.114   7.206
21573TIP3    H164596   1.203   9.027   7.166
21573TIP3    H264597   1.273   9.120   7.264
21574TIP3   OH264598   6.528   0.382   7.653
21574TIP3    H164599   6.452   0.440   7.647
21574TIP3    H264600   6.574   0.393   7.570
21575TIP3   OH264601   5.928   0.338   7.302
21575TIP3    H164602   5.988   0.347   7.375
21575TIP3    H264603   5.983   0.347   7.224
21576TIP3   OH264604   6.105   0.391   7.514
21576TIP3    H164605   6.134   0.310   7.557
21576TIP3    H264606   6.185   0.445   7.508
21577TIP3   OH264607   5.432   0.521   6.925
21577TIP3    H164608   5.444   0.611   6.956
21577TIP3    H264609   5.467   0.521   6.836
21578TIP3   OH264610   2.914   9.126   6.904
21578TIP3    H164611   2.838   9.145   6.959
21578TIP3    H264612   2.924   9.205   6.850
21579TIP3   OH264613   5.467   0.025   6.947
21579TIP3    H164614   5.439   0.026   7.038
21579TIP3    H264615   5.427  -0.054   6.910
21580TIP3   OH264616   5.645   0.416   7.067
21580TIP3    H164617   5.576   0.441   7.005
21580TIP3    H264618   5.723   0.405   7.013
21581TIP3   OH264619   5.110  -0.001   6.850
21581TIP3    H164620   5.078   0.071   6.904
21581TIP3    H264621   5.067   0.012   6.765
21582TIP3   OH264622   5.164   0.275   7.206
21582TIP3    H164623   5.256   0.298   7.195
21582TIP3    H264624   5.128   0.275   7.117
21583TIP3   OH264625   5.012   0.232   6.982
21583TIP3    H164626   4.918   0.240   6.997
21583TIP3    H264627   5.024   0.261   6.891
21584TIP3   OH264628   1.676   9.159   7.408
21584TIP3    H164629   1.721   9.185   7.488
21584TIP3    H264630   1.734   9.185   7.337
21585TIP3   OH264631   5.717   0.131   6.944
21585TIP3    H164632   5.630   0.092   6.946
21585TIP3    H264633   5.708   0.208   6.888
21586TIP3   OH264634   5.864   0.409   6.900
21586TIP3    H164635   5.936   0.368   6.949
21586TIP3    H264636   5.892   0.500   6.888
21587TIP3   OH264637   6.288   0.510   6.861
21587TIP3    H164638   6.224   0.480   6.796
21587TIP3    H264639   6.257   0.598   6.885
21588TIP3   OH264640   5.791   0.114   7.206
21588TIP3    H164641   5.765   0.134   7.116
21588TIP3    H264642   5.827   0.196   7.240
21589TIP3   OH264643   5.443   0.322   7.232
21589TIP3    H164644   5.525   0.340   7.186
21589TIP3    H264645   5.448   0.375   7.312
21590TIP3   OH264646   5.609   0.001   7.377
21590TIP3    H164647   5.639   0.041   7.459
21590TIP3    H264648   5.668   0.035   7.310
21591TIP3   OH264649   5.113  -0.002   7.204
21591TIP3    H164650   5.112   0.094   7.205
21591TIP3    H264651   5.205  -0.025   7.198
21592TIP3   OH264652   5.154   0.519   6.894
21592TIP3    H164653   5.138   0.529   6.800
21592TIP3    H264654   5.246   0.492   6.899
21593TIP3   OH264655   6.133   0.420   6.665
21593TIP3    H164656   6.122   0.448   6.574
21593TIP3    H264657   6.080   0.340   6.671
21594TIP3   OH264658   5.954   0.789   7.177
21594TIP3    H164659   5.930   0.697   7.190
21594TIP3    H264660   5.958   0.826   7.265
21595TIP3   OH264661   5.981   0.189   6.639
21595TIP3    H164662   6.060   0.145   6.668
21595TIP3    H264663   5.911   0.124   6.648
21596TIP3   OH264664   6.077   0.364   7.073
21596TIP3    H164665   6.141   0.293   7.068
21596TIP3    H264666   6.129   0.443   7.085
21597TIP3   OH264667   6.223   0.131   7.104
21597TIP3    H164668   6.252   0.123   7.195
21597TIP3    H264669   6.149   0.071   7.096
21598TIP3   OH264670   6.228   0.094   6.728
21598TIP3    H164671   6.275   0.036   6.668
21598TIP3    H264672   6.291   0.163   6.748
21599TIP3   OH264673   5.720   0.107   7.601
21599TIP3    H164674   5.724   0.111   7.696
21599TIP3    H264675   5.811   0.095   7.573
21600TIP3   OH264676   6.205   0.142   7.603
21600TIP3    H164677   6.263   0.132   7.527
21600TIP3    H264678   6.125   0.095   7.579
21601TIP3   OH264679   6.345   0.113   7.359
21601TIP3    H164680   6.416   0.057   7.328
21601TIP3    H264681   6.372   0.201   7.337
21602TIP3   OH264682   1.501   8.982   7.294
21602TIP3    H164683   1.534   9.002   7.206
21602TIP3    H264684   1.547   9.043   7.351
21603TIP3   OH264685   2.148   9.127   7.546
21603TIP3    H164686   2.212   9.160   7.483
21603TIP3    H264687   2.136   9.199   7.608
21604TIP3   OH264688   2.706   9.253   7.530
21604TIP3    H164689   2.717   9.212   7.444
21604TIP3    H264690   2.693   9.180   7.590
21605TIP3   OH264691   2.736   9.202   7.103
21605TIP3    H164692   2.660   9.253   7.130
21605TIP3    H264693   2.719   9.114   7.136
21606TIP3   OH264694   1.640   9.098   7.071
21606TIP3    H164695   1.684   9.041   7.008
21606TIP3    H264696   1.711   9.147   7.113
21607TIP3   OH264697   5.394   0.051   7.207
21607TIP3    H164698   5.456   0.012   7.269
21607TIP3    H264699   5.401   0.145   7.221
21608TIP3   OH264700   6.503   0.579   7.040
21608TIP3    H164701   6.488   0.606   6.950
21608TIP3    H264702   6.425   0.528   7.063
21609TIP3   OH264703   8.268   0.653   7.167
21609TIP3    H164704   8.303   0.722   7.223
21609TIP3    H264705   8.318   0.660   7.086
21610TIP3   OH264706   7.627   0.790   7.188
21610TIP3    H164707   7.642   0.724   7.256
21610TIP3    H264708   7.612   0.739   7.108
21611TIP3   OH264709   7.023   0.402   7.196
21611TIP3    H164710   7.032   0.490   7.158
21611TIP3    H264711   6.979   0.351   7.128
21612TIP3   OH264712   7.725   0.565   6.764
21612TIP3    H164713   7.791   0.550   6.831
21612TIP3    H264714   7.775   0.589   6.686
21613TIP3   OH264715   6.632   0.696   7.254
21613TIP3    H164716   6.706   0.638   7.239
21613TIP3    H264717   6.567   0.669   7.189
21614TIP3   OH264718   7.123   0.958   7.069
21614TIP3    H164719   7.215   0.950   7.043
21614TIP3    H264720   7.074   0.923   6.994
21615TIP3   OH264721   8.381   0.852   7.324
21615TIP3    H164722   8.376   0.914   7.252
21615TIP3    H264723   8.412   0.904   7.399
21616TIP3   OH264724   6.984   0.481   7.602
21616TIP3    H164725   6.941   0.526   7.530
21616TIP3    H264726   6.912   0.457   7.661
21617TIP3   OH264727   7.890   0.544   6.978
21617TIP3    H164728   7.847   0.532   7.063
21617TIP3    H264729   7.944   0.622   6.990
21618TIP3   OH264730   6.882   0.572   7.368
21618TIP3    H164731   6.927   0.648   7.330
21618TIP3    H264732   6.907   0.499   7.312
21619TIP3   OH264733   8.073   0.527   7.315
21619TIP3    H164734   7.988   0.541   7.273
21619TIP3    H264735   8.136   0.570   7.256
21620TIP3   OH264736   7.343   0.200   7.305
21620TIP3    H164737   7.337   0.109   7.332
21620TIP3    H264738   7.271   0.243   7.350
21621TIP3   OH264739   7.234   0.730   6.438
21621TIP3    H164740   7.266   0.769   6.357
21621TIP3    H264741   7.310   0.682   6.473
21622TIP3   OH264742   7.955   1.141   7.318
21622TIP3    H164743   7.934   1.227   7.356
21622TIP3    H264744   7.880   1.121   7.261
21623TIP3   OH264745   7.973   0.152   6.395
21623TIP3    H164746   7.900   0.173   6.454
21623TIP3    H264747   7.986   0.232   6.344
21624TIP3   OH264748   8.141   1.064   7.558
21624TIP3    H164749   8.047   1.073   7.569
21624TIP3    H264750   8.157   0.970   7.560
21625TIP3   OH264751   7.119   0.300   7.436
21625TIP3    H164752   7.072   0.309   7.354
21625TIP3    H264753   7.076   0.361   7.496
21626TIP3   OH264754   7.653   0.420   7.621
21626TIP3    H164755   7.727   0.387   7.672
21626TIP3    H264756   7.576   0.388   7.667
21627TIP3   OH264757   7.875   0.798   7.602
21627TIP3    H164758   7.832   0.793   7.687
21627TIP3    H264759   7.857   0.887   7.570
21628TIP3   OH264760   7.244   0.301   6.424
21628TIP3    H164761   7.211   0.284   6.512
21628TIP3    H264762   7.205   0.232   6.370
21629TIP3   OH264763   7.122   0.876   7.467
21629TIP3    H164764   7.048   0.872   7.527
21629TIP3    H264765   7.097   0.941   7.402
21630TIP3   OH264766   7.021   0.561   6.945
21630TIP3    H164767   6.937   0.569   6.991
21630TIP3    H264768   6.999   0.573   6.853
21631TIP3   OH264769   7.457   0.661   6.594
21631TIP3    H164770   7.482   0.744   6.637
21631TIP3    H264771   7.524   0.648   6.527
21632TIP3   OH264772   7.563   0.711   6.928
21632TIP3    H164773   7.484   0.735   6.881
21632TIP3    H264774   7.607   0.648   6.872
21633TIP3   OH264775   6.862   0.232   6.365
21633TIP3    H164776   6.872   0.306   6.425
21633TIP3    H264777   6.838   0.271   6.282
21634TIP3   OH264778   6.457   0.334   7.251
21634TIP3    H164779   6.530   0.370   7.300
21634TIP3    H264780   6.497   0.298   7.171
21635TIP3   OH264781   6.426   0.292   6.776
21635TIP3    H164782   6.435   0.309   6.682
21635TIP3    H264783   6.387   0.372   6.811
21636TIP3   OH264784   7.690   0.989   7.435
21636TIP3    H164785   7.716   0.963   7.346
21636TIP3    H264786   7.599   0.962   7.442
21637TIP3   OH264787   7.278   0.467   6.983
21637TIP3    H164788   7.184   0.482   6.985
21637TIP3    H264789   7.312   0.519   7.056
21638TIP3   OH264790   6.776   0.528   7.084
21638TIP3    H164791   6.690   0.547   7.046
21638TIP3    H264792   6.795   0.439   7.055
21639TIP3   OH264793   7.016   0.619   6.678
21639TIP3    H164794   7.103   0.583   6.662
21639TIP3    H264795   6.963   0.587   6.605
21640TIP3   OH264796   7.788   0.521   7.230
21640TIP3    H164797   7.769   0.561   7.315
21640TIP3    H264798   7.711   0.467   7.210
21641TIP3   OH264799   6.850   0.478   6.496
21641TIP3    H164800   6.763   0.462   6.460
21641TIP3    H264801   6.891   0.540   6.435
21642TIP3   OH264802   7.316   0.689   7.151
21642TIP3    H164803   7.354   0.775   7.137
21642TIP3    H264804   7.334   0.670   7.243
21643TIP3   OH264805   6.863   0.286   6.998
21643TIP3    H164806   6.820   0.209   7.035
21643TIP3    H264807   6.860   0.272   6.904
21644TIP3   OH264808   7.330   0.712   7.425
21644TIP3    H164809   7.250   0.761   7.444
21644TIP3    H264810   7.389   0.732   7.497
21645TIP3   OH264811   7.502   0.386   6.437
21645TIP3    H164812   7.411   0.357   6.434
21645TIP3    H264813   7.504   0.465   6.382
21646TIP3   OH264814   7.647   0.675   6.392
21646TIP3    H164815   7.723   0.632   6.433
21646TIP3    H264816   7.676   0.765   6.378
21647TIP3   OH264817   8.113   0.766   6.355
21647TIP3    H164818   8.044   0.733   6.297
21647TIP3    H264819   8.087   0.857   6.373
21648TIP3   OH264820   7.707   0.635   7.461
21648TIP3    H164821   7.778   0.679   7.508
21648TIP3    H264822   7.687   0.558   7.514
21649TIP3   OH264823   7.579   0.347   6.695
21649TIP3    H164824   7.549   0.367   6.606
21649TIP3    H264825   7.622   0.428   6.724
21650TIP3   OH264826   7.265   0.505   6.705
21650TIP3    H164827   7.336   0.556   6.667
21650TIP3    H264828   7.278   0.512   6.799
21651TIP3   OH264829   7.520   0.783   7.607
21651TIP3    H164830   7.551   0.787   7.697
21651TIP3    H264831   7.588   0.734   7.560
21652TIP3   OH264832   7.385   0.250   6.861
21652TIP3    H164833   7.353   0.327   6.909
21652TIP3    H264834   7.457   0.284   6.807
21653TIP3   OH264835   6.881   0.290   6.712
21653TIP3    H164836   6.865   0.370   6.662
21653TIP3    H264837   6.975   0.274   6.702
21654TIP3   OH264838   8.143   0.790   7.529
21654TIP3    H164839   8.053   0.769   7.551
21654TIP3    H264840   8.143   0.799   7.434
21655TIP3   OH264841   7.785   0.880   6.898
21655TIP3    H164842   7.714   0.816   6.903
21655TIP3    H264843   7.860   0.837   6.939
21656TIP3   OH264844   6.385   0.356   6.517
21656TIP3    H164845   6.318   0.420   6.540
21656TIP3    H264846   6.354   0.317   6.435
21657TIP3   OH264847   6.832   0.197   7.384
21657TIP3    H164848   6.813   0.161   7.298
21657TIP3    H264849   6.840   0.121   7.441
21658TIP3   OH264850   6.966   0.700   6.376
21658TIP3    H164851   6.958   0.734   6.287
21658TIP3    H264852   7.058   0.711   6.398
21659TIP3   OH264853   7.327   0.723   7.849
21659TIP3    H164854   7.304   0.660   7.781
21659TIP3    H264855   7.275   0.801   7.828
21660TIP3   OH264856   7.243   0.557   7.642
21660TIP3    H164857   7.264   0.588   7.554
21660TIP3    H264858   7.150   0.535   7.638
21661TIP3   OH264859   7.390   0.334   7.693
21661TIP3    H164860   7.342   0.415   7.675
21661TIP3    H264861   7.327   0.265   7.675
21662TIP3   OH264862   7.735   0.811   7.835
21662TIP3    H164863   7.674   0.859   7.892
21662TIP3    H264864   7.809   0.789   7.893
21663TIP3   OH264865   1.421   5.362  -0.002
21663TIP3    H164866   1.435   5.271  -0.025
21663TIP3    H264867   1.426   5.364   0.094
21664TIP3   OH264868   7.441   0.269   7.949
21664TIP3    H164869   7.527   0.230   7.932
21664TIP3    H264870   7.409   0.296   7.863
21665TIP3   OH264871   7.500   0.572   8.019
21665TIP3    H164872   7.487   0.489   7.973
21665TIP3    H264873   7.452   0.636   7.967
21666TIP3   OH264874   7.933   0.678   6.177
21666TIP3    H164875   7.931   0.703   6.085
21666TIP3    H264876   7.879   0.598   6.181
21667TIP3   OH264877   7.778   1.057   6.663
21667TIP3    H164878   7.844   0.989   6.673
21667TIP3    H264879   7.773   1.099   6.749
21668TIP3   OH264880   8.229   1.321   7.616
21668TIP3    H164881   8.182   1.246   7.579
21668TIP3    H264882   8.250   1.376   7.540
21669TIP3   OH264883   7.772   0.450   6.132
21669TIP3    H164884   7.854   0.408   6.159
21669TIP3    H264885   7.706   0.382   6.144
21670TIP3   OH264886   7.870   0.615   6.537
21670TIP3    H164887   7.937   0.547   6.539
21670TIP3    H264888   7.919   0.696   6.552
21671TIP3   OH264889   8.004   0.788   7.036
21671TIP3    H164890   8.079   0.779   6.977
21671TIP3    H264891   8.042   0.805   7.122
21672TIP3   OH264892   8.094   0.906   7.267
21672TIP3    H164893   8.051   0.988   7.293
21672TIP3    H264894   8.172   0.935   7.219
21673TIP3   OH264895   8.576   0.633   7.816
21673TIP3    H164896   8.643   0.576   7.778
21673TIP3    H264897   8.525   0.662   7.740
21674TIP3   OH264898   8.015   0.387   6.595
21674TIP3    H164899   8.057   0.387   6.681
21674TIP3    H264900   7.942   0.326   6.605
21675TIP3   OH264901   6.666   0.407   7.416
21675TIP3    H164902   6.724   0.332   7.408
21675TIP3    H264903   6.724   0.483   7.408
21676TIP3   OH264904   6.556   0.690   7.517
21676TIP3    H164905   6.593   0.688   7.429
21676TIP3    H264906   6.544   0.783   7.535
21677TIP3   OH264907   8.391   0.714   7.622
21677TIP3    H164908   8.311   0.754   7.588
21677TIP3    H264909   8.398   0.630   7.576
21678TIP3   OH264910   8.019   0.361   6.218
21678TIP3    H164911   8.062   0.299   6.159
21678TIP3    H264912   8.088   0.423   6.241
21679TIP3   OH264913   6.482   0.176   7.011
21679TIP3    H164914   6.394   0.152   7.039
21679TIP3    H264915   6.468   0.226   6.931
21680TIP3   OH264916   6.688   0.210   7.797
21680TIP3    H164917   6.629   0.165   7.858
21680TIP3    H264918   6.631   0.270   7.749
21681TIP3   OH264919   8.295   0.473   7.509
21681TIP3    H164920   8.219   0.480   7.452
21681TIP3    H264921   8.326   0.383   7.495
21682TIP3   OH264922   7.536   0.399   7.193
21682TIP3    H164923   7.466   0.339   7.218
21682TIP3    H264924   7.579   0.356   7.120
21683TIP3   OH264925   8.009   0.279   7.003
21683TIP3    H164926   8.072   0.326   6.949
21683TIP3    H264927   7.938   0.342   7.018
21684TIP3   OH264928   8.176   0.385   6.820
21684TIP3    H164929   8.243   0.319   6.805
21684TIP3    H264930   8.209   0.464   6.777
21685TIP3   OH264931   6.753   0.081   7.144
21685TIP3    H164932   6.661   0.054   7.151
21685TIP3    H264933   6.802  -0.001   7.145
21686TIP3   OH264934   6.578  -0.005   6.802
21686TIP3    H164935   6.605   0.045   6.725
21686TIP3    H264936   6.553   0.061   6.866
21687TIP3   OH264937   7.239   0.113   7.053
21687TIP3    H164938   7.291   0.159   6.988
21687TIP3    H264939   7.263   0.154   7.137
21688TIP3   OH264940   7.698   0.278   7.011
21688TIP3    H164941   7.727   0.251   6.924
21688TIP3    H264942   7.716   0.203   7.067
21689TIP3   OH264943   7.801   0.212   6.602
21689TIP3    H164944   7.722   0.260   6.627
21689TIP3    H264945   7.786   0.123   6.633
21690TIP3   OH264946   6.696   0.135   6.579
21690TIP3    H164947   6.744   0.145   6.497
21690TIP3    H264948   6.747   0.187   6.642
21691TIP3   OH264949   7.155   0.260   6.683
21691TIP3    H164950   7.204   0.210   6.748
21691TIP3    H264951   7.188   0.349   6.691
21692TIP3   OH264952   0.460   4.940   0.025
21692TIP3    H164953   0.441   4.876   0.092
21692TIP3    H264954   0.396   5.010   0.039
21693TIP3   OH264955   0.743   4.976   0.193
21693TIP3    H164956   0.815   5.026   0.232
21693TIP3    H264957   0.666   5.031   0.204
21694TIP3   OH264958   8.012   0.479   7.954
21694TIP3    H164959   8.050   0.439   8.033
21694TIP3    H264960   8.087   0.489   7.895
21695TIP3   OH264961   8.304   0.855   6.548
21695TIP3    H164962   8.257   0.937   6.534
21695TIP3    H264963   8.259   0.792   6.491
21696TIP3   OH264964   9.444   1.092   6.715
21696TIP3    H164965   9.480   1.004   6.702
21696TIP3    H264966   9.480   1.143   6.643
21697TIP3   OH264967   8.825   0.678   6.698
21697TIP3    H164968   8.843   0.767   6.670
21697TIP3    H264969   8.783   0.637   6.622
21698TIP3   OH264970   9.526   0.887   6.229
21698TIP3    H164971   9.585   0.873   6.303
21698TIP3    H264972   9.585   0.893   6.153
21699TIP3   OH264973   8.429   0.948   6.785
21699TIP3    H164974   8.513   0.904   6.798
21699TIP3    H264975   8.395   0.912   6.703
21700TIP3   OH264976   8.927   1.241   6.539
21700TIP3    H164977   9.016   1.219   6.512
21700TIP3    H264978   8.872   1.179   6.492
21701TIP3   OH264979   8.831   0.756   7.097
21701TIP3    H164980   8.798   0.680   7.048
21701TIP3    H264981   8.776   0.760   7.175
21702TIP3   OH264982   9.665   0.865   6.462
21702TIP3    H164983   9.619   0.846   6.544
21702TIP3    H264984   9.755   0.881   6.488
21703TIP3   OH264985   8.658   0.826   6.869
21703TIP3    H164986   8.729   0.874   6.910
21703TIP3    H264987   8.701   0.766   6.808
21704TIP3   OH264988   9.154   0.456   6.772
21704TIP3    H164989   9.162   0.365   6.800
21704TIP3    H264990   9.081   0.490   6.824
21705TIP3   OH264991   9.019   1.001   5.881
21705TIP3    H164992   9.044   1.068   5.945
21705TIP3    H264993   9.079   1.015   5.808
21706TIP3   OH264994   9.764   0.407   5.876
21706TIP3    H164995   9.688   0.430   5.930
21706TIP3    H264996   9.780   0.485   5.823
21707TIP3   OH264997   9.067   0.568   5.900
21707TIP3    H164998   9.038   0.543   5.988
21707TIP3    H264999   9.042   0.495   5.845
21708TIP3   OH265000   8.832   1.055   6.927
21708TIP3    H165001   8.781   1.049   7.007
21708TIP3    H265002   8.809   1.140   6.889
21709TIP3   OH265003   8.825   0.811   6.423
21709TIP3    H165004   8.755   0.839   6.482
21709TIP3    H265005   8.788   0.819   6.335
21710TIP3   OH265006   9.244   0.956   6.122
21710TIP3    H165007   9.202   1.041   6.106
21710TIP3    H265008   9.302   0.943   6.047
21711TIP3   OH265009   9.336   0.999   6.420
21711TIP3    H165010   9.283   0.982   6.342
21711TIP3    H265011   9.424   0.969   6.397
21712TIP3   OH265012   8.698   1.045   7.168
21712TIP3    H165013   8.633   1.090   7.223
21712TIP3    H265014   8.706   0.958   7.207
21713TIP3   OH265015   8.708   0.488   5.818
21713TIP3    H165016   8.680   0.568   5.864
21713TIP3    H265017   8.664   0.493   5.733
21714TIP3   OH265018   8.276   0.581   6.663
21714TIP3    H165019   8.240   0.658   6.706
21714TIP3    H265020   8.364   0.606   6.635
21715TIP3   OH265021   8.233   0.539   6.265
21715TIP3    H165022   8.242   0.564   6.174
21715TIP3    H265023   8.202   0.618   6.310
21716TIP3   OH265024   9.080   0.715   6.466
21716TIP3    H165025   8.986   0.734   6.473
21716TIP3    H265026   9.118   0.758   6.543
21717TIP3   OH265027   8.580   0.805   6.568
21717TIP3    H165028   8.498   0.828   6.525
21717TIP3    H265029   8.599   0.716   6.538
21718TIP3   OH265030   8.786   0.841   6.150
21718TIP3    H165031   8.877   0.812   6.148
21718TIP3    H265032   8.749   0.813   6.066
21719TIP3   OH265033   9.529   0.827   6.702
21719TIP3    H165034   9.563   0.789   6.783
21719TIP3    H265035   9.454   0.771   6.678
21720TIP3   OH265036   8.638   0.736   5.946
21720TIP3    H165037   8.547   0.760   5.963
21720TIP3    H265038   8.657   0.775   5.861
21721TIP3   OH265039   9.159   0.940   6.636
21721TIP3    H165040   9.245   0.948   6.595
21721TIP3    H265041   9.177   0.952   6.730
21722TIP3   OH265042   8.649   0.554   6.489
21722TIP3    H165043   8.622   0.477   6.539
21722TIP3    H265044   8.654   0.524   6.399
21723TIP3   OH265045   9.105   1.033   6.905
21723TIP3    H165046   9.010   1.032   6.918
21723TIP3    H265047   9.127   1.125   6.895
21724TIP3   OH265048   9.320   0.678   5.905
21724TIP3    H165049   9.228   0.657   5.893
21724TIP3    H265050   9.329   0.769   5.877
21725TIP3   OH265051   9.419   0.940   5.878
21725TIP3    H165052   9.504   0.927   5.919
21725TIP3    H265053   9.438   0.957   5.786
21726TIP3   OH265054   9.812   1.046   5.807
21726TIP3    H165055   9.741   1.034   5.743
21726TIP3    H265056   9.837   1.138   5.798
21727TIP3   OH265057   8.664   0.795   7.315
21727TIP3    H165058   8.573   0.767   7.303
21727TIP3    H265059   8.696   0.741   7.387
21728TIP3   OH265060   9.384   0.647   6.170
21728TIP3    H165061   9.359   0.660   6.078
21728TIP3    H265062   9.421   0.731   6.197
21729TIP3   OH265063   9.049   0.773   6.191
21729TIP3    H165064   9.121   0.829   6.161
21729TIP3    H265065   9.058   0.771   6.286
21730TIP3   OH265066   9.203   0.515   6.333
21730TIP3    H165067   9.169   0.588   6.385
21730TIP3    H265068   9.271   0.553   6.278
21731TIP3   OH265069   8.680   0.529   6.182
21731TIP3    H165070   8.666   0.616   6.143
21731TIP3    H265071   8.775   0.516   6.177
21732TIP3   OH265072   8.207   0.628   6.008
21732TIP3    H165073   8.121   0.662   5.983
21732TIP3    H265074   8.232   0.570   5.937
21733TIP3   OH265075   8.624   0.481   6.894
21733TIP3    H165076   8.614   0.441   6.808
21733TIP3    H265077   8.713   0.459   6.922
21734TIP3   OH265078   8.747   1.011   5.840
21734TIP3    H165079   8.736   1.022   5.745
21734TIP3    H265080   8.842   1.011   5.853
21735TIP3   OH265081   9.099   0.808   7.081
21735TIP3    H165082   9.109   0.881   7.020
21735TIP3    H265083   9.004   0.798   7.091
21736TIP3   OH265084   9.151   0.538   7.106
21736TIP3    H165085   9.133   0.632   7.108
21736TIP3    H265086   9.066   0.497   7.090
21737TIP3   OH265087   9.616   0.985   5.626
21737TIP3    H165088   9.645   1.018   5.541
21737TIP3    H265089   9.606   0.891   5.614
21738TIP3   OH265090   9.747   1.221   6.146
21738TIP3    H165091   9.656   1.200   6.125
21738TIP3    H265092   9.743   1.259   6.234
21739TIP3   OH265093   9.613   0.718   5.571
21739TIP3    H165094   9.685   0.676   5.619
21739TIP3    H265095   9.537   0.663   5.590
21740TIP3   OH265096   9.667   0.904   5.995
21740TIP3    H165097   9.717   0.823   6.008
21740TIP3    H265098   9.725   0.960   5.942
21741TIP3   OH265099   8.497   0.969   7.553
21741TIP3    H165100   8.583   0.978   7.513
21741TIP3    H265101   8.498   0.882   7.593
21742TIP3   OH265102   9.790   0.669   6.064
21742TIP3    H165103   9.831   0.664   6.151
21742TIP3    H265104   9.723   0.601   6.065
21743TIP3   OH265105   8.442   0.683   6.952
21743TIP3    H165106   8.481   0.596   6.941
21743TIP3    H265107   8.513   0.744   6.932
21744TIP3   OH265108   8.318   0.961   7.078
21744TIP3    H165109   8.369   0.916   7.010
21744TIP3    H265110   8.310   1.051   7.046
21745TIP3   OH265111   0.030   0.616   5.708
21745TIP3    H165112   0.071   0.551   5.650
21745TIP3    H265113   0.086   0.693   5.701
21746TIP3   OH265114   8.249   0.333   6.441
21746TIP3    H165115   8.181   0.350   6.505
21746TIP3    H265116   8.258   0.415   6.392
21747TIP3   OH265117   8.488   0.539   7.308
21747TIP3    H165118   8.435   0.512   7.383
21747TIP3    H265119   8.425   0.549   7.237
21748TIP3   OH265120   9.330   0.648   6.648
21748TIP3    H165121   9.269   0.585   6.685
21748TIP3    H265122   9.386   0.596   6.590
21749TIP3   OH265123   9.818   0.575   6.534
21749TIP3    H165124   9.853   0.623   6.459
21749TIP3    H265125   9.723   0.585   6.526
21750TIP3   OH265126   0.140   0.659   6.300
21750TIP3    H165127   0.200   0.589   6.272
21750TIP3    H265128   0.182   0.740   6.271
21751TIP3   OH265129   8.565   0.344   6.648
21751TIP3    H165130   8.477   0.314   6.670
21751TIP3    H265131   8.618   0.264   6.643
21752TIP3   OH265132   8.384   0.202   6.240
21752TIP3    H165133   8.406   0.270   6.176
21752TIP3    H265134   8.339   0.249   6.310
21753TIP3   OH265135   9.036   0.388   6.524
21753TIP3    H165136   9.097   0.433   6.465
21753TIP3    H265137   9.058   0.419   6.611
21754TIP3   OH265138   9.539   0.521   6.505
21754TIP3    H165139   9.557   0.481   6.420
21754TIP3    H265140   9.541   0.448   6.567
21755TIP3   OH265141   9.589   0.481   6.078
21755TIP3    H165142   9.514   0.533   6.106
21755TIP3    H265143   9.575   0.395   6.117
21756TIP3   OH265144   8.480   0.386   6.045
21756TIP3    H165145   8.532   0.334   5.984
21756TIP3    H265146   8.544   0.436   6.095
21757TIP3   OH265147   8.971   0.512   6.164
21757TIP3    H165148   9.025   0.479   6.236
21757TIP3    H265149   8.987   0.606   6.164
21758TIP3   OH265150   8.744   0.644   7.536
21758TIP3    H165151   8.716   0.557   7.563
21758TIP3    H265152   8.838   0.646   7.555
21759TIP3   OH265153   0.183   1.197   5.993
21759TIP3    H165154   0.108   1.219   6.049
21759TIP3    H265155   0.170   1.105   5.970
21760TIP3   OH265156   1.056   0.779   5.425
21760TIP3    H165157   1.150   0.759   5.427
21760TIP3    H265158   1.016   0.699   5.390
21761TIP3   OH265159   0.669   0.834   5.384
21761TIP3    H165160   0.661   0.838   5.479
21761TIP3    H265161   0.592   0.880   5.351
21762TIP3   OH265162   0.290   0.839   6.159
21762TIP3    H165163   0.385   0.850   6.167
21762TIP3    H265164   0.279   0.792   6.076
21763TIP3   OH265165   0.177   0.851   5.706
21763TIP3    H165166   0.211   0.893   5.627
21763TIP3    H265167   0.122   0.918   5.747
21764TIP3   OH265168   0.561   1.064   5.553
21764TIP3    H165169   0.478   1.093   5.516
21764TIP3    H265170   0.627   1.087   5.487
21765TIP3   OH265171   0.634   0.817   5.654
21765TIP3    H165172   0.591   0.903   5.649
21765TIP3    H265173   0.727   0.838   5.667
21766TIP3   OH265174   0.199   1.038   5.498
21766TIP3    H165175   0.255   1.107   5.463
21766TIP3    H265176   0.115   1.051   5.455
21767TIP3   OH265177   0.731   1.181   5.374
21767TIP3    H165178   0.686   1.187   5.290
21767TIP3    H265179   0.766   1.269   5.389
21768TIP3   OH265180   0.234   0.697   5.927
21768TIP3    H165181   0.145   0.678   5.957
21768TIP3    H265182   0.223   0.754   5.851
21769TIP3   OH265183   0.525   0.631   6.134
21769TIP3    H165184   0.439   0.588   6.136
21769TIP3    H265185   0.587   0.559   6.121
21770TIP3   OH265186   0.352   0.496   5.770
21770TIP3    H165187   0.383   0.543   5.692
21770TIP3    H265188   0.322   0.565   5.829
21771TIP3   OH265189   0.457   0.630   5.547
21771TIP3    H165190   0.507   0.576   5.486
21771TIP3    H265191   0.522   0.686   5.589
21772TIP3   OH265192   0.242   6.804   1.507
21772TIP3    H165193   0.252   6.898   1.492
21772TIP3    H265194   0.327   6.766   1.484
21773TIP3   OH265195   9.546   6.937   1.621
21773TIP3    H165196   9.619   6.881   1.592
21773TIP3    H265197   9.546   6.928   1.716
21774TIP3   OH265198   0.013   6.126   1.719
21774TIP3    H165199  -0.028   6.108   1.635
21774TIP3    H265200   0.069   6.202   1.703
21775TIP3   OH265201   0.240   6.841   1.783
21775TIP3    H165202   0.259   6.751   1.810
21775TIP3    H265203   0.236   6.837   1.687
21776TIP3   OH265204   0.286   7.074   1.514
21776TIP3    H165205   0.333   7.148   1.477
21776TIP3    H265206   0.212   7.113   1.560
21777TIP3   OH265207   9.372   6.658   1.680
21777TIP3    H165208   9.306   6.719   1.713
21777TIP3    H265209   9.327   6.574   1.677
21778TIP3   OH265210   9.753   6.786   1.513
21778TIP3    H165211   9.842   6.800   1.545
21778TIP3    H265212   9.760   6.797   1.418
21779TIP3   OH265213   0.213   6.298   1.626
21779TIP3    H165214   0.220   6.259   1.539
21779TIP3    H265215   0.189   6.389   1.609
21780TIP3   OH265216   0.268   7.105   1.845
21780TIP3    H165217   0.250   7.012   1.828
21780TIP3    H265218   0.211   7.152   1.784
21781TIP3   OH265219   1.098   6.803   1.179
21781TIP3    H165220   1.108   6.716   1.140
21781TIP3    H265221   1.134   6.795   1.267
21782TIP3   OH265222   0.965   7.068   1.476
21782TIP3    H165223   0.959   7.115   1.393
21782TIP3    H265224   1.054   7.084   1.507
21783TIP3   OH265225   0.760   6.702   1.400
21783TIP3    H165226   0.794   6.755   1.472
21783TIP3    H265227   0.780   6.752   1.321
21784TIP3   OH265228   1.220   7.028   1.066
21784TIP3    H165229   1.177   6.955   1.111
21784TIP3    H265230   1.312   7.004   1.062
21785TIP3   OH265231   1.004   7.237   1.268
21785TIP3    H165232   1.073   7.271   1.325
21785TIP3    H265233   1.004   7.297   1.193
21786TIP3   OH265234   0.488   6.702   1.437
21786TIP3    H165235   0.583   6.707   1.443
21786TIP3    H265236   0.470   6.609   1.424
21787TIP3   OH265237   0.483   7.236   1.952
21787TIP3    H165238   0.410   7.189   1.911
21787TIP3    H265239   0.440   7.300   2.009
21788TIP3   OH265240   0.551   7.082   1.619
21788TIP3    H165241   0.465   7.041   1.605
21788TIP3    H265242   0.537   7.174   1.595
21789TIP3   OH265243   1.290   7.289   1.140
21789TIP3    H165244   1.226   7.351   1.106
21789TIP3    H265245   1.256   7.203   1.117
21790TIP3   OH265246   0.625   7.068   1.294
21790TIP3    H165247   0.623   7.081   1.388
21790TIP3    H265248   0.699   7.008   1.280
21791TIP3   OH265249   8.032   8.436   1.644
21791TIP3    H165250   7.949   8.410   1.683
21791TIP3    H265251   8.055   8.364   1.586
21792TIP3   OH265252   7.929   8.713   1.650
21792TIP3    H165253   8.003   8.771   1.664
21792TIP3    H265254   7.869   8.764   1.596
21793TIP3   OH265255   7.835   5.405   0.421
21793TIP3    H165256   7.818   5.477   0.361
21793TIP3    H265257   7.750   5.361   0.431
21794TIP3   OH265258   9.666   8.476   2.000
21794TIP3    H165259   9.644   8.455   2.091
21794TIP3    H265260   9.757   8.503   2.003
21795TIP3   OH265261   9.277   8.937   2.020
21795TIP3    H165262   9.301   8.856   1.974
21795TIP3    H265263   9.301   8.922   2.111
21796TIP3   OH265264   9.225   8.370   1.817
21796TIP3    H165265   9.231   8.274   1.821
21796TIP3    H265266   9.315   8.401   1.828
21797TIP3   OH265267   9.351   8.730   1.852
21797TIP3    H165268   9.399   8.648   1.843
21797TIP3    H265269   9.408   8.795   1.811
21798TIP3   OH265270   9.474   8.485   1.807
21798TIP3    H165271   9.514   8.451   1.727
21798TIP3    H265272   9.543   8.483   1.872
21799TIP3   OH265273   9.191   8.082   1.762
21799TIP3    H165274   9.101   8.107   1.743
21799TIP3    H265275   9.226   8.053   1.678
21800TIP3   OH265276   9.181   7.822   1.473
21800TIP3    H165277   9.246   7.873   1.521
21800TIP3    H265278   9.232   7.766   1.414
21801TIP3   OH265279   9.532   8.118   1.760
21801TIP3    H165280   9.475   8.079   1.827
21801TIP3    H265281   9.620   8.096   1.788
21802TIP3   OH265282   9.388   7.971   1.576
21802TIP3    H165283   9.443   8.028   1.629
21802TIP3    H265284   9.415   7.988   1.486
21803TIP3   OH265285   9.094   8.669   1.783
21803TIP3    H165286   9.173   8.705   1.824
21803TIP3    H265287   9.047   8.747   1.753
21804TIP3   OH265288   0.095   7.218   1.653
21804TIP3    H165289   0.016   7.241   1.702
21804TIP3    H265290   0.104   7.289   1.589
21805TIP3   OH265291   9.709   8.588   1.186
21805TIP3    H165292   9.703   8.680   1.158
21805TIP3    H265293   9.798   8.562   1.161
21806TIP3   OH265294   9.015   8.893   1.645
21806TIP3    H165295   8.974   8.862   1.564
21806TIP3    H265296   8.969   8.974   1.666
21807TIP3   OH265297   9.206   8.803   1.282
21807TIP3    H165298   9.254   8.727   1.249
21807TIP3    H265299   9.242   8.819   1.369
21808TIP3   OH265300   9.271   8.861   1.546
21808TIP3    H165301   9.188   8.864   1.592
21808TIP3    H265302   9.337   8.866   1.615
21809TIP3   OH265303   9.460   8.017   1.321
21809TIP3    H165304   9.407   7.997   1.245
21809TIP3    H265305   9.544   8.045   1.285
21810TIP3   OH265306   9.160   7.492   1.633
21810TIP3    H165307   9.096   7.533   1.692
21810TIP3    H265308   9.177   7.407   1.673
21811TIP3   OH265309   9.372   7.908   1.892
21811TIP3    H165310   9.294   7.950   1.856
21811TIP3    H265311   9.385   7.831   1.837
21812TIP3   OH265312   8.867   7.395   1.630
21812TIP3    H165313   8.896   7.465   1.689
21812TIP3    H265314   8.783   7.425   1.596
21813TIP3   OH265315   8.691   7.741   1.712
21813TIP3    H165316   8.644   7.665   1.679
21813TIP3    H265317   8.763   7.753   1.651
21814TIP3   OH265318   8.931   8.186   1.735
21814TIP3    H165319   8.869   8.128   1.689
21814TIP3    H265320   8.884   8.214   1.813
21815TIP3   OH265321   9.401   7.519   1.514
21815TIP3    H165322   9.311   7.522   1.547
21815TIP3    H265323   9.446   7.588   1.562
21816TIP3   OH265324   9.485   7.727   1.687
21816TIP3    H165325   9.579   7.739   1.704
21816TIP3    H265326   9.460   7.806   1.638
21817TIP3   OH265327   9.039   8.390   1.582
21817TIP3    H165328   9.051   8.378   1.488
21817TIP3    H265329   8.986   8.316   1.610
21818TIP3   OH265330   0.090   7.843   1.494
21818TIP3    H165331   0.029   7.800   1.434
21818TIP3    H265332   0.095   7.933   1.462
21819TIP3   OH265333   9.620   8.640   1.444
21819TIP3    H165334   9.598   8.557   1.484
21819TIP3    H265335   9.650   8.617   1.356
21820TIP3   OH265336   8.692   8.834   1.835
21820TIP3    H165337   8.617   8.790   1.874
21820TIP3    H265338   8.674   8.832   1.741
21821TIP3   OH265339   9.392   8.377   1.354
21821TIP3    H165340   9.441   8.359   1.434
21821TIP3    H265341   9.311   8.325   1.363
21822TIP3   OH265342   9.698   8.858   1.136
21822TIP3    H165343   9.702   8.911   1.056
21822TIP3    H265344   9.633   8.902   1.190
21823TIP3   OH265345   9.562   8.336   1.580
21823TIP3    H165346   9.546   8.262   1.638
21823TIP3    H265347   9.655   8.330   1.558
21824TIP3   OH265348   8.807   8.339   1.398
21824TIP3    H165349   8.788   8.253   1.361
21824TIP3    H265350   8.730   8.360   1.451
21825TIP3   OH265351   9.475   7.471   1.810
21825TIP3    H165352   9.396   7.425   1.781
21825TIP3    H265353   9.463   7.561   1.779
21826TIP3   OH265354   8.561   8.365   1.527
21826TIP3    H165355   8.480   8.383   1.576
21826TIP3    H265356   8.552   8.274   1.499
21827TIP3   OH265357   9.678   9.014   2.084
21827TIP3    H165358   9.630   9.060   2.015
21827TIP3    H265359   9.769   9.040   2.071
21828TIP3   OH265360   8.892   8.558   1.257
21828TIP3    H165361   8.859   8.485   1.309
21828TIP3    H265362   8.964   8.521   1.206
21829TIP3   OH265363   9.332   8.585   1.174
21829TIP3    H165364   9.373   8.521   1.233
21829TIP3    H265365   9.386   8.584   1.096
21830TIP3   OH265366   8.572   8.105   1.441
21830TIP3    H165367   8.601   8.067   1.525
21830TIP3    H265368   8.644   8.087   1.381
21831TIP3   OH265369   9.083   8.271   1.329
21831TIP3    H165370   8.987   8.267   1.332
21831TIP3    H265371   9.110   8.182   1.306
21832TIP3   OH265372   8.750   8.011   1.640
21832TIP3    H165373   8.683   7.970   1.694
21832TIP3    H265374   8.801   7.938   1.605
21833TIP3   OH265375   8.916   7.793   1.557
21833TIP3    H165376   8.860   7.792   1.479
21833TIP3    H265377   9.005   7.799   1.522
21834TIP3   OH265378   9.685   8.102   1.183
21834TIP3    H165379   9.666   8.058   1.100
21834TIP3    H265380   9.658   8.192   1.170
21835TIP3   OH265381   8.698   8.869   1.474
21835TIP3    H165382   8.785   8.838   1.448
21835TIP3    H265383   8.660   8.903   1.394
21836TIP3   OH265384   8.302   8.252   1.653
21836TIP3    H165385   8.256   8.297   1.724
21836TIP3    H265386   8.234   8.229   1.590
21837TIP3   OH265387   0.133   9.120   2.034
21837TIP3    H165388   0.148   9.205   2.074
21837TIP3    H265389   0.200   9.113   1.966
21838TIP3   OH265390   0.035   8.309   1.539
21838TIP3    H165391   0.093   8.377   1.504
21838TIP3    H265392   0.085   8.269   1.610
21839TIP3   OH265393   0.169   8.167   1.738
21839TIP3    H165394   0.104   8.126   1.795
21839TIP3    H265395   0.233   8.206   1.797
21840TIP3   OH265396   0.129   8.540   2.052
21840TIP3    H165397   0.204   8.493   2.087
21840TIP3    H265398   0.165   8.624   2.023
21841TIP3   OH265399   0.081   8.089   1.375
21841TIP3    H165400   0.014   8.088   1.307
21841TIP3    H265401   0.060   8.166   1.428
21842TIP3   OH265402   9.720   7.745   1.308
21842TIP3    H165403   9.666   7.774   1.235
21842TIP3    H265404   9.733   7.651   1.293
21843TIP3   OH265405   9.766   8.005   1.861
21843TIP3    H165406   9.765   7.920   1.816
21843TIP3    H265407   9.771   7.983   1.954
21844TIP3   OH265408   9.754   7.478   1.271
21844TIP3    H165409   9.818   7.455   1.337
21844TIP3    H265410   9.677   7.425   1.292
21845TIP3   OH265411   9.761   7.760   1.728
21845TIP3    H165412   9.802   7.677   1.754
21845TIP3    H265413   9.808   7.785   1.648
21846TIP3   OH265414   0.083   7.518   1.805
21846TIP3    H165415   0.126   7.519   1.890
21846TIP3    H265416   0.020   7.446   1.811
21847TIP3   OH265417   0.145   7.405   1.457
21847TIP3    H165418   0.181   7.347   1.389
21847TIP3    H265419   0.200   7.483   1.453
21848TIP3   OH265420   9.482   8.930   1.720
21848TIP3    H165421   9.547   8.928   1.649
21848TIP3    H265422   9.515   8.996   1.781
21849TIP3   OH265423   9.693   7.311   1.823
21849TIP3    H165424   9.619   7.370   1.811
21849TIP3    H265425   9.662   7.246   1.886
21850TIP3   OH265426   8.221   8.609   1.725
21850TIP3    H165427   8.141   8.565   1.698
21850TIP3    H265428   8.197   8.701   1.730
21851TIP3   OH265429   8.951   8.788   1.395
21851TIP3    H165430   9.032   8.810   1.350
21851TIP3    H265431   8.920   8.709   1.351
21852TIP3   OH265432   9.645   8.910   1.496
21852TIP3    H165433   9.641   8.815   1.482
21852TIP3    H265434   9.608   8.947   1.415
21853TIP3   OH265435   8.236   8.664   1.438
21853TIP3    H165436   8.234   8.649   1.533
21853TIP3    H265437   8.314   8.618   1.409
21854TIP3   OH265438   1.350   8.428   1.439
21854TIP3    H165439   1.328   8.521   1.429
21854TIP3    H265440   1.280   8.382   1.393
21855TIP3   OH265441   1.229   8.463   1.806
21855TIP3    H165442   1.285   8.482   1.881
21855TIP3    H265443   1.283   8.408   1.749
21856TIP3   OH265444   0.640   8.364   2.209
21856TIP3    H165445   0.716   8.375   2.266
21856TIP3    H265446   0.677   8.350   2.122
21857TIP3   OH265447   1.615   8.642   1.493
21857TIP3    H165448   1.583   8.598   1.572
21857TIP3    H265449   1.626   8.734   1.521
21858TIP3   OH265450   0.609   8.744   1.922
21858TIP3    H165451   0.584   8.653   1.908
21858TIP3    H265452   0.697   8.750   1.885
21859TIP3   OH265453   0.306   7.934   1.651
21859TIP3    H165454   0.271   8.019   1.677
21859TIP3    H265455   0.235   7.895   1.599
21860TIP3   OH265456   0.389   8.262   1.888
21860TIP3    H165457   0.440   8.183   1.908
21860TIP3    H265458   0.453   8.325   1.857
21861TIP3   OH265459   1.229   9.019   1.535
21861TIP3    H165460   1.299   9.000   1.473
21861TIP3    H265461   1.243   9.110   1.561
21862TIP3   OH265462   1.100   8.698   1.818
21862TIP3    H165463   1.141   8.615   1.797
21862TIP3    H265464   1.166   8.764   1.797
21863TIP3   OH265465   0.857   7.800   1.840
21863TIP3    H165466   0.846   7.879   1.786
21863TIP3    H265467   0.814   7.731   1.790
21864TIP3   OH265468   0.536   8.038   1.942
21864TIP3    H165469   0.604   8.007   2.002
21864TIP3    H265470   0.539   7.976   1.869
21865TIP3   OH265471   0.915   8.213   1.780
21865TIP3    H165472   1.008   8.191   1.781
21865TIP3    H265473   0.872   8.136   1.742
21866TIP3   OH265474   1.249   8.659   1.283
21866TIP3    H165475   1.207   8.626   1.203
21866TIP3    H265476   1.195   8.734   1.309
21867TIP3   OH265477   0.977   8.579   2.030
21867TIP3    H165478   0.922   8.648   2.068
21867TIP3    H265479   1.020   8.622   1.956
21868TIP3   OH265480   0.763   7.935   2.069
21868TIP3    H165481   0.823   8.006   2.095
21868TIP3    H265482   0.808   7.891   1.997
21869TIP3   OH265483   0.204   8.493   1.413
21869TIP3    H165484   0.176   8.511   1.323
21869TIP3    H265485   0.227   8.579   1.448
21870TIP3   OH265486   1.612   8.900   1.587
21870TIP3    H165487   1.532   8.916   1.537
21870TIP3    H265488   1.670   8.972   1.563
21871TIP3   OH265489   1.443   8.972   1.375
21871TIP3    H165490   1.466   8.892   1.327
21871TIP3    H265491   1.454   9.042   1.311
21872TIP3   OH265492   1.511   8.737   1.253
21872TIP3    H165493   1.421   8.703   1.253
21872TIP3    H265494   1.554   8.691   1.326
21873TIP3   OH265495   1.169   8.324   1.255
21873TIP3    H165496   1.082   8.362   1.241
21873TIP3    H265497   1.214   8.336   1.172
21874TIP3   OH265498   1.148   8.105   0.956
21874TIP3    H165499   1.213   8.156   1.003
21874TIP3    H265500   1.198   8.034   0.915
21875TIP3   OH265501   1.537   8.400   1.234
21875TIP3    H165502   1.480   8.410   1.311
21875TIP3    H265503   1.625   8.417   1.266
21876TIP3   OH265504   0.736   8.365   1.626
21876TIP3    H165505   0.703   8.303   1.561
21876TIP3    H265506   0.803   8.317   1.674
21877TIP3   OH265507   0.841   8.767   1.777
21877TIP3    H165508   0.821   8.758   1.684
21877TIP3    H265509   0.933   8.741   1.784
21878TIP3   OH265510   0.809   8.361   1.987
21878TIP3    H165511   0.850   8.305   1.921
21878TIP3    H265512   0.874   8.429   2.005
21879TIP3   OH265513   1.296   8.871   1.758
21879TIP3    H165514   1.275   8.922   1.680
21879TIP3    H265515   1.373   8.914   1.795
21880TIP3   OH265516   1.370   8.248   1.062
21880TIP3    H165517   1.431   8.305   1.108
21880TIP3    H265518   1.395   8.255   0.970
21881TIP3   OH265519   1.093   8.883   1.331
21881TIP3    H165520   1.119   8.933   1.408
21881TIP3    H265521   1.054   8.947   1.272
21882TIP3   OH265522   0.628   8.194   1.428
21882TIP3    H165523   0.550   8.242   1.399
21882TIP3    H265524   0.598   8.105   1.444
21883TIP3   OH265525   1.693   8.840   0.667
21883TIP3    H165526   1.690   8.933   0.646
21883TIP3    H265527   1.783   8.815   0.648
21884TIP3   OH265528   0.263   8.778   1.982
21884TIP3    H165529   0.357   8.763   1.985
21884TIP3    H265530   0.248   8.847   2.047
21885TIP3   OH265531   1.002   9.090   1.156
21885TIP3    H165532   0.972   9.075   1.067
21885TIP3    H265533   0.970   9.177   1.179
21886TIP3   OH265534   0.428   8.980   1.513
21886TIP3    H165535   0.472   8.969   1.598
21886TIP3    H265536   0.377   8.899   1.502
21887TIP3   OH265537   1.196   9.065   0.767
21887TIP3    H165538   1.248   8.993   0.730
21887TIP3    H265539   1.230   9.075   0.856
21888TIP3   OH265540   1.255   9.096   1.033
21888TIP3    H165541   1.182   9.087   1.095
21888TIP3    H265542   1.333   9.097   1.088
21889TIP3   OH265543   1.428   8.227   0.796
21889TIP3    H165544   1.383   8.222   0.712
21889TIP3    H265545   1.512   8.269   0.776
21890TIP3   OH265546   1.203   7.594   1.148
21890TIP3    H165547   1.162   7.597   1.235
21890TIP3    H265548   1.141   7.545   1.094
21891TIP3   OH265549   0.790   8.001   1.665
21891TIP3    H165550   0.701   7.973   1.689
21891TIP3    H265551   0.804   7.965   1.578
21892TIP3   OH265552   1.239   8.067   1.317
21892TIP3    H165553   1.210   8.156   1.295
21892TIP3    H265554   1.299   8.044   1.246
21893TIP3   OH265555   0.839   7.610   1.101
21893TIP3    H165556   0.830   7.610   1.196
21893TIP3    H265557   0.757   7.649   1.069
21894TIP3   OH265558   0.371   7.590   1.937
21894TIP3    H165559   0.413   7.676   1.935
21894TIP3    H265560   0.379   7.558   1.847
21895TIP3   OH265561   0.284   7.646   1.454
21895TIP3    H165562   0.327   7.678   1.375
21895TIP3    H265563   0.219   7.713   1.474
21896TIP3   OH265564   1.132   7.852   1.697
21896TIP3    H165565   1.070   7.793   1.739
21896TIP3    H265566   1.125   7.934   1.747
21897TIP3   OH265567   0.560   7.866   1.727
21897TIP3    H165568   0.472   7.877   1.691
21897TIP3    H265569   0.589   7.781   1.694
21898TIP3   OH265570   0.816   7.872   1.424
21898TIP3    H165571   0.910   7.881   1.412
21898TIP3    H265572   0.778   7.893   1.339
21899TIP3   OH265573   0.717   7.910   1.175
21899TIP3    H165574   0.662   7.853   1.120
21899TIP3    H265575   0.773   7.956   1.113
21900TIP3   OH265576   0.705   7.631   1.663
21900TIP3    H165577   0.669   7.549   1.698
21900TIP3    H265578   0.740   7.607   1.578
21901TIP3   OH265579   0.916   8.433   1.203
21901TIP3    H165580   0.844   8.372   1.185
21901TIP3    H265581   0.895   8.468   1.290
21902TIP3   OH265582   1.447   7.715   1.126
21902TIP3    H165583   1.358   7.680   1.136
21902TIP3    H265584   1.436   7.810   1.133
21903TIP3   OH265585   1.453   7.993   1.155
21903TIP3    H165586   1.529   8.006   1.212
21903TIP3    H265587   1.447   8.073   1.104
21904TIP3   OH265588   0.599   8.466   1.846
21904TIP3    H165589   0.632   8.447   1.759
21904TIP3    H265590   0.665   8.432   1.906
21905TIP3   OH265591   1.094   8.576   1.060
21905TIP3    H165592   1.052   8.662   1.051
21905TIP3    H265593   1.029   8.523   1.107
21906TIP3   OH265594   1.901   8.089   0.883
21906TIP3    H165595   1.821   8.038   0.871
21906TIP3    H265596   1.879   8.177   0.851
21907TIP3   OH265597   1.616   8.880   0.938
21907TIP3    H165598   1.581   8.810   0.992
21907TIP3    H265599   1.632   8.839   0.853
21908TIP3   OH265600   0.741   8.781   1.520
21908TIP3    H165601   0.748   8.861   1.468
21908TIP3    H265602   0.649   8.756   1.514
21909TIP3   OH265603   0.323   8.064   1.244
21909TIP3    H165604   0.364   8.148   1.264
21909TIP3    H265605   0.240   8.067   1.292
21910TIP3   OH265606   0.843   8.538   1.439
21910TIP3    H165607   0.828   8.628   1.466
21910TIP3    H265608   0.809   8.485   1.511
21911TIP3   OH265609   0.970   9.127   1.974
21911TIP3    H165610   1.021   9.203   1.945
21911TIP3    H265611   0.988   9.121   2.068
21912TIP3   OH265612   0.662   9.005   1.373
21912TIP3    H165613   0.574   9.006   1.412
21912TIP3    H265614   0.686   9.098   1.367
21913TIP3   OH265615   1.372   8.645   0.806
21913TIP3    H165616   1.423   8.611   0.880
21913TIP3    H265617   1.288   8.599   0.811
21914TIP3   OH265618   1.706   9.113   0.628
21914TIP3    H165619   1.760   9.182   0.590
21914TIP3    H265620   1.627   9.159   0.658
21915TIP3   OH265621   1.538   8.544   0.994
21915TIP3    H165622   1.527   8.510   1.083
21915TIP3    H265623   1.633   8.552   0.983
21916TIP3   OH265624   0.473   8.957   2.091
21916TIP3    H165625   0.541   8.896   2.062
21916TIP3    H265626   0.514   9.005   2.164
21917TIP3   OH265627   0.733   8.609   0.839
21917TIP3    H165628   0.745   8.518   0.812
21917TIP3    H265629   0.720   8.605   0.933
21918TIP3   OH265630   0.680   8.622   1.111
21918TIP3    H165631   0.758   8.596   1.160
21918TIP3    H265632   0.679   8.718   1.117
21919TIP3   OH265633   0.405   8.319   1.323
21919TIP3    H165634   0.339   8.367   1.374
21919TIP3    H265635   0.426   8.377   1.250
21920TIP3   OH265636   0.944   8.800   1.043
21920TIP3    H165637   0.862   8.829   1.084
21920TIP3    H265638   0.972   8.875   0.990
21921TIP3   OH265639   1.087   7.874   1.428
21921TIP3    H165640   1.140   7.942   1.387
21921TIP3    H265641   1.115   7.874   1.520
21922TIP3   OH265642   0.697   8.895   1.125
21922TIP3    H165643   0.678   8.965   1.064
21922TIP3    H265644   0.686   8.935   1.212
21923TIP3   OH265645   0.802   7.598   1.379
21923TIP3    H165646   0.800   7.692   1.400
21923TIP3    H265647   0.890   7.570   1.403
21924TIP3   OH265648   0.435   8.492   1.107
21924TIP3    H165649   0.509   8.553   1.116
21924TIP3    H265650   0.464   8.429   1.041
21925TIP3   OH265651   0.340   7.786   1.226
21925TIP3    H165652   0.353   7.880   1.236
21925TIP3    H265653   0.276   7.777   1.156
21926TIP3   OH265654   1.731   9.132   1.518
21926TIP3    H165655   1.672   9.176   1.456
21926TIP3    H265656   1.808   9.188   1.523
21927TIP3   OH265657   0.252   8.761   1.492
21927TIP3    H165658   0.215   8.798   1.572
21927TIP3    H265659   0.207   8.806   1.421
21928TIP3   OH265660   0.884   8.815   0.732
21928TIP3    H165661   0.838   8.744   0.777
21928TIP3    H265662   0.959   8.773   0.690
21929TIP3   OH265663   1.326   8.859   0.645
21929TIP3    H165664   1.359   8.793   0.705
21929TIP3    H265665   1.382   8.853   0.568
21930TIP3   OH265666   0.552   8.301   0.950
21930TIP3    H165667   0.602   8.275   1.027
21930TIP3    H265668   0.618   8.316   0.882
21931TIP3   OH265669   1.125   8.523   0.791
21931TIP3    H165670   1.105   8.531   0.884
21931TIP3    H265671   1.105   8.431   0.770
21932TIP3   OH265672   0.721   8.241   1.163
21932TIP3    H165673   0.701   8.210   1.251
21932TIP3    H265674   0.774   8.172   1.124
21933TIP3   OH265675   0.876   8.065   1.012
21933TIP3    H165676   0.846   8.070   0.921
21933TIP3    H265677   0.971   8.076   1.007
21934TIP3   OH265678   1.643   8.355   0.673
21934TIP3    H165679   1.628   8.312   0.589
21934TIP3    H265680   1.620   8.447   0.658
21935TIP3   OH265681   0.690   9.105   0.946
21935TIP3    H165682   0.782   9.091   0.925
21935TIP3    H265683   0.654   9.150   0.870
21936TIP3   OH265684   0.162   8.495   1.124
21936TIP3    H165685   0.257   8.505   1.119
21936TIP3    H265686   0.145   8.410   1.083
21937TIP3   OH265687   0.052   9.071   1.580
21937TIP3    H165688  -0.014   9.017   1.537
21937TIP3    H265689   0.099   9.011   1.637
21938TIP3   OH265690   0.202   8.901   1.737
21938TIP3    H165691   0.196   8.836   1.806
21938TIP3    H265692   0.253   8.973   1.776
21939TIP3   OH265693   5.236   0.039   1.524
21939TIP3    H165694   5.261   0.060   1.614
21939TIP3    H265695   5.316   0.055   1.473
21940TIP3   OH265696   1.814   8.565   0.995
21940TIP3    H165697   1.875   8.633   0.967
21940TIP3    H265698   1.836   8.549   1.087
21941TIP3   OH265699   1.900   8.447   1.237
21941TIP3    H165700   1.929   8.378   1.177
21941TIP3    H265701   1.980   8.495   1.258
21942TIP3   OH265702   1.868   8.354   0.825
21942TIP3    H165703   1.792   8.352   0.767
21942TIP3    H265704   1.850   8.426   0.885
21943TIP3   OH265705   1.655   7.974   0.811
21943TIP3    H165706   1.623   7.982   0.721
21943TIP3    H265707   1.665   7.880   0.825
21944TIP3   OH265708   0.370   8.412   2.124
21944TIP3    H165709   0.368   8.357   2.046
21944TIP3    H265710   0.458   8.401   2.159
21945TIP3   OH265711   1.696   7.703   0.812
21945TIP3    H165712   1.790   7.710   0.831
21945TIP3    H265713   1.683   7.611   0.790
21946TIP3   OH265714   0.335   7.500   1.678
21946TIP3    H165715   0.245   7.493   1.707
21946TIP3    H265716   0.331   7.560   1.603
21947TIP3   OH265717   1.490   9.141   1.163
21947TIP3    H165718   1.555   9.145   1.092
21947TIP3    H265719   1.518   9.207   1.225
21948TIP3   OH265720   3.907   0.045   2.040
21948TIP3    H165721   3.841   0.114   2.042
21948TIP3    H265722   3.933   0.040   1.948
21949TIP3   OH265723   4.344   0.081   1.789
21949TIP3    H165724   4.277   0.057   1.725
21949TIP3    H265725   4.330   0.174   1.805
21950TIP3   OH265726   4.582   0.001   1.884
21950TIP3    H165727   4.493   0.022   1.856
21950TIP3    H265728   4.628  -0.020   1.803
21951TIP3   OH265729   4.929   0.184   1.852
21951TIP3    H165730   4.950   0.272   1.884
21951TIP3    H265731   4.956   0.185   1.760
21952TIP3   OH265732   0.365   9.090   1.877
21952TIP3    H165733   0.390   9.060   1.965
21952TIP3    H265734   0.435   9.057   1.820
21953TIP3   OH265735   0.565   8.961   1.749
21953TIP3    H165736   0.576   8.884   1.805
21953TIP3    H265737   0.653   9.000   1.745
21954TIP3   OH265738   0.830   9.042   1.759
21954TIP3    H165739   0.849   8.948   1.757
21954TIP3    H265740   0.876   9.074   1.837
21955TIP3   OH265741   0.629   7.393   1.774
21955TIP3    H165742   0.562   7.342   1.820
21955TIP3    H265743   0.699   7.405   1.839
21956TIP3   OH265744   0.454   7.308   1.500
21956TIP3    H165745   0.493   7.359   1.428
21956TIP3    H265746   0.429   7.374   1.565
21957TIP3   OH265747   0.135   8.892   1.282
21957TIP3    H165748   0.055   8.862   1.238
21957TIP3    H265749   0.144   8.983   1.255
21958TIP3   OH265750   0.586   7.440   1.286
21958TIP3    H165751   0.631   7.383   1.223
21958TIP3    H265752   0.656   7.495   1.322
21959TIP3   OH265753   1.090   7.604   1.400
21959TIP3    H165754   1.150   7.580   1.471
21959TIP3    H265755   1.087   7.700   1.403
21960TIP3   OH265756   0.949   9.033   0.883
21960TIP3    H165757   1.029   9.064   0.841
21960TIP3    H265758   0.916   8.965   0.824
21961TIP3   OH265759   1.657   9.147   0.944
21961TIP3    H165760   1.645   9.052   0.938
21961TIP3    H265761   1.606   9.182   0.871
21962TIP3   OH265762   0.260   8.876   0.935
21962TIP3    H165763   0.265   8.889   1.030
21962TIP3    H265764   0.340   8.829   0.913
21963TIP3   OH265765   2.003   8.743   0.895
21963TIP3    H165766   1.972   8.766   0.808
21963TIP3    H265767   2.034   8.826   0.932
21964TIP3   OH265768   2.230   9.238   1.043
21964TIP3    H165769   2.323   9.220   1.032
21964TIP3    H265770   2.186   9.156   1.020
21965TIP3   OH265771   6.250   0.052   0.253
21965TIP3    H165772   6.312  -0.016   0.228
21965TIP3    H265773   6.276   0.076   0.342
21966TIP3   OH265774   6.228   0.106   0.541
21966TIP3    H165775   6.133   0.111   0.556
21966TIP3    H265776   6.260   0.046   0.608
21967TIP3   OH265777   2.799   8.829   0.520
21967TIP3    H165778   2.789   8.924   0.527
21967TIP3    H265779   2.828   8.801   0.607
21968TIP3   OH265780   2.485   9.154   1.009
21968TIP3    H165781   2.540   9.206   0.950
21968TIP3    H265782   2.514   9.064   0.994
21969TIP3   OH265783   2.131   8.325   0.745
21969TIP3    H165784   2.171   8.411   0.757
21969TIP3    H265785   2.041   8.335   0.777
21970TIP3   OH265786   6.718   0.107   0.094
21970TIP3    H165787   6.742   0.180   0.037
21970TIP3    H265788   6.649   0.143   0.150
21971TIP3   OH265789   2.513   8.862   0.329
21971TIP3    H165790   2.537   8.771   0.312
21971TIP3    H265791   2.502   8.866   0.424
21972TIP3   OH265792   2.453   8.912   0.595
21972TIP3    H165793   2.532   8.902   0.648
21972TIP3    H265794   2.435   9.006   0.596
21973TIP3   OH265795   2.207   8.588   0.787
21973TIP3    H165796   2.138   8.630   0.839
21973TIP3    H265797   2.221   8.647   0.713
21974TIP3   OH265798   2.767   9.094   0.554
21974TIP3    H165799   2.740   9.139   0.634
21974TIP3    H265800   2.747   9.156   0.484
21975TIP3   OH265801   2.426   9.182   0.605
21975TIP3    H165802   2.425   9.248   0.536
21975TIP3    H265803   2.491   9.213   0.668
21976TIP3   OH265804   2.218   8.768   0.575
21976TIP3    H165805   2.288   8.832   0.586
21976TIP3    H265806   2.250   8.709   0.507
21977TIP3   OH265807   2.094   8.052   0.673
21977TIP3    H165808   2.132   8.135   0.703
21977TIP3    H265809   2.032   8.027   0.741
21978TIP3   OH265810   2.064   9.005   0.989
21978TIP3    H165811   2.005   9.035   1.058
21978TIP3    H265812   2.028   9.041   0.908
21979TIP3   OH265813   2.679   9.043   0.212
21979TIP3    H165814   2.622   8.981   0.257
21979TIP3    H265815   2.758   8.993   0.192
21980TIP3   OH265816   3.154   9.098   0.149
21980TIP3    H165817   3.237   9.079   0.192
21980TIP3    H265818   3.176   9.109   0.057
21981TIP3   OH265819   2.337   8.567   0.431
21981TIP3    H165820   2.381   8.530   0.508
21981TIP3    H265821   2.407   8.579   0.367
21982TIP3   OH265822   2.856   8.792   0.256
21982TIP3    H165823   2.826   8.805   0.346
21982TIP3    H265824   2.913   8.715   0.260
21983TIP3   OH265825   5.738   0.133   0.409
21983TIP3    H165826   5.830   0.106   0.402
21983TIP3    H265827   5.719   0.175   0.325
21984TIP3   OH265828   1.948   8.752   0.614
21984TIP3    H165829   2.041   8.771   0.601
21984TIP3    H265830   1.934   8.669   0.569
21985TIP3   OH265831   5.145   0.045   1.005
21985TIP3    H165832   5.078  -0.014   0.971
21985TIP3    H265833   5.184  -0.003   1.078
21986TIP3   OH265834   1.987   9.174   1.233
21986TIP3    H165835   1.953   9.139   1.315
21986TIP3    H265836   2.078   9.194   1.251
21987TIP3   OH265837   5.490   0.044   1.374
21987TIP3    H165838   5.515   0.074   1.462
21987TIP3    H265839   5.566  -0.007   1.344
21988TIP3   OH265840   1.950   9.102   0.762
21988TIP3    H165841   1.865   9.074   0.731
21988TIP3    H265842   1.963   9.188   0.723
21989TIP3   OH265843   5.989   0.037   0.344
21989TIP3    H165844   6.076   0.061   0.311
21989TIP3    H265845   5.963  -0.039   0.292
21990TIP3   OH265846   2.049   9.122   0.418
21990TIP3    H165847   2.058   9.145   0.511
21990TIP3    H265848   2.132   9.081   0.395
21991TIP3   OH265849   0.868   0.869   1.817
21991TIP3    H165850   0.854   0.780   1.783
21991TIP3    H265851   0.828   0.869   1.903
21992TIP3   OH265852   0.525   0.157   1.658
21992TIP3    H165853   0.619   0.157   1.676
21992TIP3    H265854   0.498   0.066   1.675
21993TIP3   OH265855   0.731   0.373   1.741
21993TIP3    H165856   0.771   0.288   1.762
21993TIP3    H265857   0.721   0.372   1.646
21994TIP3   OH265858   1.011   0.900   1.326
21994TIP3    H165859   1.005   0.994   1.311
21994TIP3    H265860   1.103   0.879   1.308
21995TIP3   OH265861   0.340   1.212   1.791
21995TIP3    H165862   0.298   1.187   1.709
21995TIP3    H265863   0.292   1.289   1.821
21996TIP3   OH265864   0.529   1.132   1.433
21996TIP3    H165865   0.576   1.057   1.396
21996TIP3    H265866   0.565   1.140   1.522
21997TIP3   OH265867   0.593   1.172   1.698
21997TIP3    H165868   0.511   1.171   1.746
21997TIP3    H265869   0.661   1.174   1.766
21998TIP3   OH265870   0.744   0.359   1.467
21998TIP3    H165871   0.706   0.332   1.383
21998TIP3    H265872   0.835   0.382   1.446
21999TIP3   OH265873   0.374   0.619   1.707
21999TIP3    H165874   0.356   0.712   1.709
21999TIP3    H265875   0.290   0.577   1.727
22000TIP3   OH265876   1.253   0.178   1.620
22000TIP3    H165877   1.203   0.128   1.555
22000TIP3    H265878   1.232   0.269   1.600
22001TIP3   OH265879   0.978   0.995   1.599
22001TIP3    H165880   0.942   0.947   1.673
22001TIP3    H265881   0.973   0.933   1.526
22002TIP3   OH265882   0.706   0.712   1.485
22002TIP3    H165883   0.748   0.685   1.567
22002TIP3    H265884   0.623   0.665   1.484
22003TIP3   OH265885   1.005   1.173   1.289
22003TIP3    H165886   1.010   1.229   1.211
22003TIP3    H265887   0.939   1.215   1.344
22004TIP3   OH265888   0.847   0.620   1.707
22004TIP3    H165889   0.814   0.534   1.732
22004TIP3    H265890   0.942   0.608   1.701
22005TIP3   OH265891   0.057   0.715   1.476
22005TIP3    H165892   0.096   0.638   1.434
22005TIP3    H265893   0.007   0.679   1.549
22006TIP3   OH265894   0.273   0.871   1.699
22006TIP3    H165895   0.179   0.882   1.715
22006TIP3    H265896   0.303   0.957   1.670
22007TIP3   OH265897   9.809   0.943   1.737
22007TIP3    H165898   9.795   1.016   1.677
22007TIP3    H265899   9.764   0.969   1.817
22008TIP3   OH265900   0.217   0.911   1.379
22008TIP3    H165901   0.168   0.845   1.428
22008TIP3    H265902   0.290   0.864   1.340
22009TIP3   OH265903   0.652   0.919   1.314
22009TIP3    H165904   0.686   0.856   1.377
22009TIP3    H265905   0.710   0.911   1.238
22010TIP3   OH265906   9.721   0.556   1.658
22010TIP3    H165907   9.673   0.578   1.738
22010TIP3    H265908   9.804   0.520   1.688
22011TIP3   OH265909   0.458   0.594   1.446
22011TIP3    H165910   0.425   0.596   1.535
22011TIP3    H265911   0.449   0.502   1.420
22012TIP3   OH265912   0.151   0.167   1.768
22012TIP3    H165913   0.107   0.088   1.739
22012TIP3    H265914   0.201   0.196   1.692
22013TIP3   OH265915   0.981   0.428   1.344
22013TIP3    H165916   0.972   0.378   1.263
22013TIP3    H265917   0.952   0.516   1.321
22014TIP3   OH265918   0.004   1.169   1.581
22014TIP3    H165919   0.099   1.167   1.570
22014TIP3    H265920  -0.029   1.215   1.504
22015TIP3   OH265921   1.129   0.626   1.693
22015TIP3    H165922   1.182   0.698   1.660
22015TIP3    H265923   1.180   0.589   1.765
22016TIP3   OH265924   1.285   0.503   1.888
22016TIP3    H165925   1.245   0.487   1.974
22016TIP3    H265926   1.375   0.530   1.908
22017TIP3   OH265927   1.186   0.422   1.521
22017TIP3    H165928   1.115   0.418   1.457
22017TIP3    H265929   1.163   0.493   1.580
22018TIP3   OH265930   1.096   0.067   1.414
22018TIP3    H165931   1.027   0.080   1.349
22018TIP3    H265932   1.051   0.034   1.491
22019TIP3   OH265933   7.550   9.184   1.644
22019TIP3    H165934   7.629   9.138   1.672
22019TIP3    H265935   7.481   9.118   1.649
22020TIP3   OH265936   7.786   9.044   1.689
22020TIP3    H165937   7.790   8.985   1.614
22020TIP3    H265938   7.856   9.108   1.673
22021TIP3   OH265939   0.789   1.264   1.869
22021TIP3    H165940   0.853   1.262   1.798
22021TIP3    H265941   0.835   1.308   1.941
22022TIP3   OH265942   0.273   1.124   1.537
22022TIP3    H165943   0.359   1.147   1.502
22022TIP3    H265944   0.242   1.053   1.481
22023TIP3   OH265945   0.955   1.259   1.644
22023TIP3    H165946   0.969   1.165   1.631
22023TIP3    H265947   0.913   1.288   1.563
22024TIP3   OH265948   9.367   0.952   1.571
22024TIP3    H165949   9.377   0.970   1.664
22024TIP3    H265950   9.448   0.906   1.547
22025TIP3   OH265951   2.456   0.773   1.572
22025TIP3    H165952   2.425   0.859   1.545
22025TIP3    H265953   2.388   0.712   1.543
22026TIP3   OH265954   2.426   0.749   1.963
22026TIP3    H165955   2.470   0.732   2.046
22026TIP3    H265956   2.388   0.665   1.937
22027TIP3   OH265957   2.721   1.017   1.653
22027TIP3    H165958   2.703   0.960   1.727
22027TIP3    H265959   2.762   1.094   1.691
22028TIP3   OH265960   1.755   1.045   2.018
22028TIP3    H165961   1.736   0.952   2.025
22028TIP3    H265962   1.849   1.049   2.001
22029TIP3   OH265963   1.417   0.255   1.828
22029TIP3    H165964   1.379   0.341   1.848
22029TIP3    H265965   1.357   0.216   1.765
22030TIP3   OH265966   1.548   0.537   1.952
22030TIP3    H165967   1.604   0.460   1.954
22030TIP3    H265968   1.605   0.609   1.979
22031TIP3   OH265969   2.366   1.489   1.694
22031TIP3    H165970   2.408   1.429   1.632
22031TIP3    H265971   2.346   1.434   1.770
22032TIP3   OH265972   2.249   0.965   1.974
22032TIP3    H165973   2.294   0.884   1.948
22032TIP3    H265974   2.318   1.021   2.008
22033TIP3   OH265975   3.317   0.331   1.979
22033TIP3    H165976   3.297   0.424   1.966
22033TIP3    H265977   3.365   0.305   1.900
22034TIP3   OH265978   2.667   0.468   2.048
22034TIP3    H165979   2.680   0.378   2.080
22034TIP3    H265980   2.636   0.457   1.958
22035TIP3   OH265981   2.057   0.114   1.946
22035TIP3    H165982   2.016   0.196   1.917
22035TIP3    H265983   1.985   0.051   1.948
22036TIP3   OH265984   2.714   0.235   1.618
22036TIP3    H165985   2.784   0.229   1.683
22036TIP3    H265986   2.756   0.272   1.540
22037TIP3   OH265987   2.081   0.548   1.883
22037TIP3    H165988   2.174   0.525   1.885
22037TIP3    H265989   2.036   0.466   1.867
22038TIP3   OH265990   2.349   0.985   1.429
22038TIP3    H165991   2.309   0.953   1.348
22038TIP3    H265992   2.295   1.060   1.454
22039TIP3   OH265993   2.920   0.254   1.791
22039TIP3    H165994   2.934   0.244   1.885
22039TIP3    H265995   3.008   0.257   1.753
22040TIP3   OH265996   1.306   0.812   1.567
22040TIP3    H165997   1.276   0.829   1.477
22040TIP3    H265998   1.329   0.899   1.601
22041TIP3   OH265999   2.798   1.269   1.751
22041TIP3    H166000   2.724   1.273   1.812
22041TIP3    H266001   2.783   1.343   1.692
22042TIP3   OH266002   3.055   0.253   2.035
22042TIP3    H166003   3.044   0.172   2.085
22042TIP3    H266004   3.150   0.262   2.025
22043TIP3   OH266005   2.475   1.329   1.503
22043TIP3    H166006   2.520   1.246   1.485
22043TIP3    H266007   2.512   1.391   1.440
22044TIP3   OH266008   2.601   1.101   1.423
22044TIP3    H166009   2.523   1.047   1.414
22044TIP3    H266010   2.650   1.062   1.495
22045TIP3   OH266011   2.288   0.611   1.419
22045TIP3    H166012   2.202   0.649   1.402
22045TIP3    H266013   2.331   0.608   1.333
22046TIP3   OH266014   2.253   0.419   1.102
22046TIP3    H166015   2.319   0.467   1.151
22046TIP3    H266016   2.302   0.350   1.056
22047TIP3   OH266017   3.124   0.877   2.068
22047TIP3    H166018   3.041   0.918   2.044
22047TIP3    H266019   3.171   0.866   1.985
22048TIP3   OH266020   2.638   0.701   1.379
22048TIP3    H166021   2.584   0.730   1.453
22048TIP3    H266022   2.721   0.675   1.419
22049TIP3   OH266023   1.864   0.678   1.763
22049TIP3    H166024   1.824   0.615   1.704
22049TIP3    H266025   1.941   0.633   1.799
22050TIP3   OH266026   2.010   1.095   1.914
22050TIP3    H166027   1.986   1.075   1.824
22050TIP3    H266028   2.091   1.045   1.929
22051TIP3   OH266029   2.010   0.723   2.086
22051TIP3    H166030   2.035   0.656   2.022
22051TIP3    H266031   2.086   0.781   2.090
22052TIP3   OH266032   2.591   1.276   1.942
22052TIP3    H166033   2.522   1.340   1.955
22052TIP3    H266034   2.557   1.195   1.981
22053TIP3   OH266035   2.473   0.558   1.209
22053TIP3    H166036   2.532   0.617   1.256
22053TIP3    H266037   2.504   0.562   1.118
22054TIP3   OH266038   2.218   1.227   1.475
22054TIP3    H166039   2.302   1.272   1.489
22054TIP3    H266040   2.167   1.288   1.422
22055TIP3   OH266041   9.525   9.022   1.272
22055TIP3    H166042   9.447   9.045   1.322
22055TIP3    H266043   9.537   9.095   1.211
22056TIP3   OH266044   1.737   0.511   1.577
22056TIP3    H166045   1.658   0.559   1.553
22056TIP3    H266046   1.706   0.424   1.602
22057TIP3   OH266047   2.802   1.155   0.816
22057TIP3    H166048   2.798   1.249   0.795
22057TIP3    H266049   2.892   1.130   0.795
22058TIP3   OH266050   2.113   1.438   1.305
22058TIP3    H166051   2.068   1.417   1.223
22058TIP3    H266052   2.075   1.522   1.331
22059TIP3   OH266053   1.543   1.302   1.681
22059TIP3    H166054   1.583   1.292   1.768
22059TIP3    H266055   1.491   1.222   1.670
22060TIP3   OH266056   2.304   1.376   0.910
22060TIP3    H166057   2.355   1.303   0.874
22060TIP3    H266058   2.335   1.386   0.999
22061TIP3   OH266059   2.356   1.422   1.173
22061TIP3    H166060   2.279   1.417   1.230
22061TIP3    H266061   2.430   1.428   1.233
22062TIP3   OH266062   2.554   0.533   0.948
22062TIP3    H166063   2.504   0.537   0.866
22062TIP3    H266064   2.636   0.578   0.929
22063TIP3   OH266065   8.799   9.189   1.256
22063TIP3    H166066   8.761   9.202   1.343
22063TIP3    H266067   8.760   9.107   1.225
22064TIP3   OH266068   1.933   0.329   1.822
22064TIP3    H166069   1.844   0.311   1.853
22064TIP3    H266070   1.936   0.290   1.735
22065TIP3   OH266071   2.422   0.416   1.556
22065TIP3    H166072   2.371   0.487   1.515
22065TIP3    H266073   2.474   0.380   1.485
22066TIP3   OH266074   2.582   0.422   1.781
22066TIP3    H166075   2.523   0.445   1.709
22066TIP3    H266076   2.626   0.342   1.751
22067TIP3   OH266077   8.466   9.181   1.248
22067TIP3    H166078   8.458   9.188   1.343
22067TIP3    H266079   8.389   9.226   1.214
22068TIP3   OH266080   1.449  -0.014   1.625
22068TIP3    H166081   1.484  -0.006   1.537
22068TIP3    H266082   1.392   0.062   1.636
22069TIP3   OH266083   2.571   0.684   2.186
22069TIP3    H166084   2.613   0.612   2.139
22069TIP3    H266085   2.549   0.647   2.272
22070TIP3   OH266086   2.312   0.132   1.854
22070TIP3    H166087   2.227   0.120   1.897
22070TIP3    H266088   2.375   0.106   1.921
22071TIP3   OH266089   1.686   0.238   1.886
22071TIP3    H166090   1.592   0.233   1.869
22071TIP3    H266091   1.715   0.146   1.888
22072TIP3   OH266092   1.948   0.210   1.577
22072TIP3    H166093   2.042   0.226   1.564
22072TIP3    H266094   1.909   0.229   1.492
22073TIP3   OH266095   2.677   0.204   2.119
22073TIP3    H166096   2.702   0.155   2.197
22073TIP3    H266097   2.617   0.146   2.072
22074TIP3   OH266098   1.833   0.237   1.331
22074TIP3    H166099   1.770   0.187   1.279
22074TIP3    H266100   1.888   0.281   1.267
22075TIP3   OH266101   2.348   0.480   1.931
22075TIP3    H166102   2.421   0.450   1.877
22075TIP3    H266103   2.334   0.409   1.994
22076TIP3   OH266104   8.350   9.217   1.856
22076TIP3    H166105   8.271   9.166   1.868
22076TIP3    H266106   8.388   9.184   1.775
22077TIP3   OH266107   2.046   0.731   1.361
22077TIP3    H166108   1.970   0.678   1.336
22077TIP3    H266109   2.017   0.778   1.439
22078TIP3   OH266110   2.879   0.986   2.005
22078TIP3    H166111   2.920   1.014   1.923
22078TIP3    H266112   2.802   0.936   1.977
22079TIP3   OH266113   2.512   0.063   1.265
22079TIP3    H166114   2.420   0.037   1.259
22079TIP3    H266115   2.511   0.158   1.276
22080TIP3   OH266116   2.569   0.329   1.335
22080TIP3    H166117   2.665   0.333   1.340
22080TIP3    H266118   2.544   0.405   1.283
22081TIP3   OH266119   1.750   0.761   2.002
22081TIP3    H166120   1.779   0.742   1.913
22081TIP3    H266121   1.827   0.746   2.056
22082TIP3   OH266122   2.198   0.897   1.209
22082TIP3    H166123   2.150   0.979   1.205
22082TIP3    H266124   2.142   0.838   1.259
22083TIP3   OH266125   2.979   0.410   1.151
22083TIP3    H166126   2.922   0.364   1.090
22083TIP3    H266127   2.987   0.499   1.116
22084TIP3   OH266128   2.722   1.195   1.085
22084TIP3    H166129   2.691   1.122   1.139
22084TIP3    H266130   2.740   1.156   1.000
22085TIP3   OH266131   2.675   0.844   1.874
22085TIP3    H166132   2.585   0.813   1.877
22085TIP3    H266133   2.725   0.771   1.837
22086TIP3   OH266134   1.856   1.099   1.678
22086TIP3    H166135   1.849   1.175   1.620
22086TIP3    H266136   1.766   1.080   1.705
22087TIP3   OH266137   1.427   0.387   1.399
22087TIP3    H166138   1.473   0.468   1.419
22087TIP3    H266139   1.343   0.395   1.444
22088TIP3   OH266140   1.941   0.861   1.571
22088TIP3    H166141   1.925   0.949   1.606
22088TIP3    H266142   1.915   0.802   1.642
22089TIP3   OH266143   2.148   1.456   2.105
22089TIP3    H166144   2.110   1.544   2.100
22089TIP3    H266145   2.113   1.419   2.186
22090TIP3   OH266146   1.770   1.318   1.528
22090TIP3    H166147   1.684   1.322   1.570
22090TIP3    H266148   1.801   1.408   1.527
22091TIP3   OH266149   2.513   1.039   2.066
22091TIP3    H166150   2.520   1.007   2.156
22091TIP3    H266151   2.551   0.969   2.013
22092TIP3   OH266152   2.493   0.962   0.968
22092TIP3    H166153   2.541   0.936   1.047
22092TIP3    H266154   2.409   0.917   0.975
22093TIP3   OH266155   2.805   1.429   0.776
22093TIP3    H166156   2.845   1.501   0.726
22093TIP3    H266157   2.722   1.465   0.807
22094TIP3   OH266158   2.661   0.886   1.170
22094TIP3    H166159   2.641   0.835   1.248
22094TIP3    H266160   2.757   0.885   1.165
22095TIP3   OH266161   1.843   0.927   0.996
22095TIP3    H166162   1.854   0.836   0.968
22095TIP3    H266163   1.830   0.922   1.091
22096TIP3   OH266164   1.786   0.945   1.269
22096TIP3    H166165   1.843   0.920   1.342
22096TIP3    H266166   1.786   1.040   1.271
22097TIP3   OH266167   1.513   0.641   1.479
22097TIP3    H166168   1.445   0.686   1.529
22097TIP3    H266169   1.532   0.700   1.406
22098TIP3   OH266170   2.578   0.014   1.528
22098TIP3    H166171   2.553   0.033   1.438
22098TIP3    H266172   2.616   0.096   1.561
22099TIP3   OH266173   2.056   1.127   1.203
22099TIP3    H166174   1.971   1.152   1.239
22099TIP3    H266175   2.080   1.200   1.146
22100TIP3   OH266176   2.230   0.224   1.608
22100TIP3    H166177   2.291   0.294   1.586
22100TIP3    H266178   2.251   0.201   1.699
22101TIP3   OH266179   8.922   9.154   1.696
22101TIP3    H166180   8.897   9.231   1.747
22101TIP3    H266181   8.991   9.185   1.638
22102TIP3   OH266182   1.807   1.218   1.276
22102TIP3    H166183   1.786   1.290   1.217
22102TIP3    H266184   1.792   1.254   1.364
22103TIP3   OH266185   8.441   9.179   1.531
22103TIP3    H166186   8.432   9.271   1.556
22103TIP3    H266187   8.536   9.163   1.531
22104TIP3   OH266188   2.802   0.605   1.787
22104TIP3    H166189   2.730   0.542   1.792
22104TIP3    H266190   2.865   0.574   1.851
22105TIP3   OH266191   1.543   0.812   1.259
22105TIP3    H166192   1.616   0.873   1.267
22105TIP3    H266193   1.572   0.748   1.194
22106TIP3   OH266194   1.433   0.108   1.369
22106TIP3    H166195   1.444   0.201   1.384
22106TIP3    H266196   1.341   0.098   1.347
22107TIP3   OH266197   2.805   1.503   1.592
22107TIP3    H166198   2.738   1.566   1.563
22107TIP3    H266199   2.859   1.489   1.514
22108TIP3   OH266200   1.364   1.087   1.641
22108TIP3    H166201   1.315   1.123   1.715
22108TIP3    H266202   1.324   1.126   1.564
22109TIP3   OH266203   1.992   1.130   0.884
22109TIP3    H166204   1.946   1.059   0.929
22109TIP3    H266205   2.067   1.086   0.843
22110TIP3   OH266206   2.438   1.168   0.798
22110TIP3    H166207   2.473   1.104   0.860
22110TIP3    H266208   2.495   1.163   0.722
22111TIP3   OH266209   1.664   0.625   1.100
22111TIP3    H166210   1.713   0.598   1.179
22111TIP3    H266211   1.731   0.637   1.034
22112TIP3   OH266212   2.245   0.840   0.945
22112TIP3    H166213   2.220   0.850   1.037
22112TIP3    H266214   2.222   0.750   0.923
22113TIP3   OH266215   1.831   0.563   1.315
22113TIP3    H166216   1.807   0.532   1.402
22113TIP3    H266217   1.881   0.491   1.276
22114TIP3   OH266218   1.983   0.387   1.160
22114TIP3    H166219   1.952   0.390   1.069
22114TIP3    H266220   2.078   0.396   1.153
22115TIP3   OH266221   2.772   0.662   0.837
22115TIP3    H166222   2.758   0.622   0.752
22115TIP3    H266223   2.750   0.755   0.824
22116TIP3   OH266224   1.805   1.434   1.102
22116TIP3    H166225   1.893   1.411   1.074
22116TIP3    H266226   1.766   1.476   1.025
22117TIP3   OH266227   1.270   0.818   1.275
22117TIP3    H166228   1.365   0.828   1.273
22117TIP3    H266229   1.254   0.733   1.233
22118TIP3   OH266230   1.168   1.412   1.717
22118TIP3    H166231   1.096   1.362   1.677
22118TIP3    H266232   1.212   1.349   1.775
22119TIP3   OH266233   1.291   1.231   1.881
22119TIP3    H166234   1.249   1.175   1.947
22119TIP3    H266235   1.347   1.290   1.932
22120TIP3   OH266236   2.986   1.770   1.693
22120TIP3    H166237   3.064   1.717   1.707
22120TIP3    H266238   2.966   1.760   1.600
22121TIP3   OH266239   2.936   0.865   1.176
22121TIP3    H166240   2.994   0.931   1.140
22121TIP3    H266241   2.983   0.830   1.252
22122TIP3   OH266242   3.067   0.729   1.380
22122TIP3    H166243   2.995   0.691   1.430
22122TIP3    H266244   3.125   0.767   1.446
22123TIP3   OH266245   3.033   1.042   1.792
22123TIP3    H166246   3.108   0.993   1.762
22123TIP3    H266247   3.062   1.134   1.791
22124TIP3   OH266248   2.844   1.324   2.069
22124TIP3    H166249   2.758   1.367   2.072
22124TIP3    H266250   2.823   1.232   2.051
22125TIP3   OH266251   2.980   0.648   1.015
22125TIP3    H166252   2.910   0.646   0.950
22125TIP3    H266253   2.961   0.724   1.070
22126TIP3   OH266254   2.826   0.298   0.956
22126TIP3    H166255   2.781   0.333   0.880
22126TIP3    H266256   2.820   0.203   0.945
22127TIP3   OH266257   2.863   0.597   1.513
22127TIP3    H166258   2.864   0.502   1.497
22127TIP3    H266259   2.845   0.605   1.607
22128TIP3   OH266260   2.796   0.026   0.927
22128TIP3    H166261   2.860  -0.001   0.993
22128TIP3    H266262   2.713  -0.011   0.957
22129TIP3   OH266263   2.859   0.325   1.393
22129TIP3    H166264   2.905   0.243   1.407
22129TIP3    H266265   2.899   0.363   1.315
22130TIP3   OH266266   3.010   0.519   1.961
22130TIP3    H166267   3.092   0.535   1.913
22130TIP3    H266268   3.012   0.426   1.983
22131TIP3   OH266269   2.997   0.638   2.206
22131TIP3    H166270   2.929   0.589   2.252
22131TIP3    H266271   2.996   0.602   2.117
22132TIP3   OH266272   2.979   0.077   1.443
22132TIP3    H166273   3.022   0.057   1.526
22132TIP3    H266274   2.916   0.006   1.431
22133TIP3   OH266275   9.559   9.218   1.084
22133TIP3    H166276   9.606   9.161   1.024
22133TIP3    H266277   9.611   9.299   1.087
22134TIP3   OH266278   8.103   9.094   1.836
22134TIP3    H166279   8.034   9.072   1.899
22134TIP3    H266280   8.060   9.149   1.771
22135TIP3   OH266281   2.573   1.500   1.319
22135TIP3    H166282   2.634   1.494   1.246
22135TIP3    H266283   2.603   1.576   1.369
22136TIP3   OH266284   1.897   1.604   2.138
22136TIP3    H166285   1.832   1.567   2.198
22136TIP3    H266286   1.845   1.641   2.067
22137TIP3   OH266287   2.145   1.725   1.975
22137TIP3    H166288   2.089   1.684   1.909
22137TIP3    H266289   2.087   1.784   2.022
22138TIP3   OH266290   2.405   1.473   2.001
22138TIP3    H166291   2.317   1.460   2.036
22138TIP3    H266292   2.404   1.563   1.967
22139TIP3   OH266293   2.692   1.753   1.929
22139TIP3    H166294   2.726   1.833   1.890
22139TIP3    H266295   2.598   1.758   1.916
22140TIP3   OH266296   1.464   1.394   2.030
22140TIP3    H166297   1.467   1.377   2.124
22140TIP3    H266298   1.546   1.358   1.996
22141TIP3   OH266299   1.689   1.290   1.921
22141TIP3    H166300   1.703   1.202   1.958
22141TIP3    H266301   1.777   1.326   1.911
22142TIP3   OH266302   1.961   1.366   1.912
22142TIP3    H166303   1.978   1.272   1.901
22142TIP3    H266304   2.026   1.394   1.978
22143TIP3   OH266305   9.046   9.252   2.003
22143TIP3    H166306   8.990   9.175   2.012
22143TIP3    H266307   9.121   9.221   1.953
22144TIP3   OH266308   9.544   9.153   1.883
22144TIP3    H166309   9.584   9.202   1.811
22144TIP3    H266310   9.452   9.180   1.882
22145TIP3   OH266311   3.134   0.019   1.664
22145TIP3    H166312   3.200  -0.046   1.640
22145TIP3    H266313   3.177   0.103   1.649
22146TIP3   OH266314   8.146   8.877   1.669
22146TIP3    H166315   8.170   8.921   1.587
22146TIP3    H266316   8.140   8.948   1.733
22147TIP3   OH266317   8.872   9.037   1.946
22147TIP3    H166318   8.878   9.063   1.854
22147TIP3    H266319   8.808   8.966   1.946
22148TIP3   OH266320   9.264   9.156   1.862
22148TIP3    H166321   9.246   9.121   1.775
22148TIP3    H266322   9.268   9.080   1.919
22149TIP3   OH266323   9.328   9.108   1.441
22149TIP3    H166324   9.249   9.157   1.465
22149TIP3    H266325   9.311   9.019   1.472
22150TIP3   OH266326   1.252   1.205   1.419
22150TIP3    H166327   1.168   1.172   1.386
22150TIP3    H266328   1.254   1.297   1.392
22151TIP3   OH266329   8.239   9.014   1.439
22151TIP3    H166330   8.283   8.963   1.372
22151TIP3    H266331   8.308   9.071   1.475
22152TIP3   OH266332   8.714   9.210   1.517
22152TIP3    H166333   8.772   9.159   1.573
22152TIP3    H266334   8.728   9.300   1.543
22153TIP3   OH266335   2.056   1.351   1.030
22153TIP3    H166336   2.137   1.379   0.988
22153TIP3    H266337   2.023   1.280   0.975
22154TIP3   OH266338   2.721   1.465   1.091
22154TIP3    H166339   2.721   1.370   1.089
22154TIP3    H266340   2.676   1.491   1.011
22155TIP3   OH266341   1.370   1.196   1.086
22155TIP3    H166342   1.368   1.198   1.182
22155TIP3    H266343   1.450   1.148   1.066
22156TIP3   OH266344   4.085   0.928   1.074
22156TIP3    H166345   4.079   1.013   1.029
22156TIP3    H266346   4.052   0.865   1.010
22157TIP3   OH266347   4.176   1.043   1.452
22157TIP3    H166348   4.234   1.055   1.526
22157TIP3    H266349   4.219   0.977   1.398
22158TIP3   OH266350   3.548   0.759   1.751
22158TIP3    H166351   3.517   0.845   1.780
22158TIP3    H266352   3.624   0.777   1.697
22159TIP3   OH266353   4.544   1.363   1.124
22159TIP3    H166354   4.528   1.281   1.171
22159TIP3    H266355   4.469   1.419   1.145
22160TIP3   OH266356   3.512   1.277   1.569
22160TIP3    H166357   3.544   1.193   1.538
22160TIP3    H266358   3.592   1.324   1.595
22161TIP3   OH266359   3.216   0.504   1.292
22161TIP3    H166360   3.176   0.587   1.318
22161TIP3    H266361   3.146   0.457   1.245
22162TIP3   OH266362   3.284   0.810   1.542
22162TIP3    H166363   3.316   0.721   1.556
22162TIP3    H266364   3.356   0.854   1.497
22163TIP3   OH266365   4.153   1.865   1.111
22163TIP3    H166366   4.207   1.787   1.097
22163TIP3    H266367   4.165   1.885   1.204
22164TIP3   OH266368   4.032   1.279   1.525
22164TIP3    H166369   4.041   1.196   1.479
22164TIP3    H266370   4.121   1.303   1.551
22165TIP3   OH266371   4.980   0.594   1.516
22165TIP3    H166372   5.025   0.676   1.496
22165TIP3    H266373   5.029   0.527   1.470
22166TIP3   OH266374   4.460   0.746   1.423
22166TIP3    H166375   4.538   0.720   1.471
22166TIP3    H266376   4.410   0.665   1.412
22167TIP3   OH266377   3.791   0.366   1.483
22167TIP3    H166378   3.770   0.438   1.424
22167TIP3    H266379   3.740   0.292   1.448
22168TIP3   OH266380   4.449   0.392   1.118
22168TIP3    H166381   4.475   0.323   1.180
22168TIP3    H266382   4.530   0.418   1.076
22169TIP3   OH266383   3.397   0.570   1.615
22169TIP3    H166384   3.474   0.610   1.655
22169TIP3    H266385   3.431   0.519   1.541
22170TIP3   OH266386   3.862   0.765   1.364
22170TIP3    H166387   3.955   0.744   1.375
22170TIP3    H266388   3.822   0.682   1.338
22171TIP3   OH266389   3.707   0.319   1.969
22171TIP3    H166390   3.703   0.358   1.882
22171TIP3    H266391   3.634   0.257   1.972
22172TIP3   OH266392   4.080   1.155   0.925
22172TIP3    H166393   4.065   1.140   0.832
22172TIP3    H266394   4.030   1.234   0.945
22173TIP3   OH266395   3.754   1.143   1.675
22173TIP3    H166396   3.749   1.219   1.732
22173TIP3    H266397   3.843   1.109   1.686
22174TIP3   OH266398   4.671   0.488   1.281
22174TIP3    H166399   4.734   0.418   1.261
22174TIP3    H266400   4.725   0.565   1.295
22175TIP3   OH266401   3.704   0.459   1.728
22175TIP3    H166402   3.756   0.536   1.749
22175TIP3    H266403   3.741   0.426   1.646
22176TIP3   OH266404   3.101   1.037   1.040
22176TIP3    H166405   3.068   1.049   0.951
22176TIP3    H266406   3.119   1.125   1.072
22177TIP3   OH266407   4.938   0.455   1.745
22177TIP3    H166408   4.875   0.406   1.692
22177TIP3    H266409   4.971   0.523   1.686
22178TIP3   OH266410   4.127   0.036   1.618
22178TIP3    H166411   4.123  -0.056   1.644
22178TIP3    H266412   4.056   0.078   1.667
22179TIP3   OH266413   4.324   1.651   1.104
22179TIP3    H166414   4.318   1.572   1.052
22179TIP3    H266415   4.386   1.706   1.056
22180TIP3   OH266416   4.281   1.421   0.971
22180TIP3    H166417   4.198   1.416   0.923
22180TIP3    H266418   4.317   1.333   0.965
22181TIP3   OH266419   4.008   0.829   0.827
22181TIP3    H166420   3.934   0.889   0.819
22181TIP3    H266421   4.066   0.851   0.754
22182TIP3   OH266422   4.024   0.633   0.573
22182TIP3    H166423   4.089   0.686   0.620
22182TIP3    H266424   4.075   0.566   0.528
22183TIP3   OH266425   4.343   0.966   0.812
22183TIP3    H166426   4.329   1.033   0.878
22183TIP3    H266427   4.407   0.907   0.850
22184TIP3   OH266428   3.655   0.913   1.264
22184TIP3    H166429   3.607   0.867   1.195
22184TIP3    H266430   3.729   0.856   1.284
22185TIP3   OH266431   3.753   1.361   1.329
22185TIP3    H166432   3.723   1.354   1.238
22185TIP3    H266433   3.790   1.275   1.349
22186TIP3   OH266434   3.750   0.850   1.594
22186TIP3    H166435   3.780   0.810   1.512
22186TIP3    H266436   3.819   0.910   1.619
22187TIP3   OH266437   4.240   0.778   0.652
22187TIP3    H166438   4.274   0.853   0.701
22187TIP3    H266439   4.280   0.785   0.566
22188TIP3   OH266440   3.968   1.389   0.991
22188TIP3    H166441   4.012   1.443   1.057
22188TIP3    H266442   3.881   1.429   0.981
22189TIP3   OH266443   4.775   0.033   0.747
22189TIP3    H166444   4.696   0.052   0.799
22189TIP3    H266445   4.787   0.111   0.693
22190TIP3   OH266446   3.528   0.761   1.069
22190TIP3    H166447   3.452   0.807   1.034
22190TIP3    H266448   3.501   0.669   1.072
22191TIP3   OH266449   4.543   1.386   0.205
22191TIP3    H166450   4.611   1.451   0.185
22191TIP3    H266451   4.585   1.325   0.266
22192TIP3   OH266452   3.052   1.291   1.578
22192TIP3    H166453   3.123   1.229   1.595
22192TIP3    H266454   2.978   1.257   1.629
22193TIP3   OH266455   3.825   1.665   0.745
22193TIP3    H166456   3.829   1.640   0.652
22193TIP3    H266457   3.741   1.709   0.754
22194TIP3   OH266458   3.260   1.523   1.238
22194TIP3    H166459   3.345   1.517   1.281
22194TIP3    H266460   3.268   1.466   1.161
22195TIP3   OH266461   4.077   1.512   0.430
22195TIP3    H166462   4.123   1.475   0.354
22195TIP3    H266463   4.131   1.586   0.457
22196TIP3   OH266464   4.170   1.667   0.638
22196TIP3    H166465   4.129   1.664   0.725
22196TIP3    H266466   4.252   1.620   0.649
22197TIP3   OH266467   3.924   0.134   1.770
22197TIP3    H166468   3.830   0.139   1.751
22197TIP3    H266469   3.943   0.215   1.818
22198TIP3   OH266470   4.352   0.773   0.406
22198TIP3    H166471   4.302   0.781   0.325
22198TIP3    H266472   4.432   0.823   0.389
22199TIP3   OH266473   4.038   0.215   0.759
22199TIP3    H166474   4.008   0.218   0.850
22199TIP3    H266475   4.006   0.132   0.726
22200TIP3   OH266476   3.864   0.680   1.790
22200TIP3    H166477   3.886   0.723   1.872
22200TIP3    H266478   3.829   0.750   1.735
22201TIP3   OH266479   3.701   0.555   1.307
22201TIP3    H166480   3.612   0.530   1.335
22201TIP3    H266481   3.708   0.521   1.218
22202TIP3   OH266482   4.147   0.631   0.966
22202TIP3    H166483   4.095   0.692   0.913
22202TIP3    H266484   4.218   0.603   0.907
22203TIP3   OH266485   4.274   0.607   1.207
22203TIP3    H166486   4.231   0.628   1.124
22203TIP3    H266487   4.341   0.543   1.183
22204TIP3   OH266488   3.717   0.188   0.733
22204TIP3    H166489   3.707   0.190   0.829
22204TIP3    H266490   3.639   0.233   0.701
22205TIP3   OH266491   3.251   0.251   1.597
22205TIP3    H166492   3.330   0.286   1.639
22205TIP3    H266493   3.278   0.235   1.506
22206TIP3   OH266494   3.170   0.215   1.095
22206TIP3    H166495   3.215   0.250   1.018
22206TIP3    H266496   3.104   0.281   1.116
22207TIP3   OH266497   4.314   1.063   1.684
22207TIP3    H166498   4.378   0.992   1.681
22207TIP3    H266499   4.304   1.083   1.777
22208TIP3   OH266500   4.051   0.402   1.387
22208TIP3    H166501   3.969   0.372   1.429
22208TIP3    H266502   4.114   0.333   1.408
22209TIP3   OH266503   3.468   0.435   1.386
22209TIP3    H166504   3.382   0.446   1.344
22209TIP3    H266505   3.496   0.347   1.360
22210TIP3   OH266506   3.717   0.445   1.060
22210TIP3    H166507   3.812   0.456   1.053
22210TIP3    H266508   3.684   0.466   0.973
22211TIP3   OH266509   4.644   0.598   1.559
22211TIP3    H166510   4.618   0.590   1.651
22211TIP3    H266511   4.579   0.546   1.511
22212TIP3   OH266512   3.608   0.484   0.815
22212TIP3    H166513   3.548   0.430   0.762
22212TIP3    H266514   3.661   0.531   0.751
22213TIP3   OH266515   4.114   0.665   1.423
22213TIP3    H166516   4.176   0.665   1.350
22213TIP3    H266517   4.087   0.573   1.432
22214TIP3   OH266518   3.615   0.194   1.348
22214TIP3    H166519   3.588   0.118   1.400
22214TIP3    H266520   3.645   0.156   1.264
22215TIP3   OH266521   4.103   0.544   1.765
22215TIP3    H166522   4.025   0.599   1.759
22215TIP3    H266523   4.170   0.602   1.802
22216TIP3   OH266524   3.799   1.016   0.818
22216TIP3    H166525   3.723   0.958   0.807
22216TIP3    H266526   3.791   1.049   0.907
22217TIP3   OH266527   4.285   0.312   0.710
22217TIP3    H166528   4.192   0.296   0.721
22217TIP3    H266529   4.297   0.404   0.735
22218TIP3   OH266530   4.351   0.565   0.792
22218TIP3    H166531   4.446   0.566   0.800
22218TIP3    H266532   4.330   0.638   0.734
22219TIP3   OH266533   3.520   0.993   1.496
22219TIP3    H166534   3.549   0.979   1.406
22219TIP3    H266535   3.590   0.958   1.551
22220TIP3   OH266536   3.996   1.127   0.662
22220TIP3    H166537   4.001   1.222   0.665
22220TIP3    H266538   3.913   1.106   0.703
22221TIP3   OH266539   4.777   0.661   0.584
22221TIP3    H166540   4.708   0.615   0.536
22221TIP3    H266541   4.806   0.729   0.525
22222TIP3   OH266542   4.510   1.392   0.512
22222TIP3    H166543   4.582   1.365   0.570
22222TIP3    H266544   4.489   1.314   0.461
22223TIP3   OH266545   4.550   1.150   1.506
22223TIP3    H166546   4.488   1.143   1.433
22223TIP3    H266547   4.629   1.187   1.466
22224TIP3   OH266548   3.635   1.349   1.084
22224TIP3    H166549   3.681   1.425   1.048
22224TIP3    H266550   3.542   1.369   1.073
22225TIP3   OH266551   3.220   0.633   0.880
22225TIP3    H166552   3.262   0.717   0.899
22225TIP3    H266553   3.138   0.635   0.929
22226TIP3   OH266554   3.757   1.102   1.072
22226TIP3    H166555   3.712   1.186   1.075
22226TIP3    H266556   3.722   1.053   1.146
22227TIP3   OH266557   3.490   1.609   1.073
22227TIP3    H166558   3.436   1.666   1.019
22227TIP3    H266559   3.578   1.617   1.036
22228TIP3   OH266560   4.271   1.367   1.607
22228TIP3    H166561   4.329   1.336   1.677
22228TIP3    H266562   4.330   1.393   1.536
22229TIP3   OH266563   4.277   1.175   0.381
22229TIP3    H166564   4.326   1.145   0.458
22229TIP3    H266565   4.189   1.140   0.394
22230TIP3   OH266566   4.595   1.844   0.310
22230TIP3    H166567   4.681   1.875   0.280
22230TIP3    H266568   4.611   1.755   0.342
22231TIP3   OH266569   4.427   1.086   0.584
22231TIP3    H166570   4.389   1.053   0.665
22231TIP3    H266571   4.521   1.069   0.593
22232TIP3   OH266572   3.300   1.455   1.804
22232TIP3    H166573   3.395   1.447   1.795
22232TIP3    H266574   3.286   1.540   1.844
22233TIP3   OH266575   3.616   1.166   0.484
22233TIP3    H166576   3.632   1.074   0.462
22233TIP3    H266577   3.618   1.169   0.579
22234TIP3   OH266578   3.544   1.211   0.773
22234TIP3    H166579   3.639   1.205   0.781
22234TIP3    H266580   3.526   1.305   0.769
22235TIP3   OH266581   3.312   0.884   0.954
22235TIP3    H166582   3.242   0.928   1.002
22235TIP3    H266583   3.331   0.941   0.880
22236TIP3   OH266584   4.315   0.654   1.920
22236TIP3    H166585   4.364   0.734   1.937
22236TIP3    H266586   4.297   0.618   2.006
22237TIP3   OH266587   4.316   0.210   0.964
22237TIP3    H166588   4.302   0.238   0.874
22237TIP3    H266589   4.354   0.287   1.008
22238TIP3   OH266590   3.777   1.331   0.693
22238TIP3    H166591   3.715   1.403   0.701
22238TIP3    H266592   3.862   1.373   0.681
22239TIP3   OH266593   3.991   0.457   1.113
22239TIP3    H166594   4.048   0.520   1.068
22239TIP3    H266595   4.025   0.454   1.203
22240TIP3   OH266596   4.184   0.117   1.183
22240TIP3    H166597   4.231   0.160   1.255
22240TIP3    H266598   4.233   0.141   1.104
22241TIP3   OH266599   3.549   1.490   0.756
22241TIP3    H166600   3.537   1.529   0.669
22241TIP3    H266601   3.542   1.564   0.816
22242TIP3   OH266602   3.688   0.173   1.014
22242TIP3    H166603   3.677   0.264   1.039
22242TIP3    H266604   3.782   0.157   1.021
22243TIP3   OH266605   4.621   0.925   1.297
22243TIP3    H166606   4.544   0.872   1.318
22243TIP3    H266607   4.691   0.862   1.285
22244TIP3   OH266608   3.323   1.059   0.739
22244TIP3    H166609   3.394   1.122   0.755
22244TIP3    H266610   3.358   1.001   0.671
22245TIP3   OH266611   3.242   0.357   0.874
22245TIP3    H166612   3.253   0.452   0.882
22245TIP3    H266613   3.193   0.346   0.792
22246TIP3   OH266614   3.645   0.092   1.739
22246TIP3    H166615   3.620   0.059   1.653
22246TIP3    H266616   3.636   0.015   1.797
22247TIP3   OH266617   3.128   1.300   1.108
22247TIP3    H166618   3.060   1.328   1.169
22247TIP3    H266619   3.110   1.350   1.028
22248TIP3   OH266620   3.754   1.360   0.350
22248TIP3    H166621   3.715   1.288   0.400
22248TIP3    H266622   3.834   1.323   0.313
22249TIP3   OH266623   4.220   1.395   0.233
22249TIP3    H166624   4.262   1.326   0.284
22249TIP3    H266625   4.277   1.406   0.157
22250TIP3   OH266626   3.448   0.872   0.584
22250TIP3    H166627   3.496   0.847   0.663
22250TIP3    H266628   3.516   0.882   0.517
22251TIP3   OH266629   4.021   1.074   0.397
22251TIP3    H166630   4.004   1.085   0.490
22251TIP3    H266631   4.003   0.982   0.380
22252TIP3   OH266632   3.613   0.814   0.799
22252TIP3    H166633   3.599   0.781   0.888
22252TIP3    H266634   3.666   0.747   0.756
22253TIP3   OH266635   3.758   0.636   0.644
22253TIP3    H166636   3.730   0.638   0.553
22253TIP3    H266637   3.853   0.633   0.640
22254TIP3   OH266638   4.559   0.923   0.291
22254TIP3    H166639   4.533   0.890   0.206
22254TIP3    H266640   4.550   1.018   0.283
22255TIP3   OH266641   4.002   0.347   1.928
22255TIP3    H166642   4.026   0.424   1.877
22255TIP3    H266643   3.934   0.379   1.988
22256TIP3   OH266644   3.560   1.648   0.538
22256TIP3    H166645   3.654   1.655   0.518
22256TIP3    H266646   3.517   1.696   0.467
22257TIP3   OH266647   3.053   1.059   0.762
22257TIP3    H166648   3.148   1.072   0.755
22257TIP3    H266649   3.037   0.976   0.717
22258TIP3   OH266650   2.917   1.619   1.188
22258TIP3    H166651   2.854   1.573   1.132
22258TIP3    H266652   2.954   1.551   1.243
22259TIP3   OH266653   3.029   1.440   1.355
22259TIP3    H166654   3.040   1.372   1.421
22259TIP3    H266655   3.119   1.461   1.328
22260TIP3   OH266656   4.702   1.063   0.618
22260TIP3    H166657   4.784   1.113   0.613
22260TIP3    H266658   4.682   1.057   0.711
22261TIP3   OH266659   4.794   0.887   0.427
22261TIP3    H166660   4.719   0.885   0.368
22261TIP3    H266661   4.765   0.939   0.502
22262TIP3   OH266662   4.591   0.539   0.427
22262TIP3    H166663   4.543   0.561   0.347
22262TIP3    H266664   4.601   0.444   0.423
22263TIP3   OH266665   4.546   0.817   0.903
22263TIP3    H166666   4.582   0.743   0.855
22263TIP3    H266667   4.532   0.785   0.992
22264TIP3   OH266668   3.251   0.853   1.813
22264TIP3    H166669   3.249   0.835   1.719
22264TIP3    H266670   3.322   0.917   1.823
22265TIP3   OH266671   4.598   0.265   0.402
22265TIP3    H166672   4.656   0.245   0.476
22265TIP3    H266673   4.514   0.229   0.428
22266TIP3   OH266674   4.630   0.570   0.811
22266TIP3    H166675   4.657   0.493   0.861
22266TIP3    H266676   4.694   0.578   0.741
22267TIP3   OH266677   4.798   0.722   1.349
22267TIP3    H166678   4.883   0.678   1.337
22267TIP3    H266679   4.775   0.705   1.441
22268TIP3   OH266680   4.699   0.344   0.958
22268TIP3    H166681   4.787   0.317   0.983
22268TIP3    H266682   4.651   0.262   0.943
22269TIP3   OH266683   3.476   0.304   1.757
22269TIP3    H166684   3.529   0.225   1.747
22269TIP3    H266685   3.537   0.376   1.738
22270TIP3   OH266686   3.259   0.576   1.855
22270TIP3    H166687   3.299   0.551   1.772
22270TIP3    H266688   3.259   0.671   1.854
22271TIP3   OH266689   4.820   0.241   0.573
22271TIP3    H166690   4.860   0.179   0.512
22271TIP3    H266691   4.877   0.318   0.571
22272TIP3   OH266692   3.247   0.108   1.334
22272TIP3    H166693   3.160   0.086   1.367
22272TIP3    H266694   3.230   0.152   1.250
22273TIP3   OH266695   4.480   1.819   0.960
22273TIP3    H166696   4.522   1.811   0.874
22273TIP3    H266697   4.534   1.883   1.007
22274TIP3   OH266698   3.456   0.139   2.122
22274TIP3    H166699   3.462   0.165   2.214
22274TIP3    H266700   3.403   0.208   2.082
22275TIP3   OH266701   3.685   1.732   1.579
22275TIP3    H166702   3.593   1.714   1.598
22275TIP3    H266703   3.690   1.827   1.569
22276TIP3   OH266704   3.414   1.696   1.608
22276TIP3    H166705   3.384   1.782   1.639
22276TIP3    H266706   3.334   1.650   1.584
22277TIP3   OH266707   3.494   1.473   1.371
22277TIP3    H166708   3.481   1.412   1.443
22277TIP3    H266709   3.583   1.455   1.341
22278TIP3   OH266710   3.776   1.669   1.330
22278TIP3    H166711   3.831   1.590   1.329
22278TIP3    H266712   3.754   1.681   1.422
22279TIP3   OH266713   4.249   0.219   1.444
22279TIP3    H166714   4.224   0.154   1.510
22279TIP3    H266715   4.339   0.196   1.421
22280TIP3   OH266716   4.818   0.054   1.379
22280TIP3    H166717   4.860   0.112   1.442
22280TIP3    H266718   4.735   0.097   1.358
22281TIP3   OH266719   4.955   0.248   1.020
22281TIP3    H166720   4.999   0.164   1.013
22281TIP3    H266721   5.026   0.312   1.021
22282TIP3   OH266722   0.284   9.216   1.507
22282TIP3    H166723   0.194   9.183   1.515
22282TIP3    H266724   0.337   9.137   1.494
22283TIP3   OH266725   0.120   9.144   1.173
22283TIP3    H166726   0.140   9.185   1.089
22283TIP3    H266727   0.082   9.215   1.225
22284TIP3   OH266728   3.995   0.029   1.369
22284TIP3    H166729   4.053   0.062   1.300
22284TIP3    H266730   4.044   0.042   1.450
22285TIP3   OH266731   4.567   0.103   0.918
22285TIP3    H166732   4.477   0.135   0.925
22285TIP3    H266733   4.568   0.021   0.966
22286TIP3   OH266734   3.058   1.446   0.890
22286TIP3    H166735   2.973   1.411   0.864
22286TIP3    H266736   3.055   1.539   0.865
22287TIP3   OH266737   3.479   0.012   0.920
22287TIP3    H166738   3.524  -0.050   0.862
22287TIP3    H266739   3.549   0.067   0.956
22288TIP3   OH266740   3.962   0.200   1.026
22288TIP3    H166741   4.025   0.148   1.075
22288TIP3    H266742   3.974   0.290   1.058
22289TIP3   OH266743   3.825   1.580   0.488
22289TIP3    H166744   3.917   1.566   0.464
22289TIP3    H266745   3.777   1.512   0.441
22290TIP3   OH266746   4.536   1.748   0.699
22290TIP3    H166747   4.490   1.667   0.720
22290TIP3    H266748   4.480   1.792   0.635
22291TIP3   OH266749   3.153   1.437   0.585
22291TIP3    H166750   3.156   1.443   0.680
22291TIP3    H266751   3.235   1.394   0.561
22292TIP3   OH266752   4.860   0.828   0.795
22292TIP3    H166753   4.950   0.796   0.797
22292TIP3    H266754   4.817   0.777   0.726
22293TIP3   OH266755   5.064   1.262   1.015
22293TIP3    H166756   5.001   1.191   1.000
22293TIP3    H266757   5.127   1.253   0.943
22294TIP3   OH266758   5.666   0.641   0.851
22294TIP3    H166759   5.589   0.670   0.900
22294TIP3    H266760   5.651   0.548   0.836
22295TIP3   OH266761   5.234   0.795   1.108
22295TIP3    H166762   5.225   0.859   1.037
22295TIP3    H266763   5.275   0.719   1.067
22296TIP3   OH266764   4.938   1.182   0.519
22296TIP3    H166765   4.917   1.196   0.427
22296TIP3    H266766   4.901   1.258   0.565
22297TIP3   OH266767   5.833   0.912   0.080
22297TIP3    H166768   5.877   0.970   0.143
22297TIP3    H266769   5.902   0.853   0.051
22298TIP3   OH266770   6.524   0.272   0.203
22298TIP3    H166771   6.467   0.281   0.279
22298TIP3    H266772   6.538   0.362   0.173
22299TIP3   OH266773   5.315   1.045   0.617
22299TIP3    H166774   5.339   1.063   0.526
22299TIP3    H266775   5.378   0.978   0.645
22300TIP3   OH266776   9.345   5.690   7.900
22300TIP3    H166777   9.345   5.671   7.806
22300TIP3    H266778   9.426   5.650   7.932
22301TIP3   OH266779   5.847   0.461   0.229
22301TIP3    H166780   5.813   0.464   0.318
22301TIP3    H266781   5.812   0.380   0.193
22302TIP3   OH266782   5.460   0.846   0.744
22302TIP3    H166783   5.421   0.791   0.812
22302TIP3    H266784   5.478   0.785   0.672
22303TIP3   OH266785   5.509   0.441   0.216
22303TIP3    H166786   5.500   0.436   0.311
22303TIP3    H266787   5.431   0.488   0.186
22304TIP3   OH266788   5.155   0.432   0.993
22304TIP3    H166789   5.214   0.463   1.062
22304TIP3    H266790   5.210   0.376   0.938
22305TIP3   OH266791   4.982   0.470   0.568
22305TIP3    H166792   5.016   0.509   0.488
22305TIP3    H266793   4.914   0.531   0.598
22306TIP3   OH266794   5.353   0.649   0.900
22306TIP3    H166795   5.271   0.662   0.852
22306TIP3    H266796   5.387   0.566   0.867
22307TIP3   OH266797   5.516   0.687   0.528
22307TIP3    H166798   5.608   0.712   0.518
22307TIP3    H266799   5.475   0.709   0.445
22308TIP3   OH266800   5.400   0.733   0.287
22308TIP3    H166801   5.338   0.683   0.235
22308TIP3    H266802   5.457   0.776   0.222
22309TIP3   OH266803   5.459   0.423   0.792
22309TIP3    H166804   5.431   0.343   0.837
22309TIP3    H266805   5.464   0.398   0.699
22310TIP3   OH266806   5.619   1.294   0.213
22310TIP3    H166807   5.588   1.210   0.246
22310TIP3    H266808   5.616   1.353   0.289
22311TIP3   OH266809   6.077   0.603   0.232
22311TIP3    H166810   5.992   0.559   0.231
22311TIP3    H266811   6.071   0.666   0.159
22312TIP3   OH266812   5.036   0.894   0.286
22312TIP3    H166813   5.092   0.967   0.312
22312TIP3    H266814   4.959   0.902   0.342
22313TIP3   OH266815   8.713   6.035   7.913
22313TIP3    H166816   8.730   5.945   7.885
22313TIP3    H266817   8.695   6.028   8.007
22314TIP3   OH266818   5.367   1.395   0.168
22314TIP3    H166819   5.452   1.359   0.193
22314TIP3    H266820   5.352   1.466   0.230
22315TIP3   OH266821   5.179   1.136   0.378
22315TIP3    H166822   5.105   1.170   0.429
22315TIP3    H266823   5.200   1.207   0.317
22316TIP3   OH266824   6.189   0.536   0.472
22316TIP3    H166825   6.148   0.557   0.388
22316TIP3    H266826   6.243   0.613   0.492
22317TIP3   OH266827   5.792   0.704   0.612
22317TIP3    H166828   5.884   0.679   0.622
22317TIP3    H266829   5.753   0.689   0.698
22318TIP3   OH266830   5.984   0.453   0.648
22318TIP3    H166831   6.005   0.378   0.703
22318TIP3    H266832   6.064   0.468   0.597
22319TIP3   OH266833   5.486   0.412   0.500
22319TIP3    H166834   5.481   0.505   0.518
22319TIP3    H266835   5.580   0.392   0.497
22320TIP3   OH266836   5.122   1.270   0.110
22320TIP3    H166837   5.181   1.346   0.112
22320TIP3    H266838   5.180   1.196   0.094
22321TIP3   OH266839   5.031   0.620   0.346
22321TIP3    H166840   5.055   0.712   0.337
22321TIP3    H266841   4.989   0.598   0.262
22322TIP3   OH266842   5.485   0.264   1.201
22322TIP3    H166843   5.507   0.226   1.116
22322TIP3    H266844   5.498   0.193   1.264
22323TIP3   OH266845   4.910   1.676   0.700
22323TIP3    H166846   4.843   1.608   0.700
22323TIP3    H266847   4.914   1.706   0.609
22324TIP3   OH266848   8.862   6.219   7.775
22324TIP3    H166849   8.834   6.148   7.832
22324TIP3    H266850   8.957   6.209   7.768
22325TIP3   OH266851   5.306   1.075   0.081
22325TIP3    H166852   5.354   1.060   0.163
22325TIP3    H266853   5.374   1.097   0.017
22326TIP3   OH266854   9.017   5.982   7.913
22326TIP3    H166855   8.989   5.986   8.004
22326TIP3    H266856   9.030   5.889   7.896
22327TIP3   OH266857   5.504   1.057   0.297
22327TIP3    H166858   5.533   1.029   0.384
22327TIP3    H266859   5.526   0.984   0.239
22328TIP3   OH266860   5.565   0.867   0.112
22328TIP3    H166861   5.534   0.871   0.021
22328TIP3    H266862   5.660   0.871   0.105
22329TIP3   OH266863   4.904   1.183   0.249
22329TIP3    H166864   4.984   1.218   0.209
22329TIP3    H266865   4.870   1.120   0.185
22330TIP3   OH266866   9.540   5.475   7.903
22330TIP3    H166867   9.548   5.467   7.808
22330TIP3    H266868   9.584   5.397   7.937
22331TIP3   OH266869   9.618   5.218   7.954
22331TIP3    H166870   9.697   5.184   7.997
22331TIP3    H266871   9.552   5.149   7.968
22332TIP3   OH266872   5.292   0.518   1.211
22332TIP3    H166873   5.302   0.430   1.248
22332TIP3    H266874   5.375   0.562   1.230
22333TIP3   OH266875   5.090   0.814   1.390
22333TIP3    H166876   5.087   0.751   1.318
22333TIP3    H266877   5.120   0.896   1.349
22334TIP3   OH266878   6.589   0.511   0.071
22334TIP3    H166879   6.635   0.449   0.014
22334TIP3    H266880   6.655   0.577   0.093
22335TIP3   OH266881   5.080   0.289   0.751
22335TIP3    H166882   5.004   0.281   0.809
22335TIP3    H266883   5.057   0.360   0.691
22336TIP3   OH266884   5.354   0.208   0.930
22336TIP3    H166885   5.270   0.164   0.935
22336TIP3    H266886   5.418   0.140   0.950
22337TIP3   OH266887   5.171   0.085   0.598
22337TIP3    H166888   5.204   0.131   0.521
22337TIP3    H266889   5.144   0.154   0.658
22338TIP3   OH266890   6.352   0.318   0.413
22338TIP3    H166891   6.297   0.394   0.436
22338TIP3    H266892   6.316   0.247   0.466
22339TIP3   OH266893   4.906   1.728   0.418
22339TIP3    H166894   4.818   1.691   0.429
22339TIP3    H266895   4.891   1.811   0.374
22340TIP3   OH266896   5.281   0.249   0.394
22340TIP3    H166897   5.329   0.193   0.333
22340TIP3    H266898   5.348   0.301   0.437
22341TIP3   OH266899   5.757   0.460   0.489
22341TIP3    H166900   5.825   0.414   0.538
22341TIP3    H266901   5.761   0.550   0.521
22342TIP3   OH266902   4.842   1.772  -0.005
22342TIP3    H166903   4.869   1.864  -0.001
22342TIP3    H266904   4.923   1.724   0.010
22343TIP3   OH266905   8.720   2.440   1.528
22343TIP3    H166906   8.706   2.535   1.523
22343TIP3    H266907   8.798   2.425   1.474
22344TIP3   OH266908   8.441   1.906   1.713
22344TIP3    H166909   8.453   1.896   1.618
22344TIP3    H266910   8.510   1.851   1.751
22345TIP3   OH266911   8.628   2.602   1.786
22345TIP3    H166912   8.565   2.530   1.780
22345TIP3    H266913   8.714   2.559   1.781
22346TIP3   OH266914   8.391   2.229   1.573
22346TIP3    H166915   8.358   2.181   1.649
22346TIP3    H266916   8.319   2.224   1.509
22347TIP3   OH266917   8.691   2.720   1.540
22347TIP3    H166918   8.668   2.807   1.508
22347TIP3    H266919   8.645   2.712   1.624
22348TIP3   OH266920   8.323   2.680   1.550
22348TIP3    H166921   8.307   2.657   1.642
22348TIP3    H266922   8.358   2.600   1.511
22349TIP3   OH266923   8.021   2.077   1.765
22349TIP3    H166924   7.991   2.161   1.800
22349TIP3    H266925   8.116   2.086   1.758
22350TIP3   OH266926   8.753   1.929   1.467
22350TIP3    H166927   8.771   1.848   1.418
22350TIP3    H266928   8.745   1.996   1.399
22351TIP3   OH266929   8.884   1.952   1.712
22351TIP3    H166930   8.853   1.912   1.631
22351TIP3    H266931   8.828   2.029   1.725
22352TIP3   OH266932   8.672   1.661   1.630
22352TIP3    H166933   8.715   1.665   1.545
22352TIP3    H266934   8.605   1.593   1.619
22353TIP3   OH266935   0.296   2.333   1.718
22353TIP3    H166936   0.259   2.418   1.695
22353TIP3    H266937   0.229   2.270   1.692
22354TIP3   OH266938   0.571   2.624   1.805
22354TIP3    H166939   0.579   2.551   1.866
22354TIP3    H266940   0.593   2.701   1.857
22355TIP3   OH266941   0.167   3.062   1.779
22355TIP3    H166942   0.221   3.000   1.731
22355TIP3    H266943   0.109   3.008   1.833
22356TIP3   OH266944   1.183   1.903   2.125
22356TIP3    H166945   1.150   1.987   2.093
22356TIP3    H266946   1.220   1.861   2.047
22357TIP3   OH266947   0.574   1.784   1.767
22357TIP3    H166948   0.638   1.779   1.838
22357TIP3    H266949   0.622   1.822   1.694
22358TIP3   OH266950   0.154   2.540   1.606
22358TIP3    H166951   0.135   2.521   1.514
22358TIP3    H266952   0.107   2.621   1.623
22359TIP3   OH266953   0.759   1.795   1.964
22359TIP3    H166954   0.806   1.729   2.015
22359TIP3    H266955   0.794   1.879   1.995
22360TIP3   OH266956   9.034   2.343   1.766
22360TIP3    H166957   8.943   2.316   1.761
22360TIP3    H266958   9.031   2.436   1.788
22361TIP3   OH266959   0.605   2.845   1.974
22361TIP3    H166960   0.523   2.841   2.023
22361TIP3    H266961   0.604   2.931   1.932
22362TIP3   OH266962   0.303   2.888   1.612
22362TIP3    H166963   0.353   2.808   1.600
22362TIP3    H266964   0.362   2.958   1.586
22363TIP3   OH266965   0.462   2.677   1.557
22363TIP3    H166966   0.471   2.600   1.501
22363TIP3    H266967   0.503   2.652   1.639
22364TIP3   OH266968   0.126   2.167   1.567
22364TIP3    H166969   0.044   2.212   1.547
22364TIP3    H266970   0.173   2.164   1.483
22365TIP3   OH266971   0.095   1.973   1.251
22365TIP3    H166972   0.160   2.021   1.302
22365TIP3    H266973   0.145   1.904   1.206
22366TIP3   OH266974   1.034   2.376   2.111
22366TIP3    H166975   0.950   2.411   2.139
22366TIP3    H266976   1.065   2.436   2.044
22367TIP3   OH266977   0.480   2.257   1.528
22367TIP3    H166978   0.426   2.285   1.602
22367TIP3    H266979   0.562   2.228   1.568
22368TIP3   OH266980   9.518   2.210   1.914
22368TIP3    H166981   9.476   2.157   1.846
22368TIP3    H266982   9.545   2.147   1.980
22369TIP3   OH266983   9.618   2.684   2.040
22369TIP3    H166984   9.567   2.671   1.960
22369TIP3    H266985   9.663   2.601   2.053
22370TIP3   OH266986   0.365   2.814   2.105
22370TIP3    H166987   0.278   2.848   2.087
22370TIP3    H266988   0.351   2.720   2.118
22371TIP3   OH266989   0.313   2.115   1.361
22371TIP3    H166990   0.373   2.173   1.409
22371TIP3    H266991   0.343   2.120   1.270
22372TIP3   OH266992   0.042   2.801   1.628
22372TIP3    H166993   0.134   2.827   1.626
22372TIP3    H266994   0.001   2.856   1.561
22373TIP3   OH266995   0.827   1.341   1.414
22373TIP3    H166996   0.749   1.362   1.465
22373TIP3    H266997   0.838   1.417   1.355
22374TIP3   OH266998   9.400   2.051   1.720
22374TIP3    H166999   9.321   2.094   1.687
22374TIP3    H267000   9.381   1.958   1.715
22375TIP3   OH267001   0.652   2.715   0.975
22375TIP3    H167002   0.644   2.807   0.951
22375TIP3    H267003   0.741   2.691   0.950
22376TIP3   OH267004   9.753   2.996   1.441
22376TIP3    H167005   9.722   2.971   1.354
22376TIP3    H267006   9.742   3.091   1.444
22377TIP3   OH267007   0.156   2.935   1.073
22377TIP3    H167008   0.206   2.862   1.037
22377TIP3    H267009   0.193   2.950   1.160
22378TIP3   OH267010   0.214   2.975   1.340
22378TIP3    H167011   0.132   2.970   1.390
22378TIP3    H267012   0.281   2.951   1.404
22379TIP3   OH267013   0.394   2.102   1.101
22379TIP3    H167014   0.345   2.100   1.019
22379TIP3    H267015   0.477   2.144   1.078
22380TIP3   OH267016   0.107   1.513   1.418
22380TIP3    H167017   0.072   1.517   1.507
22380TIP3    H267018   0.065   1.436   1.379
22381TIP3   OH267019   0.242   1.953   1.694
22381TIP3    H167020   0.199   2.030   1.657
22381TIP3    H267021   0.303   1.924   1.627
22382TIP3   OH267022   0.437   1.988   1.896
22382TIP3    H167023   0.357   1.995   1.844
22382TIP3    H267024   0.478   1.907   1.867
22383TIP3   OH267025   9.575   1.505   1.389
22383TIP3    H167026   9.567   1.502   1.484
22383TIP3    H267027   9.493   1.547   1.360
22384TIP3   OH267028   9.123   1.517   1.701
22384TIP3    H167029   9.182   1.451   1.664
22384TIP3    H267030   9.127   1.502   1.796
22385TIP3   OH267031   9.558   1.749   1.728
22385TIP3    H167032   9.650   1.775   1.728
22385TIP3    H267033   9.526   1.774   1.642
22386TIP3   OH267034   9.455   1.803   1.480
22386TIP3    H167035   9.398   1.747   1.426
22386TIP3    H267036   9.517   1.840   1.418
22387TIP3   OH267037   9.688   2.305   1.505
22387TIP3    H167038   9.615   2.246   1.485
22387TIP3    H267039   9.669   2.338   1.593
22388TIP3   OH267040   0.798   2.518   2.134
22388TIP3    H167041   0.826   2.596   2.086
22388TIP3    H267042   0.716   2.492   2.092
22389TIP3   OH267043   0.356   1.621   1.413
22389TIP3    H167044   0.263   1.597   1.413
22389TIP3    H267045   0.356   1.716   1.426
22390TIP3   OH267046   0.415   1.885   1.485
22390TIP3    H167047   0.510   1.888   1.496
22390TIP3    H267048   0.394   1.962   1.434
22391TIP3   OH267049   0.046   2.463   1.353
22391TIP3    H167050  -0.003   2.545   1.351
22391TIP3    H267051  -0.008   2.403   1.404
22392TIP3   OH267052   0.824   1.971   1.299
22392TIP3    H167053   0.767   1.925   1.237
22392TIP3    H267054   0.829   2.060   1.265
22393TIP3   OH267055   0.562   2.781   1.234
22393TIP3    H167056   0.536   2.708   1.290
22393TIP3    H267057   0.587   2.741   1.151
22394TIP3   OH267058   0.573   2.417   1.994
22394TIP3    H167059   0.479   2.400   1.993
22394TIP3    H267060   0.613   2.334   1.968
22395TIP3   OH267061   9.472   2.632   1.807
22395TIP3    H167062   9.473   2.713   1.755
22395TIP3    H267063   9.385   2.596   1.792
22396TIP3   OH267064   9.092   1.943   1.532
22396TIP3    H167065   9.140   2.026   1.536
22396TIP3    H267066   9.035   1.944   1.608
22397TIP3   OH267067   9.615   2.402   1.745
22397TIP3    H167068   9.580   2.486   1.774
22397TIP3    H267069   9.586   2.340   1.812
22398TIP3   OH267070   9.461   2.880   1.678
22398TIP3    H167071   9.411   2.947   1.726
22398TIP3    H267072   9.551   2.912   1.680
22399TIP3   OH267073   0.342   2.523   1.134
22399TIP3    H167074   0.381   2.506   1.220
22399TIP3    H267075   0.259   2.476   1.136
22400TIP3   OH267076   0.644   2.985   0.925
22400TIP3    H167077   0.662   3.043   0.851
22400TIP3    H267078   0.573   3.028   0.972
22401TIP3   OH267079   0.506   2.474   1.358
22401TIP3    H167080   0.488   2.398   1.415
22401TIP3    H267081   0.599   2.467   1.338
22402TIP3   OH267082   9.488   2.482   1.140
22402TIP3    H167083   9.499   2.391   1.110
22402TIP3    H267084   9.475   2.475   1.234
22403TIP3   OH267085   9.445   2.506   1.413
22403TIP3    H167086   9.523   2.481   1.463
22403TIP3    H267087   9.443   2.602   1.418
22404TIP3   OH267088   9.192   2.189   1.605
22404TIP3    H167089   9.140   2.238   1.669
22404TIP3    H267090   9.206   2.251   1.533
22405TIP3   OH267091   0.426   1.574   1.677
22405TIP3    H167092   0.400   1.591   1.586
22405TIP3    H267093   0.467   1.656   1.705
22406TIP3   OH267094   9.698   2.689   1.353
22406TIP3    H167095   9.613   2.720   1.384
22406TIP3    H267096   9.724   2.754   1.288
22407TIP3   OH267097   0.039   1.783   1.766
22407TIP3    H167098   0.108   1.840   1.731
22407TIP3    H267099   0.046   1.792   1.861
22408TIP3   OH267100   0.244   1.468   1.850
22408TIP3    H167101   0.280   1.488   1.936
22408TIP3    H267102   0.307   1.505   1.788
22409TIP3   OH267103   9.447   2.785   1.417
22409TIP3    H167104   9.426   2.859   1.361
22409TIP3    H267105   9.437   2.819   1.506
22410TIP3   OH267106   9.549   1.481   1.663
22410TIP3    H167107   9.535   1.568   1.701
22410TIP3    H267108   9.643   1.464   1.676
22411TIP3   OH267109   0.648   2.161   1.925
22411TIP3    H167110   0.572   2.103   1.928
22411TIP3    H267111   0.714   2.115   1.978
22412TIP3   OH267112   9.205   2.372   1.398
22412TIP3    H167113   9.280   2.431   1.409
22412TIP3    H267114   9.233   2.311   1.330
22413TIP3   OH267115   9.090   1.669   1.475
22413TIP3    H167116   9.113   1.757   1.506
22413TIP3    H267117   9.095   1.615   1.553
22414TIP3   OH267118   0.618   3.100   1.880
22414TIP3    H167119   0.571   3.159   1.821
22414TIP3    H267120   0.710   3.128   1.873
22415TIP3   OH267121   8.955   2.604   1.825
22415TIP3    H167122   8.966   2.681   1.880
22415TIP3    H267123   8.964   2.636   1.735
22416TIP3   OH267124   9.638   2.687   1.037
22416TIP3    H167125   9.589   2.615   1.077
22416TIP3    H267126   9.713   2.645   0.995
22417TIP3   OH267127   0.282   2.724   0.955
22417TIP3    H167128   0.319   2.661   1.017
22417TIP3    H267129   0.338   2.719   0.878
22418TIP3   OH267130   9.318   2.178   1.245
22418TIP3    H167131   9.366   2.150   1.323
22418TIP3    H267132   9.386   2.189   1.178
22419TIP3   OH267133   0.094   2.397   1.091
22419TIP3    H167134   0.067   2.408   1.183
22419TIP3    H267135   0.070   2.307   1.070
22420TIP3   OH267136   9.488   2.122   1.459
22420TIP3    H167137   9.467   2.087   1.546
22420TIP3    H267138   9.536   2.051   1.416
22421TIP3   OH267139   9.625   1.936   1.309
22421TIP3    H167140   9.594   1.936   1.218
22421TIP3    H267141   9.720   1.944   1.302
22422TIP3   OH267142   0.614   2.225   0.986
22422TIP3    H167143   0.600   2.184   0.901
22422TIP3    H267144   0.591   2.317   0.973
22423TIP3   OH267145   9.460   3.019   1.251
22423TIP3    H167146   9.546   2.985   1.225
22423TIP3    H267147   9.418   3.045   1.169
22424TIP3   OH267148   8.933   2.359   1.385
22424TIP3    H167149   9.026   2.371   1.401
22424TIP3    H267150   8.926   2.269   1.354
22425TIP3   OH267151   0.875   3.183   1.837
22425TIP3    H167152   0.953   3.211   1.885
22425TIP3    H267153   0.885   3.221   1.750
22426TIP3   OH267154   0.779   2.437   1.323
22426TIP3    H167155   0.838   2.504   1.290
22426TIP3    H267156   0.826   2.397   1.396
22427TIP3   OH267157   0.911   2.293   1.520
22427TIP3    H167158   0.844   2.255   1.577
22427TIP3    H267159   0.976   2.329   1.581
22428TIP3   OH267160   0.922   2.720   1.983
22428TIP3    H167161   0.990   2.657   1.958
22428TIP3    H267162   0.911   2.774   1.905
22429TIP3   OH267163   0.833   2.951   2.139
22429TIP3    H167164   0.742   2.974   2.120
22429TIP3    H267165   0.846   2.868   2.093
22430TIP3   OH267166   0.820   2.212   1.168
22430TIP3    H167167   0.750   2.211   1.103
22430TIP3    H267168   0.802   2.290   1.221
22431TIP3   OH267169   0.671   1.855   1.104
22431TIP3    H167170   0.624   1.890   1.027
22431TIP3    H267171   0.665   1.760   1.094
22432TIP3   OH267172   0.707   2.154   1.654
22432TIP3    H167173   0.714   2.060   1.639
22432TIP3    H267174   0.691   2.163   1.748
22433TIP3   OH267175   0.637   1.582   1.071
22433TIP3    H167176   0.701   1.558   1.138
22433TIP3    H267177   0.554   1.547   1.103
22434TIP3   OH267178   0.706   1.880   1.538
22434TIP3    H167179   0.752   1.798   1.551
22434TIP3    H267180   0.746   1.919   1.461
22435TIP3   OH267181   0.856   2.035   2.062
22435TIP3    H167182   0.938   2.064   2.022
22435TIP3    H267183   0.870   2.042   2.156
22436TIP3   OH267184   0.823   1.632   1.588
22436TIP3    H167185   0.864   1.618   1.673
22436TIP3    H267186   0.761   1.559   1.580
22437TIP3   OH267187   0.864   1.540   1.229
22437TIP3    H167188   0.915   1.480   1.175
22437TIP3    H267189   0.918   1.619   1.234
22438TIP3   OH267190   0.443   3.091   1.502
22438TIP3    H167191   0.499   3.084   1.425
22438TIP3    H267192   0.489   3.150   1.561
22439TIP3   OH267193   0.865   1.477   2.041
22439TIP3    H167194   0.904   1.519   1.964
22439TIP3    H267195   0.770   1.490   2.029
22440TIP3   OH267196   0.974   1.584   1.814
22440TIP3    H167197   1.044   1.525   1.786
22440TIP3    H267198   1.010   1.672   1.802
22441TIP3   OH267199   0.602   1.468   1.946
22441TIP3    H167200   0.572   1.507   1.864
22441TIP3    H267201   0.634   1.381   1.921
22442TIP3   OH267202   0.638   1.422   1.592
22442TIP3    H167203   0.556   1.467   1.614
22442TIP3    H267204   0.626   1.333   1.628
22443TIP3   OH267205   8.963   2.715   1.576
22443TIP3    H167206   8.869   2.726   1.562
22443TIP3    H267207   8.999   2.711   1.487
22444TIP3   OH267208   9.327   1.352   1.556
22444TIP3    H167209   9.366   1.283   1.503
22444TIP3    H267210   9.401   1.394   1.600
22445TIP3   OH267211   0.026   1.519   1.684
22445TIP3    H167212   0.091   1.480   1.742
22445TIP3    H267213   0.026   1.612   1.707
22446TIP3   OH267214   9.703   2.911   1.177
22446TIP3    H167215   9.786   2.937   1.136
22446TIP3    H267216   9.669   2.842   1.120
22447TIP3   OH267217   0.589   3.049   1.271
22447TIP3    H167218   0.584   2.954   1.263
22447TIP3    H267219   0.551   3.083   1.190
22448TIP3   OH267220   9.015   2.731   1.300
22448TIP3    H167221   9.028   2.826   1.304
22448TIP3    H267222   9.093   2.698   1.256
22449TIP3   OH267223   2.048   2.601   1.187
22449TIP3    H167224   2.038   2.674   1.127
22449TIP3    H267225   1.989   2.534   1.153
22450TIP3   OH267226   1.956   2.534   1.608
22450TIP3    H167227   2.023   2.533   1.677
22450TIP3    H267228   1.948   2.442   1.582
22451TIP3   OH267229   1.378   2.523   1.964
22451TIP3    H167230   1.378   2.538   2.058
22451TIP3    H267231   1.451   2.577   1.931
22452TIP3   OH267232   2.305   2.785   1.286
22452TIP3    H167233   2.225   2.756   1.328
22452TIP3    H267234   2.329   2.866   1.332
22453TIP3   OH267235   1.344   2.823   1.667
22453TIP3    H167236   1.332   2.728   1.656
22453TIP3    H267237   1.360   2.834   1.761
22454TIP3   OH267238   1.060   2.068   1.438
22454TIP3    H167239   1.021   2.152   1.463
22454TIP3    H267240   0.989   2.019   1.397
22455TIP3   OH267241   1.131   2.376   1.671
22455TIP3    H167242   1.179   2.300   1.705
22455TIP3    H267243   1.199   2.437   1.644
22456TIP3   OH267244   1.954   3.279   1.190
22456TIP3    H167245   2.021   3.227   1.145
22456TIP3    H267246   2.004   3.339   1.245
22457TIP3   OH267247   1.790   2.724   1.702
22457TIP3    H167248   1.840   2.651   1.666
22457TIP3    H267249   1.825   2.801   1.659
22458TIP3   OH267250   2.965   2.136   1.679
22458TIP3    H167251   2.936   2.226   1.663
22458TIP3    H267252   2.951   2.091   1.596
22459TIP3   OH267253   2.252   2.248   1.692
22459TIP3    H167254   2.274   2.156   1.676
22459TIP3    H267255   2.218   2.280   1.608
22460TIP3   OH267256   1.655   1.940   1.631
22460TIP3    H167257   1.629   2.012   1.574
22460TIP3    H267258   1.602   1.866   1.602
22461TIP3   OH267259   2.321   2.035   1.220
22461TIP3    H167260   2.392   2.020   1.283
22461TIP3    H267261   2.364   2.073   1.144
22462TIP3   OH267262   1.277   2.162   1.772
22462TIP3    H167263   1.360   2.142   1.815
22462TIP3    H267264   1.276   2.106   1.694
22463TIP3   OH267265   1.701   2.335   1.522
22463TIP3    H167266   1.792   2.306   1.532
22463TIP3    H267267   1.652   2.256   1.500
22464TIP3   OH267268   1.637   1.926   2.092
22464TIP3    H167269   1.592   1.975   2.023
22464TIP3    H267270   1.569   1.909   2.157
22465TIP3   OH267271   2.028   2.800   1.002
22465TIP3    H167272   1.979   2.764   0.927
22465TIP3    H267273   1.973   2.871   1.034
22466TIP3   OH267274   1.589   2.683   1.883
22466TIP3    H167275   1.640   2.672   1.963
22466TIP3    H267276   1.652   2.718   1.819
22467TIP3   OH267277   2.494   2.016   1.421
22467TIP3    H167278   2.445   1.993   1.499
22467TIP3    H267279   2.551   2.088   1.448
22468TIP3   OH267280   1.528   2.041   1.860
22468TIP3    H167281   1.578   2.118   1.886
22468TIP3    H267282   1.574   2.007   1.783
22469TIP3   OH267283   0.950   2.618   1.199
22469TIP3    H167284   0.917   2.638   1.111
22469TIP3    H267285   0.970   2.704   1.237
22470TIP3   OH267286   2.369   3.022   1.408
22470TIP3    H167287   2.284   3.065   1.401
22470TIP3    H267288   2.425   3.068   1.345
22471TIP3   OH267289   2.796   1.994   1.843
22471TIP3    H167290   2.754   2.063   1.894
22471TIP3    H267291   2.854   2.040   1.782
22472TIP3   OH267292   1.960   1.619   1.796
22472TIP3    H167293   1.959   1.526   1.819
22472TIP3    H267294   1.880   1.655   1.835
22473TIP3   OH267295   2.158   3.136   1.064
22473TIP3    H167296   2.201   3.051   1.073
22473TIP3    H267297   2.206   3.180   0.995
22474TIP3   OH267298   2.290   2.890   1.033
22474TIP3    H167299   2.208   2.855   0.997
22474TIP3    H267300   2.303   2.842   1.115
22475TIP3   OH267301   1.905   2.420   1.038
22475TIP3    H167302   1.820   2.461   1.020
22475TIP3    H267303   1.947   2.413   0.952
22476TIP3   OH267304   1.881   2.220   0.735
22476TIP3    H167305   1.947   2.273   0.779
22476TIP3    H267306   1.931   2.151   0.690
22477TIP3   OH267307   2.818   2.652   1.581
22477TIP3    H167308   2.755   2.715   1.616
22477TIP3    H267309   2.846   2.691   1.498
22478TIP3   OH267310   2.241   2.509   1.014
22478TIP3    H167311   2.191   2.539   1.090
22478TIP3    H267312   2.317   2.464   1.051
22479TIP3   OH267313   1.499   2.486   1.417
22479TIP3    H167314   1.457   2.430   1.352
22479TIP3    H267315   1.575   2.436   1.447
22480TIP3   OH267316   1.620   2.892   1.532
22480TIP3    H167317   1.567   2.883   1.453
22480TIP3    H267318   1.644   2.802   1.555
22481TIP3   OH267319   1.607   2.425   1.763
22481TIP3    H167320   1.646   2.408   1.677
22481TIP3    H267321   1.625   2.517   1.780
22482TIP3   OH267322   2.114   3.122   1.434
22482TIP3    H167323   2.092   3.215   1.439
22482TIP3    H267324   2.093   3.086   1.520
22483TIP3   OH267325   2.091   2.372   0.830
22483TIP3    H167326   2.146   2.430   0.882
22483TIP3    H267327   2.126   2.378   0.742
22484TIP3   OH267328   1.855   2.991   1.077
22484TIP3    H167329   1.830   3.022   1.164
22484TIP3    H267330   1.783   3.020   1.021
22485TIP3   OH267331   2.592   1.577   0.875
22485TIP3    H167332   2.514   1.600   0.926
22485TIP3    H267333   2.613   1.657   0.826
22486TIP3   OH267334   1.375   2.328   1.222
22486TIP3    H167335   1.297   2.375   1.191
22486TIP3    H267336   1.343   2.240   1.240
22487TIP3   OH267337   2.423   2.926   0.466
22487TIP3    H167338   2.392   3.005   0.422
22487TIP3    H267339   2.516   2.921   0.444
22488TIP3   OH267340   0.956   2.918   1.789
22488TIP3    H167341   1.043   2.929   1.827
22488TIP3    H267342   0.909   2.997   1.814
22489TIP3   OH267343   1.721   3.250   0.909
22489TIP3    H167344   1.693   3.225   0.821
22489TIP3    H267345   1.681   3.336   0.923
22490TIP3   OH267346   1.165   3.098   1.304
22490TIP3    H167347   1.208   3.088   1.389
22490TIP3    H267348   1.113   3.018   1.294
22491TIP3   OH267349   1.951   3.169   0.574
22491TIP3    H167350   1.999   3.099   0.529
22491TIP3    H267351   1.969   3.153   0.667
22492TIP3   OH267352   1.973   3.158   0.848
22492TIP3    H167353   1.889   3.189   0.882
22492TIP3    H267354   2.017   3.120   0.924
22493TIP3   OH267355   1.747   1.727   1.940
22493TIP3    H167356   1.669   1.686   1.902
22493TIP3    H267357   1.712   1.798   1.995
22494TIP3   OH267358   2.188   2.350   0.577
22494TIP3    H167359   2.139   2.351   0.496
22494TIP3    H267360   2.272   2.390   0.556
22495TIP3   OH267361   1.890   1.768   0.901
22495TIP3    H167362   1.853   1.775   0.989
22495TIP3    H267363   1.856   1.685   0.867
22496TIP3   OH267364   1.683   2.247   1.952
22496TIP3    H167365   1.707   2.301   2.027
22496TIP3    H267366   1.650   2.309   1.888
22497TIP3   OH267367   1.545   2.122   1.461
22497TIP3    H167368   1.457   2.099   1.491
22497TIP3    H267369   1.550   2.087   1.372
22498TIP3   OH267370   2.029   2.214   1.172
22498TIP3    H167371   1.982   2.287   1.132
22498TIP3    H267372   2.087   2.182   1.103
22499TIP3   OH267373   2.161   2.171   1.409
22499TIP3    H167374   2.106   2.205   1.338
22499TIP3    H267375   2.209   2.098   1.369
22500TIP3   OH267376   1.563   1.748   0.884
22500TIP3    H167377   1.552   1.751   0.979
22500TIP3    H267378   1.484   1.791   0.850
22501TIP3   OH267379   1.104   1.805   1.732
22501TIP3    H167380   1.183   1.831   1.780
22501TIP3    H267381   1.137   1.776   1.647
22502TIP3   OH267382   1.013   1.774   1.243
22502TIP3    H167383   1.058   1.810   1.166
22502TIP3    H267384   0.949   1.841   1.266
22503TIP3   OH267385   2.131   2.525   1.817
22503TIP3    H167386   2.194   2.466   1.777
22503TIP3    H267387   2.169   2.547   1.902
22504TIP3   OH267388   1.911   1.929   1.503
22504TIP3    H167389   1.832   1.929   1.557
22504TIP3    H267390   1.981   1.903   1.564
22505TIP3   OH267391   1.309   2.009   1.543
22505TIP3    H167392   1.223   2.017   1.502
22505TIP3    H267393   1.337   1.920   1.523
22506TIP3   OH267394   1.568   2.012   1.214
22506TIP3    H167395   1.662   2.024   1.204
22506TIP3    H267396   1.532   2.031   1.127
22507TIP3   OH267397   2.327   1.985   1.664
22507TIP3    H167398   2.403   1.928   1.671
22507TIP3    H267399   2.252   1.925   1.657
22508TIP3   OH267400   1.460   2.042   0.965
22508TIP3    H167401   1.399   1.990   0.913
22508TIP3    H267402   1.514   2.087   0.901
22509TIP3   OH267403   1.956   2.257   1.582
22509TIP3    H167404   2.023   2.208   1.534
22509TIP3    H267405   1.964   2.228   1.673
22510TIP3   OH267406   1.467   1.769   1.506
22510TIP3    H167407   1.441   1.691   1.554
22510TIP3    H267408   1.485   1.739   1.417
22511TIP3   OH267409   1.936   2.192   1.853
22511TIP3    H167410   1.845   2.187   1.882
22511TIP3    H267411   1.981   2.126   1.905
22512TIP3   OH267412   1.668   2.559   0.995
22512TIP3    H167413   1.593   2.502   0.976
22512TIP3    H267414   1.649   2.596   1.081
22513TIP3   OH267415   2.629   2.801   1.710
22513TIP3    H167416   2.631   2.862   1.636
22513TIP3    H267417   2.551   2.825   1.760
22514TIP3   OH267418   2.140   1.873   0.898
22514TIP3    H167419   2.047   1.851   0.893
22514TIP3    H267420   2.141   1.968   0.908
22515TIP3   OH267421   2.190   2.141   0.952
22515TIP3    H167422   2.286   2.141   0.954
22515TIP3    H267423   2.167   2.218   0.900
22516TIP3   OH267424   1.355   2.541   1.647
22516TIP3    H167425   1.403   2.527   1.565
22516TIP3    H267426   1.409   2.498   1.713
22517TIP3   OH267427   1.824   2.712   0.832
22517TIP3    H167428   1.779   2.797   0.833
22517TIP3    H267429   1.769   2.656   0.888
22518TIP3   OH267430   2.592   2.212   0.764
22518TIP3    H167431   2.542   2.163   0.699
22518TIP3    H267432   2.581   2.304   0.740
22519TIP3   OH267433   2.345   2.975   0.749
22519TIP3    H167434   2.343   2.920   0.827
22519TIP3    H267435   2.354   2.914   0.676
22520TIP3   OH267436   2.315   2.770   1.590
22520TIP3    H167437   2.265   2.690   1.572
22520TIP3    H267438   2.395   2.760   1.539
22521TIP3   OH267439   1.458   2.890   1.310
22521TIP3    H167440   1.455   2.967   1.253
22521TIP3    H267441   1.368   2.877   1.338
22522TIP3   OH267442   1.062   2.198   1.035
22522TIP3    H167443   1.104   2.282   1.057
22522TIP3    H267444   0.980   2.199   1.084
22523TIP3   OH267445   1.595   2.667   1.231
22523TIP3    H167446   1.555   2.751   1.253
22523TIP3    H267447   1.564   2.607   1.300
22524TIP3   OH267448   1.753   3.281   1.909
22524TIP3    H167449   1.709   3.315   1.831
22524TIP3    H267450   1.807   3.354   1.940
22525TIP3   OH267451   1.391   3.109   1.155
22525TIP3    H167452   1.305   3.112   1.197
22525TIP3    H267453   1.412   3.200   1.136
22526TIP3   OH267454   2.158   2.971   1.678
22526TIP3    H167455   2.068   2.937   1.672
22526TIP3    H267456   2.212   2.905   1.636
22527TIP3   OH267457   2.101   2.772   0.592
22527TIP3    H167458   2.144   2.743   0.673
22527TIP3    H267459   2.016   2.728   0.594
22528TIP3   OH267460   2.294   3.145   0.345
22528TIP3    H167461   2.379   3.183   0.324
22528TIP3    H267462   2.248   3.215   0.393
22529TIP3   OH267463   2.242   2.680   0.802
22529TIP3    H167464   2.233   2.627   0.881
22529TIP3    H267465   2.336   2.698   0.795
22530TIP3   OH267466   1.172   2.999   1.948
22530TIP3    H167467   1.155   2.963   2.035
22530TIP3    H267468   1.144   3.091   1.954
22531TIP3   OH267469   1.480   2.736   0.628
22531TIP3    H167470   1.489   2.645   0.600
22531TIP3    H267471   1.463   2.731   0.722
22532TIP3   OH267472   1.421   2.754   0.898
22532TIP3    H167473   1.492   2.733   0.959
22532TIP3    H267474   1.416   2.849   0.899
22533TIP3   OH267475   1.153   2.450   1.113
22533TIP3    H167476   1.085   2.497   1.163
22533TIP3    H267477   1.172   2.507   1.039
22534TIP3   OH267478   2.201   2.084   2.058
22534TIP3    H167479   2.186   2.167   2.102
22534TIP3    H267480   2.117   2.038   2.063
22535TIP3   OH267481   2.185   1.808   1.160
22535TIP3    H167482   2.162   1.823   1.068
22535TIP3    H267483   2.228   1.889   1.187
22536TIP3   OH267484   1.686   2.947   0.836
22536TIP3    H167485   1.597   2.970   0.861
22536TIP3    H267486   1.709   3.010   0.768
22537TIP3   OH267487   1.846   2.023   1.252
22537TIP3    H167488   1.908   2.091   1.224
22537TIP3    H267489   1.871   2.005   1.343
22538TIP3   OH267490   2.012   1.710   1.347
22538TIP3    H167491   1.990   1.790   1.395
22538TIP3    H267492   2.080   1.736   1.286
22539TIP3   OH267493   1.432   3.027   0.898
22539TIP3    H167494   1.416   3.103   0.842
22539TIP3    H267495   1.415   3.058   0.986
22540TIP3   OH267496   1.528   1.740   1.164
22540TIP3    H167497   1.518   1.832   1.188
22540TIP3    H267498   1.622   1.723   1.168
22541TIP3   OH267499   2.387   2.328   1.376
22541TIP3    H167500   2.318   2.263   1.390
22541TIP3    H267501   2.458   2.301   1.434
22542TIP3   OH267502   1.177   2.621   0.894
22542TIP3    H167503   1.250   2.683   0.902
22542TIP3    H267504   1.207   2.558   0.828
22543TIP3   OH267505   1.082   1.921   1.023
22543TIP3    H167506   1.095   2.015   1.034
22543TIP3    H267507   1.024   1.914   0.947
22544TIP3   OH267508   2.439   3.321   1.229
22544TIP3    H167509   2.466   3.411   1.250
22544TIP3    H267510   2.505   3.266   1.273
22545TIP3   OH267511   1.497   1.628   1.881
22545TIP3    H167512   1.468   1.602   1.794
22545TIP3    H267513   1.474   1.554   1.937
22546TIP3   OH267514   0.993   2.880   1.285
22546TIP3    H167515   0.954   2.916   1.364
22546TIP3    H267516   0.948   2.926   1.213
22547TIP3   OH267517   1.630   2.936   0.513
22547TIP3    H167518   1.584   2.864   0.556
22547TIP3    H267519   1.703   2.894   0.468
22548TIP3   OH267520   2.075   2.982   0.425
22548TIP3    H167521   2.104   2.912   0.483
22548TIP3    H267522   2.152   3.004   0.372
22549TIP3   OH267523   1.298   2.433   0.738
22549TIP3    H167524   1.348   2.408   0.816
22549TIP3    H267525   1.364   2.446   0.670
22550TIP3   OH267526   1.856   2.651   0.567
22550TIP3    H167527   1.833   2.661   0.659
22550TIP3    H267528   1.842   2.559   0.548
22551TIP3   OH267529   1.466   2.375   0.954
22551TIP3    H167530   1.445   2.342   1.041
22551TIP3    H267531   1.516   2.304   0.913
22552TIP3   OH267532   1.612   2.197   0.798
22552TIP3    H167533   1.581   2.200   0.707
22552TIP3    H267534   1.707   2.201   0.791
22553TIP3   OH267535   2.407   2.474   0.457
22553TIP3    H167536   2.393   2.427   0.374
22553TIP3    H267537   2.369   2.561   0.442
22554TIP3   OH267538   1.944   1.968   2.046
22554TIP3    H167539   1.888   1.921   1.984
22554TIP3    H267540   1.892   1.975   2.125
22555TIP3   OH267541   1.439   3.246   0.727
22555TIP3    H167542   1.525   3.220   0.692
22555TIP3    H267543   1.394   3.287   0.653
22556TIP3   OH267544   0.904   2.626   0.908
22556TIP3    H167545   0.999   2.635   0.906
22556TIP3    H267546   0.887   2.540   0.868
22557TIP3   OH267547   0.793   3.194   1.376
22557TIP3    H167548   0.725   3.144   1.331
22557TIP3    H267549   0.837   3.130   1.431
22558TIP3   OH267550   0.942   3.018   1.529
22558TIP3    H167551   0.926   2.953   1.597
22558TIP3    H267552   1.006   3.079   1.568
22559TIP3   OH267553   2.506   2.735   0.801
22559TIP3    H167554   2.573   2.736   0.732
22559TIP3    H267555   2.542   2.678   0.868
22560TIP3   OH267556   2.604   2.562   0.990
22560TIP3    H167557   2.537   2.503   1.025
22560TIP3    H267558   2.686   2.514   1.005
22561TIP3   OH267559   2.674   2.907   1.458
22561TIP3    H167560   2.757   2.890   1.413
22561TIP3    H267561   2.648   2.994   1.428
22562TIP3   OH267562   2.583   2.460   0.661
22562TIP3    H167563   2.511   2.472   0.600
22562TIP3    H267564   2.631   2.542   0.659
22563TIP3   OH267565   2.446   2.094   0.569
22563TIP3    H167566   2.396   2.116   0.490
22563TIP3    H267567   2.452   1.999   0.568
22564TIP3   OH267568   2.452   2.375   1.117
22564TIP3    H167569   2.475   2.287   1.087
22564TIP3    H267570   2.438   2.365   1.211
22565TIP3   OH267571   1.112   2.534   1.900
22565TIP3    H167572   1.100   2.486   1.818
22565TIP3    H267573   1.207   2.534   1.914
22566TIP3   OH267574   2.433   1.821   0.556
22566TIP3    H167575   2.495   1.801   0.626
22566TIP3    H267576   2.348   1.790   0.588
22567TIP3   OH267577   2.474   2.122   0.998
22567TIP3    H167578   2.516   2.038   1.014
22567TIP3    H267579   2.519   2.157   0.921
22568TIP3   OH267580   2.597   2.236   1.538
22568TIP3    H167581   2.644   2.306   1.492
22568TIP3    H267582   2.634   2.237   1.627
22569TIP3   OH267583   2.738   2.519   1.821
22569TIP3    H167584   2.674   2.575   1.865
22569TIP3    H267585   2.781   2.577   1.759
22570TIP3   OH267586   2.583   1.875   1.044
22570TIP3    H167587   2.623   1.857   1.129
22570TIP3    H267588   2.520   1.804   1.032
22571TIP3   OH267589   1.330   1.847   1.890
22571TIP3    H167590   1.386   1.770   1.892
22571TIP3    H267591   1.390   1.921   1.880
22572TIP3   OH267592   1.104   2.135   1.998
22572TIP3    H167593   1.155   2.154   1.919
22572TIP3    H267594   1.089   2.221   2.038
22573TIP3   OH267595   2.656   1.792   0.718
22573TIP3    H167596   2.705   1.733   0.660
22573TIP3    H267597   2.710   1.871   0.723
22574TIP3   OH267598   1.093   1.658   1.476
22574TIP3    H167599   1.008   1.639   1.515
22574TIP3    H267600   1.073   1.706   1.396
22575TIP3   OH267601   2.275   3.426   1.029
22575TIP3    H167602   2.284   3.361   0.960
22575TIP3    H267603   2.324   3.390   1.103
22576TIP3   OH267604   1.348   3.351   1.777
22576TIP3    H167605   1.367   3.282   1.840
22576TIP3    H267606   1.428   3.356   1.723
22577TIP3   OH267607   1.895   3.512   1.631
22577TIP3    H167608   1.852   3.588   1.591
22577TIP3    H267609   1.889   3.528   1.725
22578TIP3   OH267610   1.998   3.269   1.717
22578TIP3    H167611   1.976   3.346   1.665
22578TIP3    H267612   2.093   3.260   1.710
22579TIP3   OH267613   1.117   3.201   1.662
22579TIP3    H167614   1.159   3.246   1.736
22579TIP3    H267615   1.188   3.153   1.620
22580TIP3   OH267616   1.309   3.059   1.533
22580TIP3    H167617   1.323   2.976   1.579
22580TIP3    H267618   1.397   3.094   1.522
22581TIP3   OH267619   1.565   3.160   1.502
22581TIP3    H167620   1.611   3.076   1.501
22581TIP3    H267621   1.613   3.213   1.565
22582TIP3   OH267622   2.109   1.804   1.646
22582TIP3    H167623   2.070   1.735   1.699
22582TIP3    H267624   2.179   1.761   1.597
22583TIP3   OH267625   2.631   1.700   1.497
22583TIP3    H167626   2.662   1.756   1.426
22583TIP3    H267627   2.608   1.760   1.567
22584TIP3   OH267628   2.726   1.804   1.262
22584TIP3    H167629   2.786   1.737   1.230
22584TIP3    H267630   2.776   1.885   1.257
22585TIP3   OH267631   1.402   1.538   1.640
22585TIP3    H167632   1.311   1.509   1.649
22585TIP3    H267633   1.452   1.457   1.636
22586TIP3   OH267634   1.222   1.458   1.316
22586TIP3    H167635   1.244   1.503   1.235
22586TIP3    H267636   1.186   1.526   1.372
22587TIP3   OH267637   1.856   1.575   1.536
22587TIP3    H167638   1.907   1.618   1.467
22587TIP3    H267639   1.901   1.598   1.617
22588TIP3   OH267640   2.335   1.706   1.533
22588TIP3    H167641   2.408   1.700   1.472
22588TIP3    H267642   2.347   1.630   1.591
22589TIP3   OH267643   2.401   1.666   1.056
22589TIP3    H167644   2.326   1.715   1.089
22589TIP3    H267645   2.392   1.579   1.094
22590TIP3   OH267646   0.880   3.011   1.074
22590TIP3    H167647   0.798   2.981   1.035
22590TIP3    H267648   0.891   3.100   1.040
22591TIP3   OH267649   1.321   1.575   1.070
22591TIP3    H167650   1.367   1.512   1.014
22591TIP3    H267651   1.390   1.630   1.106
22592TIP3   OH267652   1.802   1.768   1.163
22592TIP3    H167653   1.861   1.715   1.217
22592TIP3    H267654   1.818   1.858   1.192
22593TIP3   OH267655   1.687   3.163   0.646
22593TIP3    H167656   1.774   3.187   0.613
22593TIP3    H267657   1.658   3.092   0.589
22594TIP3   OH267658   2.306   3.229   0.850
22594TIP3    H167659   2.314   3.139   0.817
22594TIP3    H267660   2.364   3.280   0.793
22595TIP3   OH267661   1.004   3.005   0.724
22595TIP3    H167662   1.006   3.018   0.818
22595TIP3    H267663   1.085   2.958   0.704
22596TIP3   OH267664   2.843   2.339   0.805
22596TIP3    H167665   2.842   2.370   0.896
22596TIP3    H267666   2.755   2.305   0.791
22597TIP3   OH267667   2.935   2.698   1.110
22597TIP3    H167668   2.929   2.604   1.092
22597TIP3    H267669   3.028   2.718   1.100
22598TIP3   OH267670   3.460   2.216   1.095
22598TIP3    H167671   3.399   2.229   1.023
22598TIP3    H267672   3.430   2.135   1.138
22599TIP3   OH267673   4.131   2.294   0.764
22599TIP3    H167674   4.109   2.292   0.857
22599TIP3    H267675   4.118   2.386   0.739
22600TIP3   OH267676   3.152   2.364   1.159
22600TIP3    H167677   3.169   2.348   1.252
22600TIP3    H267678   3.056   2.364   1.152
22601TIP3   OH267679   3.536   2.665   1.045
22601TIP3    H167680   3.558   2.650   0.953
22601TIP3    H267681   3.585   2.598   1.093
22602TIP3   OH267682   3.383   2.143   1.520
22602TIP3    H167683   3.319   2.187   1.576
22602TIP3    H267684   3.453   2.117   1.579
22603TIP3   OH267685   3.315   2.563   1.326
22603TIP3    H167686   3.369   2.636   1.356
22603TIP3    H267687   3.372   2.486   1.336
22604TIP3   OH267688   2.715   2.699   0.616
22604TIP3    H167689   2.700   2.778   0.564
22604TIP3    H267690   2.761   2.730   0.694
22605TIP3   OH267691   3.892   1.919   1.293
22605TIP3    H167692   3.862   1.828   1.291
22605TIP3    H267693   3.880   1.946   1.384
22606TIP3   OH267694   3.733   2.694   0.571
22606TIP3    H167695   3.670   2.755   0.533
22606TIP3    H267696   3.819   2.734   0.555
22607TIP3   OH267697   3.679   2.443   0.202
22607TIP3    H167698   3.734   2.507   0.248
22607TIP3    H267699   3.681   2.365   0.257
22608TIP3   OH267700   3.215   2.824   0.898
22608TIP3    H167701   3.167   2.778   0.830
22608TIP3    H267702   3.241   2.755   0.960
22609TIP3   OH267703   3.856   2.637   0.286
22609TIP3    H167704   3.913   2.604   0.356
22609TIP3    H267705   3.916   2.676   0.223
22610TIP3   OH267706   4.387   1.827   0.489
22610TIP3    H167707   4.309   1.796   0.443
22610TIP3    H267708   4.448   1.851   0.419
22611TIP3   OH267709   3.040   2.598   0.830
22611TIP3    H167710   3.019   2.553   0.748
22611TIP3    H267711   3.087   2.533   0.881
22612TIP3   OH267712   3.029   3.324   0.995
22612TIP3    H167713   3.008   3.402   0.943
22612TIP3    H267714   2.977   3.255   0.955
22613TIP3   OH267715   3.780   3.392   0.081
22613TIP3    H167716   3.859   3.354   0.041
22613TIP3    H267717   3.767   3.342   0.161
22614TIP3   OH267718   3.643   1.974   1.474
22614TIP3    H167719   3.596   1.918   1.412
22614TIP3    H267720   3.662   2.054   1.425
22615TIP3   OH267721   4.049   2.684   0.086
22615TIP3    H167722   4.003   2.606   0.056
22615TIP3    H267723   4.077   2.727   0.005
22616TIP3   OH267724   3.625   1.995   0.297
22616TIP3    H167725   3.596   2.036   0.378
22616TIP3    H267726   3.592   1.905   0.301
22617TIP3   OH267727   3.275   2.324   0.923
22617TIP3    H167728   3.228   2.336   1.006
22617TIP3    H267729   3.207   2.299   0.860
22618TIP3   OH267730   3.864   2.444   0.619
22618TIP3    H167731   3.807   2.518   0.600
22618TIP3    H267732   3.918   2.435   0.541
22619TIP3   OH267733   3.288   1.970   0.323
22619TIP3    H167734   3.282   1.980   0.418
22619TIP3    H267735   3.227   2.036   0.288
22620TIP3   OH267736   2.908   1.997   1.213
22620TIP3    H167737   2.992   2.010   1.257
22620TIP3    H267738   2.931   1.990   1.120
22621TIP3   OH267739   2.803   2.028   0.727
22621TIP3    H167740   2.856   2.068   0.658
22621TIP3    H267741   2.736   2.094   0.748
22622TIP3   OH267742   3.708   2.180   0.970
22622TIP3    H167743   3.621   2.185   1.010
22622TIP3    H267744   3.768   2.174   1.044
22623TIP3   OH267745   2.994   2.163   0.966
22623TIP3    H167746   2.945   2.213   1.031
22623TIP3    H267747   2.974   2.205   0.883
22624TIP3   OH267748   3.384   2.275   0.633
22624TIP3    H167749   3.449   2.343   0.615
22624TIP3    H267750   3.340   2.261   0.550
22625TIP3   OH267751   3.207   2.267   0.423
22625TIP3    H167752   3.129   2.221   0.390
22625TIP3    H267753   3.252   2.297   0.344
22626TIP3   OH267754   3.335   1.801   0.952
22626TIP3    H167755   3.277   1.795   1.028
22626TIP3    H267756   3.294   1.866   0.896
22627TIP3   OH267757   3.488   2.834   0.511
22627TIP3    H167758   3.434   2.797   0.441
22627TIP3    H267759   3.445   2.917   0.533
22628TIP3   OH267760   3.895   2.025   0.267
22628TIP3    H167761   3.804   2.000   0.285
22628TIP3    H267762   3.893   2.061   0.178
22629TIP3   OH267763   4.050   2.505   0.425
22629TIP3    H167764   4.132   2.477   0.467
22629TIP3    H267765   4.060   2.477   0.334
22630TIP3   OH267766   3.172   2.808   1.212
22630TIP3    H167767   3.247   2.856   1.177
22630TIP3    H267768   3.210   2.732   1.254
22631TIP3   OH267769   3.756   2.957   0.364
22631TIP3    H167770   3.775   3.012   0.439
22631TIP3    H267771   3.663   2.972   0.346
22632TIP3   OH267772   4.501   2.494   0.283
22632TIP3    H167773   4.411   2.527   0.279
22632TIP3    H267774   4.555   2.573   0.285
22633TIP3   OH267775   3.307   3.241   0.896
22633TIP3    H167776   3.306   3.335   0.879
22633TIP3    H267777   3.240   3.205   0.838
22634TIP3   OH267778   2.753   2.400   0.449
22634TIP3    H167779   2.826   2.443   0.493
22634TIP3    H267780   2.681   2.404   0.512
22635TIP3   OH267781   3.430   2.997   0.865
22635TIP3    H167782   3.408   3.085   0.896
22635TIP3    H267783   3.350   2.946   0.878
22636TIP3   OH267784   3.179   3.456   0.754
22636TIP3    H167785   3.095   3.486   0.790
22636TIP3    H267786   3.219   3.535   0.717
22637TIP3   OH267787   3.871   3.003   0.118
22637TIP3    H167788   3.848   2.992   0.210
22637TIP3    H267789   3.842   2.922   0.076
22638TIP3   OH267790   3.230   2.977   0.059
22638TIP3    H167791   3.247   2.883   0.051
22638TIP3    H267792   3.192   2.987   0.146
22639TIP3   OH267793   3.172   3.007   0.333
22639TIP3    H167794   3.208   2.918   0.326
22639TIP3    H267795   3.210   3.043   0.413
22640TIP3   OH267796   2.964   2.728   0.450
22640TIP3    H167797   2.894   2.675   0.489
22640TIP3    H267798   3.045   2.682   0.474
22641TIP3   OH267799   3.954   2.089   0.651
22641TIP3    H167800   3.980   2.024   0.586
22641TIP3    H267801   3.988   2.172   0.617
22642TIP3   OH267802   3.483   3.230   0.396
22642TIP3    H167803   3.418   3.258   0.332
22642TIP3    H267804   3.565   3.270   0.367
22643TIP3   OH267805   3.691   2.243   0.704
22643TIP3    H167806   3.760   2.307   0.687
22643TIP3    H267807   3.698   2.224   0.797
22644TIP3   OH267808   3.759   1.972   0.806
22644TIP3    H167809   3.731   2.033   0.874
22644TIP3    H267810   3.826   2.021   0.757
22645TIP3   OH267811   3.216   3.321   0.518
22645TIP3    H167812   3.185   3.397   0.468
22645TIP3    H267813   3.204   3.347   0.609
22646TIP3   OH267814   3.275   1.979   0.595
22646TIP3    H167815   3.247   1.996   0.685
22646TIP3    H267816   3.369   1.999   0.595
22647TIP3   OH267817   2.901   2.987   0.245
22647TIP3    H167818   2.967   3.027   0.301
22647TIP3    H267819   2.946   2.913   0.204
22648TIP3   OH267820   2.911   2.167   0.511
22648TIP3    H167821   2.853   2.242   0.493
22648TIP3    H267822   2.911   2.117   0.430
22649TIP3   OH267823   3.243   1.816   1.404
22649TIP3    H167824   3.223   1.817   1.311
22649TIP3    H267825   3.332   1.781   1.410
22650TIP3   OH267826   2.871   3.213   0.796
22650TIP3    H167827   2.834   3.144   0.850
22650TIP3    H267828   2.812   3.220   0.721
22651TIP3   OH267829   6.649   7.757   7.908
22651TIP3    H167830   6.600   7.706   7.973
22651TIP3    H267831   6.739   7.757   7.941
22652TIP3   OH267832   7.244   7.901   7.922
22652TIP3    H167833   7.305   7.827   7.932
22652TIP3    H267834   7.217   7.897   7.831
22653TIP3   OH267835   3.044   2.750   0.190
22653TIP3    H167836   3.014   2.736   0.279
22653TIP3    H267837   3.139   2.741   0.195
22654TIP3   OH267838   6.785   7.488   7.961
22654TIP3    H167839   6.865   7.439   7.974
22654TIP3    H267840   6.715   7.425   7.980
22655TIP3   OH267841   3.202   2.595   0.498
22655TIP3    H167842   3.242   2.587   0.585
22655TIP3    H267843   3.272   2.573   0.437
22656TIP3   OH267844   3.335   2.332   0.193
22656TIP3    H167845   3.309   2.368   0.108
22656TIP3    H267846   3.389   2.257   0.171
22657TIP3   OH267847   7.413   7.414   7.850
22657TIP3    H167848   7.344   7.356   7.816
22657TIP3    H267849   7.461   7.442   7.772
22658TIP3   OH267850   3.228   3.517   0.161
22658TIP3    H167851   3.319   3.530   0.187
22658TIP3    H267852   3.197   3.605   0.139
22659TIP3   OH267853   2.686   2.876   0.391
22659TIP3    H167854   2.762   2.922   0.355
22659TIP3    H267855   2.685   2.791   0.346
22660TIP3   OH267856   2.680   3.442   0.855
22660TIP3    H167857   2.599   3.442   0.803
22660TIP3    H267858   2.671   3.365   0.911
22661TIP3   OH267859   2.595   3.238   1.010
22661TIP3    H167860   2.598   3.146   1.034
22661TIP3    H267861   2.528   3.276   1.067
22662TIP3   OH267862   4.536   2.763   0.214
22662TIP3    H167863   4.500   2.782   0.127
22662TIP3    H267864   4.619   2.812   0.217
22663TIP3   OH267865   7.534   7.013   7.982
22663TIP3    H167866   7.485   7.015   7.900
22663TIP3    H267867   7.551   6.920   7.997
22664TIP3   OH267868   2.914   2.822   1.359
22664TIP3    H167869   2.926   2.818   1.264
22664TIP3    H267870   3.002   2.838   1.393
22665TIP3   OH267871   4.242   2.112  -0.034
22665TIP3    H167872   4.297   2.079   0.037
22665TIP3    H267873   4.153   2.105  -0.001
22666TIP3   OH267874   4.307   2.404   0.491
22666TIP3    H167875   4.292   2.317   0.528
22666TIP3    H267876   4.402   2.417   0.497
22667TIP3   OH267877   4.500   2.054   0.664
22667TIP3    H167878   4.517   2.082   0.754
22667TIP3    H267879   4.406   2.040   0.660
22668TIP3   OH267880   3.101   2.048   1.400
22668TIP3    H167881   3.166   1.981   1.418
22668TIP3    H267882   3.147   2.131   1.412
22669TIP3   OH267883   2.867   2.378   1.597
22669TIP3    H167884   2.855   2.336   1.512
22669TIP3    H267885   2.852   2.471   1.581
22670TIP3   OH267886   4.445   2.019   0.137
22670TIP3    H167887   4.472   1.929   0.120
22670TIP3    H267888   4.473   2.037   0.227
22671TIP3   OH267889   2.863   1.874   0.949
22671TIP3    H167890   2.770   1.867   0.974
22671TIP3    H267891   2.865   1.943   0.883
22672TIP3   OH267892   3.135   2.043   1.876
22672TIP3    H167893   3.075   1.976   1.908
22672TIP3    H267894   3.085   2.091   1.810
22673TIP3   OH267895   3.923   2.150   1.157
22673TIP3    H167896   3.931   2.066   1.202
22673TIP3    H267897   3.964   2.135   1.072
22674TIP3   OH267898   3.156   1.763   1.152
22674TIP3    H167899   3.065   1.751   1.124
22674TIP3    H267900   3.185   1.675   1.176
22675TIP3   OH267901   2.982   1.683   0.780
22675TIP3    H167902   3.013   1.728   0.702
22675TIP3    H267903   2.951   1.753   0.838
22676TIP3   OH267904   3.647   1.910   1.121
22676TIP3    H167905   3.733   1.878   1.092
22676TIP3    H267906   3.613   1.841   1.177
22677TIP3   OH267907   4.282   2.059   0.972
22677TIP3    H167908   4.275   2.014   0.887
22677TIP3    H267909   4.246   1.996   1.035
22678TIP3   OH267910   4.235   1.931   0.737
22678TIP3    H167911   4.172   1.901   0.671
22678TIP3    H267912   4.276   1.851   0.768
22679TIP3   OH267913   2.696   3.222   0.585
22679TIP3    H167914   2.601   3.221   0.573
22679TIP3    H267915   2.723   3.310   0.558
22680TIP3   OH267916   3.084   1.792   0.540
22680TIP3    H167917   3.130   1.728   0.486
22680TIP3    H267918   3.151   1.856   0.564
22681TIP3   OH267919   3.550   2.033   0.569
22681TIP3    H167920   3.618   1.966   0.558
22681TIP3    H267921   3.597   2.109   0.604
22682TIP3   OH267922   3.490   3.552   0.237
22682TIP3    H167923   3.573   3.597   0.253
22682TIP3    H267924   3.511   3.482   0.175
22683TIP3   OH267925   2.742   3.195   0.141
22683TIP3    H167926   2.782   3.257   0.201
22683TIP3    H267927   2.778   3.110   0.168
22684TIP3   OH267928   8.372   6.833   7.773
22684TIP3    H167929   8.419   6.873   7.846
22684TIP3    H267930   8.317   6.904   7.739
22685TIP3   OH267931   4.601   2.280   0.153
22685TIP3    H167932   4.675   2.246   0.205
22685TIP3    H267933   4.572   2.358   0.202
22686TIP3   OH267934   4.795   2.397  -0.014
22686TIP3    H167935   4.782   2.490   0.008
22686TIP3    H267936   4.711   2.356   0.009
22687TIP3   OH267937   4.751   2.179   0.360
22687TIP3    H167938   4.658   2.157   0.371
22687TIP3    H267939   4.779   2.206   0.447
22688TIP3   OH267940   4.838   1.944   0.256
22688TIP3    H167941   4.889   1.962   0.177
22688TIP3    H267942   4.821   2.030   0.294
22689TIP3   OH267943   8.221   6.645   8.017
22689TIP3    H167944   8.213   6.654   7.922
22689TIP3    H267945   8.233   6.735   8.048
22690TIP3   OH267946   9.537   3.811   0.859
22690TIP3    H167947   9.548   3.803   0.953
22690TIP3    H267948   9.591   3.740   0.823
22691TIP3   OH267949   0.460   3.149   1.045
22691TIP3    H167950   0.387   3.170   1.103
22691TIP3    H267951   0.470   3.227   0.990
22692TIP3   OH267952   0.084   3.836   0.723
22692TIP3    H167953   0.022   3.847   0.651
22692TIP3    H267954   0.142   3.911   0.717
22693TIP3   OH267955   9.553   3.334   1.015
22693TIP3    H167956   9.505   3.355   1.095
22693TIP3    H267957   9.521   3.247   0.989
22694TIP3   OH267958   9.239   3.325   1.028
22694TIP3    H167959   9.263   3.356   1.116
22694TIP3    H267960   9.152   3.361   1.012
22695TIP3   OH267961   9.808   3.421   1.038
22695TIP3    H167962   9.714   3.407   1.024
22695TIP3    H267963   9.819   3.516   1.025
22696TIP3   OH267964   0.075   3.686   1.020
22696TIP3    H167965   0.158   3.676   1.067
22696TIP3    H267966   0.094   3.751   0.952
22697TIP3   OH267967   0.477   3.785   0.934
22697TIP3    H167968   0.420   3.736   0.875
22697TIP3    H267969   0.479   3.874   0.898
22698TIP3   OH267970   0.060   3.369   1.300
22698TIP3    H167971   0.039   3.382   1.207
22698TIP3    H267972   0.080   3.457   1.332
22699TIP3   OH267973   0.242   4.046   0.627
22699TIP3    H167974   0.239   4.007   0.540
22699TIP3    H267975   0.197   4.130   0.617
22700TIP3   OH267976   0.446   4.031   0.810
22700TIP3    H167977   0.380   4.029   0.740
22700TIP3    H267978   0.411   4.094   0.873
22701TIP3   OH267979   0.315   3.676   0.749
22701TIP3    H167980   0.235   3.719   0.718
22701TIP3    H267981   0.305   3.585   0.721
22702TIP3   OH267982   0.275   3.406   0.703
22702TIP3    H167983   0.340   3.382   0.769
22702TIP3    H267984   0.195   3.362   0.732
22703TIP3   OH267985   0.325   3.648   1.132
22703TIP3    H167986   0.375   3.575   1.169
22703TIP3    H267987   0.389   3.695   1.078
22704TIP3   OH267988   0.469   3.425   1.228
22704TIP3    H167989   0.507   3.422   1.316
22704TIP3    H267990   0.405   3.353   1.227
22705TIP3   OH267991   0.498   3.355   0.865
22705TIP3    H167992   0.546   3.295   0.808
22705TIP3    H267993   0.554   3.432   0.871
22706TIP3   OH267994   0.526   3.281   1.692
22706TIP3    H167995   0.562   3.337   1.623
22706TIP3    H267996   0.433   3.305   1.696
22707TIP3   OH267997   0.621   3.395   1.462
22707TIP3    H167998   0.690   3.334   1.434
22707TIP3    H267999   0.653   3.481   1.434
22708TIP3   OH268000   0.254   3.292   1.654
22708TIP3    H168001   0.257   3.251   1.567
22708TIP3    H268002   0.216   3.225   1.711
22709TIP3   OH268003   0.282   3.221   1.239
22709TIP3    H168004   0.202   3.271   1.259
22709TIP3    H268005   0.267   3.136   1.279
22710TIP3   OH268006   9.053   3.001   1.292
22710TIP3    H168007   9.084   3.011   1.202
22710TIP3    H268008   8.988   3.071   1.303
22711TIP3   OH268009   9.425   3.345   1.260
22711TIP3    H168010   9.433   3.254   1.290
22711TIP3    H268011   9.462   3.397   1.332
22712TIP3   OH268012   1.763   4.402   0.915
22712TIP3    H168013   1.693   4.461   0.886
22712TIP3    H268014   1.716   4.325   0.950
22713TIP3   OH268015   0.681   3.862   1.110
22713TIP3    H168016   0.647   3.872   1.200
22713TIP3    H268017   0.605   3.833   1.059
22714TIP3   OH268018   1.215   3.728   1.145
22714TIP3    H168019   1.157   3.802   1.126
22714TIP3    H268020   1.162   3.650   1.125
22715TIP3   OH268021   1.930   3.802   0.845
22715TIP3    H168022   1.968   3.809   0.932
22715TIP3    H268023   1.998   3.835   0.786
22716TIP3   OH268024   1.305   4.244   1.148
22716TIP3    H168025   1.341   4.221   1.234
22716TIP3    H268026   1.326   4.169   1.093
22717TIP3   OH268027   1.552   4.551   0.843
22717TIP3    H168028   1.539   4.534   0.749
22717TIP3    H268029   1.505   4.633   0.859
22718TIP3   OH268030   2.160   3.968   1.223
22718TIP3    H168031   2.234   3.909   1.210
22718TIP3    H268032   2.181   4.045   1.169
22719TIP3   OH268033   1.123   3.917   1.629
22719TIP3    H168034   1.128   4.012   1.616
22719TIP3    H268035   1.143   3.880   1.543
22720TIP3   OH268036   1.543   3.395   1.356
22720TIP3    H168037   1.555   3.303   1.380
22720TIP3    H268038   1.510   3.436   1.436
22721TIP3   OH268039   1.699   4.793   0.688
22721TIP3    H168040   1.759   4.720   0.670
22721TIP3    H268041   1.729   4.829   0.771
22722TIP3   OH268042   1.476   4.098   0.722
22722TIP3    H168043   1.383   4.086   0.740
22722TIP3    H268044   1.485   4.085   0.627
22723TIP3   OH268045   1.489   3.933   0.387
22723TIP3    H168046   1.529   4.019   0.403
22723TIP3    H268047   1.541   3.895   0.316
22724TIP3   OH268048   1.949   4.382   0.728
22724TIP3    H168049   1.880   4.381   0.795
22724TIP3    H268050   2.027   4.352   0.774
22725TIP3   OH268051   1.062   4.335   1.040
22725TIP3    H168052   1.020   4.269   0.984
22725TIP3    H268053   1.128   4.286   1.089
22726TIP3   OH268054   1.593   4.181   0.413
22726TIP3    H168055   1.658   4.201   0.481
22726TIP3    H268056   1.641   4.187   0.331
22727TIP3   OH268057   2.210   3.345   0.518
22727TIP3    H168058   2.136   3.341   0.578
22727TIP3    H268059   2.230   3.439   0.511
22728TIP3   OH268060   0.949   4.148   0.866
22728TIP3    H168061   0.874   4.186   0.820
22728TIP3    H268062   0.912   4.074   0.915
22729TIP3   OH268063   2.072   4.825   0.002
22729TIP3    H168064   2.112   4.862   0.080
22729TIP3    H268065   2.142   4.775  -0.040
22730TIP3   OH268066   1.598   4.994   0.178
22730TIP3    H168067   1.658   4.934   0.133
22730TIP3    H268068   1.574   4.948   0.259
22731TIP3   OH268069   1.657   5.115   0.508
22731TIP3    H168070   1.602   5.103   0.585
22731TIP3    H268071   1.708   5.034   0.503
22732TIP3   OH268072   1.475   3.529   1.581
22732TIP3    H168073   1.380   3.524   1.583
22732TIP3    H268074   1.493   3.623   1.577
22733TIP3   OH268075   1.714   4.187   0.165
22733TIP3    H168076   1.719   4.113   0.104
22733TIP3    H268077   1.790   4.240   0.144
22734TIP3   OH268078   1.509   3.576   0.489
22734TIP3    H168079   1.466   3.594   0.573
22734TIP3    H268080   1.482   3.487   0.467
22735TIP3   OH268081   1.077   3.969   1.062
22735TIP3    H168082   1.011   3.913   1.103
22735TIP3    H268083   1.100   3.923   0.981
22736TIP3   OH268084   1.664   3.959   0.870
22736TIP3    H168085   1.589   4.010   0.837
22736TIP3    H268086   1.720   3.948   0.793
22737TIP3   OH268087   1.858   4.073   1.031
22737TIP3    H168088   1.790   4.036   0.975
22737TIP3    H268089   1.856   4.019   1.110
22738TIP3   OH268090   1.181   3.552   0.507
22738TIP3    H168091   1.175   3.558   0.602
22738TIP3    H268092   1.103   3.597   0.475
22739TIP3   OH268093   0.717   3.614   1.331
22739TIP3    H168094   0.791   3.648   1.382
22739TIP3    H268095   0.758   3.569   1.257
22740TIP3   OH268096   0.660   3.582   0.882
22740TIP3    H168097   0.703   3.612   0.802
22740TIP3    H268098   0.603   3.654   0.908
22741TIP3   OH268099   1.468   3.698   1.067
22741TIP3    H168100   1.376   3.698   1.093
22741TIP3    H268101   1.516   3.694   1.149
22742TIP3   OH268102   0.931   3.768   1.158
22742TIP3    H168103   0.839   3.788   1.142
22742TIP3    H268104   0.941   3.677   1.129
22743TIP3   OH268105   1.158   3.812   0.849
22743TIP3    H168106   1.251   3.812   0.828
22743TIP3    H268107   1.114   3.828   0.766
22744TIP3   OH268108   1.893   3.966   1.294
22744TIP3    H168109   1.886   3.874   1.319
22744TIP3    H268110   1.987   3.984   1.294
22745TIP3   OH268111   1.053   3.840   0.601
22745TIP3    H168112   0.995   3.786   0.547
22745TIP3    H268113   1.115   3.878   0.539
22746TIP3   OH268114   1.613   3.989   1.286
22746TIP3    H168115   1.707   3.999   1.268
22746TIP3    H268116   1.605   4.001   1.380
22747TIP3   OH268117   1.043   3.525   1.083
22747TIP3    H168118   1.030   3.453   1.145
22747TIP3    H268119   1.056   3.482   0.999
22748TIP3   OH268120   1.615   4.013   1.560
22748TIP3    H168121   1.568   4.090   1.594
22748TIP3    H268122   1.706   4.041   1.555
22749TIP3   OH268123   1.230   4.386   0.558
22749TIP3    H168124   1.181   4.305   0.551
22749TIP3    H268125   1.264   4.387   0.647
22750TIP3   OH268126   1.765   3.672   0.476
22750TIP3    H168127   1.670   3.658   0.466
22750TIP3    H268128   1.782   3.754   0.430
22751TIP3   OH268129   1.806   3.967   0.640
22751TIP3    H168130   1.894   3.943   0.668
22751TIP3    H268131   1.807   3.958   0.545
22752TIP3   OH268132   1.558   4.562   0.393
22752TIP3    H168133   1.538   4.654   0.410
22752TIP3    H268134   1.555   4.521   0.480
22753TIP3   OH268135   2.352   4.057   0.367
22753TIP3    H168136   2.284   3.998   0.401
22753TIP3    H268137   2.309   4.142   0.360
22754TIP3   OH268138   2.116   4.776   0.419
22754TIP3    H168139   2.076   4.808   0.499
22754TIP3    H268140   2.042   4.752   0.363
22755TIP3   OH268141   0.682   3.996   0.667
22755TIP3    H168142   0.720   4.082   0.681
22755TIP3    H268143   0.600   3.997   0.718
22756TIP3   OH268144   1.238   4.549   0.993
22756TIP3    H168145   1.206   4.585   0.911
22756TIP3    H268146   1.167   4.492   1.024
22757TIP3   OH268147   1.776   4.456   0.275
22757TIP3    H168148   1.699   4.489   0.322
22757TIP3    H268149   1.749   4.456   0.183
22758TIP3   OH268150   2.089   5.154   0.128
22758TIP3    H168151   2.157   5.153   0.060
22758TIP3    H268152   2.061   5.246   0.132
22759TIP3   OH268153   1.851   4.586   0.558
22759TIP3    H168154   1.854   4.499   0.597
22759TIP3    H268155   1.940   4.601   0.525
22760TIP3   OH268156   1.042   4.494   0.245
22760TIP3    H168157   1.078   4.407   0.227
22760TIP3    H268158   1.037   4.499   0.340
22761TIP3   OH268159   1.003   4.550   0.516
22761TIP3    H168160   1.078   4.505   0.554
22761TIP3    H268161   1.027   4.643   0.516
22762TIP3   OH268162   0.735   4.260   0.737
22762TIP3    H168163   0.659   4.304   0.775
22762TIP3    H268164   0.755   4.311   0.658
22763TIP3   OH268165   1.704   3.678   0.747
22763TIP3    H168166   1.722   3.671   0.654
22763TIP3    H268167   1.776   3.729   0.783
22764TIP3   OH268168   1.240   4.875   0.504
22764TIP3    H168169   1.155   4.884   0.461
22764TIP3    H268170   1.271   4.788   0.477
22765TIP3   OH268171   1.433   3.794   0.816
22765TIP3    H168172   1.518   3.821   0.780
22765TIP3    H268173   1.451   3.778   0.909
22766TIP3   OH268174   1.610   3.506   0.938
22766TIP3    H168175   1.565   3.579   0.982
22766TIP3    H268176   1.660   3.548   0.869
22767TIP3   OH268177   1.122   3.536   0.799
22767TIP3    H168178   1.116   3.626   0.831
22767TIP3    H268179   1.216   3.520   0.791
22768TIP3   OH268180   0.775   4.407   0.511
22768TIP3    H168181   0.846   4.471   0.516
22768TIP3    H268182   0.806   4.341   0.449
22769TIP3   OH268183   0.720   3.719   0.654
22769TIP3    H168184   0.728   3.814   0.665
22769TIP3    H268185   0.655   3.708   0.584
22770TIP3   OH268186   0.995   3.404   1.529
22770TIP3    H168187   0.996   3.380   1.436
22770TIP3    H268188   1.030   3.328   1.575
22771TIP3   OH268189   1.168   4.672   0.077
22771TIP3    H168190   1.133   4.604   0.134
22771TIP3    H268191   1.231   4.719   0.132
22772TIP3   OH268192   1.752   4.808   0.064
22772TIP3    H168193   1.822   4.765   0.113
22772TIP3    H268194   1.771   4.787  -0.028
22773TIP3   OH268195   0.910   4.222   0.361
22773TIP3    H168196   0.958   4.193   0.439
22773TIP3    H268197   0.977   4.225   0.292
22774TIP3   OH268198   1.388   4.487   0.193
22774TIP3    H168199   1.458   4.503   0.257
22774TIP3    H268200   1.398   4.395   0.170
22775TIP3   OH268201   1.081   4.155   0.564
22775TIP3    H168202   1.075   4.124   0.654
22775TIP3    H268203   1.132   4.088   0.518
22776TIP3   OH268204   1.223   3.966   0.428
22776TIP3    H168205   1.197   3.969   0.336
22776TIP3    H268206   1.316   3.943   0.425
22777TIP3   OH268207   1.933   4.318   0.059
22777TIP3    H168208   1.951   4.269  -0.021
22777TIP3    H268209   1.947   4.410   0.035
22778TIP3   OH268210   1.563   3.792   1.795
22778TIP3    H168211   1.554   3.886   1.781
22778TIP3    H268212   1.570   3.782   1.890
22779TIP3   OH268213   0.976   5.103   0.277
22779TIP3    H168214   1.070   5.089   0.288
22779TIP3    H268215   0.968   5.152   0.195
22780TIP3   OH268216   0.508   4.432   0.467
22780TIP3    H168217   0.599   4.436   0.495
22780TIP3    H268218   0.491   4.339   0.454
22781TIP3   OH268219   2.313   4.584   0.403
22781TIP3    H168220   2.355   4.548   0.481
22781TIP3    H268221   2.243   4.640   0.438
22782TIP3   OH268222   2.291   4.317   0.327
22782TIP3    H168223   2.276   4.320   0.232
22782TIP3    H268224   2.304   4.409   0.351
22783TIP3   OH268225   2.161   3.865   0.119
22783TIP3    H168226   2.120   3.950   0.135
22783TIP3    H268227   2.087   3.807   0.101
22784TIP3   OH268228   2.326   4.213   0.768
22784TIP3    H168229   2.252   4.191   0.711
22784TIP3    H268230   2.285   4.251   0.846
22785TIP3   OH268231   2.011   3.629   0.124
22785TIP3    H168232   2.084   3.609   0.183
22785TIP3    H268233   1.936   3.585   0.163
22786TIP3   OH268234   2.075   3.905   0.644
22786TIP3    H168235   2.062   3.821   0.600
22786TIP3    H268236   2.169   3.921   0.639
22787TIP3   OH268237   2.219   3.605   0.825
22787TIP3    H168238   2.251   3.571   0.907
22787TIP3    H268239   2.150   3.544   0.798
22788TIP3   OH268240   0.912   3.665   1.518
22788TIP3    H168241   0.934   3.571   1.517
22788TIP3    H268242   0.926   3.692   1.608
22789TIP3   OH268243   2.243   3.569   0.267
22789TIP3    H168244   2.284   3.493   0.227
22789TIP3    H268245   2.277   3.572   0.356
22790TIP3   OH268246   0.724   3.440   1.105
22790TIP3    H168247   0.637   3.427   1.144
22790TIP3    H268248   0.708   3.495   1.028
22791TIP3   OH268249   1.866   3.688   1.340
22791TIP3    H168250   1.785   3.696   1.390
22791TIP3    H268251   1.845   3.623   1.273
22792TIP3   OH268252   2.278   3.558   1.379
22792TIP3    H168253   2.349   3.620   1.364
22792TIP3    H268254   2.224   3.562   1.300
22793TIP3   OH268255   2.493   3.633   0.957
22793TIP3    H168256   2.569   3.574   0.949
22793TIP3    H268257   2.531   3.721   0.961
22794TIP3   OH268258   1.010   3.323   1.265
22794TIP3    H168259   0.924   3.282   1.277
22794TIP3    H268260   1.071   3.249   1.265
22795TIP3   OH268261   0.863   3.253   0.948
22795TIP3    H168262   0.873   3.296   0.862
22795TIP3    H268263   0.819   3.318   1.002
22796TIP3   OH268264   1.435   3.369   1.107
22796TIP3    H168265   1.491   3.413   1.042
22796TIP3    H268266   1.473   3.393   1.191
22797TIP3   OH268267   2.091   3.538   1.189
22797TIP3    H168268   2.059   3.621   1.153
22797TIP3    H268269   2.136   3.495   1.116
22798TIP3   OH268270   2.043   3.404   0.744
22798TIP3    H168271   1.987   3.447   0.809
22798TIP3    H268272   2.043   3.312   0.770
22799TIP3   OH268273   0.934   3.367   0.697
22799TIP3    H168274   0.986   3.308   0.642
22799TIP3    H268275   0.997   3.428   0.734
22800TIP3   OH268276   1.388   3.537   0.744
22800TIP3    H168277   1.447   3.475   0.787
22800TIP3    H268278   1.417   3.623   0.775
22801TIP3   OH268279   1.250   5.082   0.230
22801TIP3    H168280   1.319   5.131   0.275
22801TIP3    H268281   1.244   5.123   0.144
22802TIP3   OH268282   2.499   4.188   0.564
22802TIP3    H168283   2.444   4.180   0.642
22802TIP3    H268284   2.448   4.146   0.495
22803TIP3   OH268285   6.599   8.640   7.909
22803TIP3    H168286   6.562   8.692   7.981
22803TIP3    H268287   6.622   8.556   7.949
22804TIP3   OH268288   6.255   8.413   7.890
22804TIP3    H168289   6.228   8.494   7.932
22804TIP3    H268290   6.193   8.401   7.818
22805TIP3   OH268291   2.540   3.895   0.863
22805TIP3    H168292   2.593   3.962   0.820
22805TIP3    H268293   2.518   3.833   0.794
22806TIP3   OH268294   2.540   3.854   0.385
22806TIP3    H168295   2.522   3.811   0.302
22806TIP3    H268296   2.487   3.935   0.382
22807TIP3   OH268297   2.918   4.005   0.036
22807TIP3    H168298   2.830   4.038   0.054
22807TIP3    H268299   2.957   4.071  -0.020
22808TIP3   OH268300   2.522   4.272   0.115
22808TIP3    H168301   2.560   4.242   0.198
22808TIP3    H268302   2.444   4.219   0.104
22809TIP3   OH268303   3.018   3.928   0.334
22809TIP3    H168304   2.933   3.893   0.359
22809TIP3    H268305   3.043   3.879   0.257
22810TIP3   OH268306   2.639   3.987   0.125
22810TIP3    H168307   2.642   4.038   0.206
22810TIP3    H268308   2.547   3.989   0.098
22811TIP3   OH268309   5.995   9.050   7.754
22811TIP3    H168310   5.996   8.973   7.810
22811TIP3    H268311   6.088   9.067   7.735
22812TIP3   OH268312   6.324   8.760   7.846
22812TIP3    H168313   6.289   8.816   7.776
22812TIP3    H268314   6.387   8.816   7.892
22813TIP3   OH268315   8.839   0.065   7.947
22813TIP3    H168316   8.859   0.058   8.040
22813TIP3    H268317   8.848  -0.025   7.914
22814TIP3   OH268318   2.531   3.741   0.630
22814TIP3    H168319   2.466   3.675   0.606
22814TIP3    H268320   2.561   3.777   0.547
22815TIP3   OH268321   2.790   3.480   0.600
22815TIP3    H168322   2.761   3.472   0.691
22815TIP3    H268323   2.882   3.506   0.606
22816TIP3   OH268324   2.582   3.513   0.416
22816TIP3    H168325   2.618   3.535   0.330
22816TIP3    H268326   2.656   3.519   0.476
22817TIP3   OH268327   2.661   3.546   0.149
22817TIP3    H168328   2.688   3.484   0.080
22817TIP3    H268329   2.722   3.619   0.140
22818TIP3   OH268330   8.238   0.844   7.837
22818TIP3    H168331   8.311   0.809   7.786
22818TIP3    H268332   8.162   0.795   7.806
22819TIP3   OH268333   1.799   5.282   0.348
22819TIP3    H168334   1.780   5.243   0.263
22819TIP3    H268335   1.762   5.220   0.411
   9.80000   9.23953   8.00167   0.00000   0.00000  -3.26667   0.00000  -3.26667  -4.61976
