Generated by CHARMM-GUI FF-Converter
68335
    1GLY      N    1   2.225   4.423   5.689
    1GLY    HT1    2   2.176   4.411   5.780
    1GLY    HT2    3   2.288   4.340   5.678
    1GLY    HT3    4   2.155   4.417   5.610
    1GLY     CA    5   2.308   4.542   5.679
    1GLY    HA1    6   2.365   4.554   5.769
    1GLY    HA2    7   2.240   4.624   5.661
    1GLY      C    8   2.406   4.537   5.563
    1GLY      O    9   2.422   4.433   5.500
    2PRO      N   10   2.474   4.649   5.514
    2PRO     CD   11   2.461   4.766   5.583
    2PRO    HD1   12   2.492   4.756   5.689
    2PRO    HD2   13   2.355   4.802   5.576
    2PRO     CA   14   2.575   4.650   5.408
    2PRO     HA   15   2.534   4.603   5.320
    2PRO     CB   16   2.606   4.799   5.390
    2PRO    HB1   17   2.551   4.835   5.300
    2PRO    HB2   18   2.714   4.821   5.375
    2PRO     CG   19   2.550   4.864   5.512
    2PRO    HG1   20   2.634   4.889   5.581
    2PRO    HG2   21   2.498   4.959   5.488
    2PRO      C   22   2.701   4.573   5.446
    2PRO      O   23   2.730   4.554   5.564
    3GLY      N   24   2.769   4.510   5.331
    3GLY     HN   25   2.743   4.528   5.237
    3GLY     CA   26   2.896   4.441   5.353
    3GLY    HA1   27   2.930   4.405   5.257
    3GLY    HA2   28   2.877   4.363   5.425
    3GLY      C   29   3.004   4.530   5.410
    3GLY      O   30   2.991   4.653   5.408
    4ALA      N   31   3.107   4.478   5.460
    4ALA     HN   32   3.116   4.379   5.461
    4ALA     CA   33   3.223   4.552   5.509
    4ALA     HA   34   3.185   4.629   5.573
    4ALA     CB   35   3.315   4.460   5.589
    4ALA    HB1   36   3.350   4.376   5.526
    4ALA    HB2   37   3.259   4.417   5.676
    4ALA    HB3   38   3.403   4.515   5.628
    4ALA      C   39   3.300   4.615   5.393
    4ALA      O   40   3.293   4.568   5.280
    5PRO      N   41   3.376   4.725   5.414
    5PRO     CD   42   3.357   4.804   5.527
    5PRO    HD1   43   3.398   4.751   5.616
    5PRO    HD2   44   3.250   4.829   5.544
    5PRO     CA   45   3.461   4.784   5.310
    5PRO     HA   46   3.396   4.810   5.227
    5PRO     CB   47   3.525   4.904   5.381
    5PRO    HB1   48   3.532   4.992   5.314
    5PRO    HB2   49   3.627   4.878   5.417
    5PRO     CG   50   3.438   4.928   5.500
    5PRO    HG1   51   3.498   4.958   5.589
    5PRO    HG2   52   3.368   5.012   5.478
    5PRO      C   53   3.567   4.687   5.260
    5PRO      O   54   3.606   4.594   5.331
    6GLY      N   55   3.599   4.705   5.140
    6GLY     HN   56   3.557   4.775   5.083
    6GLY     CA   57   3.706   4.625   5.082
    6GLY    HA1   58   3.717   4.657   4.979
    6GLY    HA2   59   3.679   4.520   5.091
    6GLY      C   60   3.840   4.647   5.149
    6GLY      O   61   3.854   4.737   5.232
    7SER      N   62   3.918   4.570   5.108
    7SER     HN   63   3.896   4.496   5.045
    7SER     CA   64   4.055   4.585   5.156
    7SER     HA   65   4.055   4.595   5.264
    7SER     CB   66   4.139   4.463   5.119
    7SER    HB1   67   4.242   4.475   5.162
    7SER    HB2   68   4.148   4.452   5.009
    7SER     OG   69   4.082   4.345   5.174
    7SER    HG1   70   4.075   4.354   5.269
    7SER      C   71   4.120   4.711   5.098
    7SER      O   72   4.080   4.759   4.992
    8GLY      N   73   4.214   4.770   5.180
    8GLY     HN   74   4.245   4.730   5.266
    8GLY     CA   75   4.286   4.885   5.127
    8GLY    HA1   76   4.344   4.924   5.210
    8GLY    HA2   77   4.214   4.955   5.087
    8GLY      C   78   4.383   4.850   5.016
    8GLY      O   79   4.403   4.732   4.986
    9PRO      N   80   4.439   4.938   4.961
    9PRO     CD   81   4.441   5.077   5.013
    9PRO    HD1   82   4.482   5.079   5.117
    9PRO    HD2   83   4.339   5.123   5.011
    9PRO     CA   84   4.540   4.919   4.856
    9PRO     HA   85   4.500   4.852   4.780
    9PRO     CB   86   4.564   5.060   4.804
    9PRO    HB1   87   4.492   5.081   4.722
    9PRO    HB2   88   4.666   5.075   4.763
    9PRO     CG   89   4.534   5.149   4.920
    9PRO    HG1   90   4.628   5.167   4.977
    9PRO    HG2   91   4.495   5.249   4.889
    9PRO      C   92   4.669   4.856   4.909
    9PRO      O   93   4.698   4.866   5.028
   10GLY      N   94   4.736   4.791   4.816
   10GLY     HN   95   4.704   4.785   4.722
   10GLY     CA   96   4.863   4.732   4.853
   10GLY    HA1   97   4.897   4.675   4.768
   10GLY    HA2   98   4.849   4.671   4.942
   10GLY      C   99   4.970   4.834   4.883
   10GLY      O  100   4.955   4.952   4.851
   11ALA      N  101   5.073   4.801   4.943
   11ALA     HN  102   5.082   4.708   4.979
   11ALA     CA  103   5.188   4.886   4.973
   11ALA     HA  104   5.148   4.974   5.021
   11ALA     CB  105   5.282   4.816   5.071
   11ALA    HB1  106   5.317   4.721   5.027
   11ALA    HB2  107   5.229   4.793   5.166
   11ALA    HB3  108   5.370   4.879   5.096
   11ALA      C  109   5.262   4.924   4.846
   11ALA      O  110   5.256   4.853   4.746
   12PRO      N  111   5.341   5.045   4.855
   12PRO     CD  112   5.332   5.141   4.952
   12PRO    HD1  113   5.385   5.104   5.043
   12PRO    HD2  114   5.226   5.160   4.977
   12PRO     CA  115   5.424   5.080   4.739
   12PRO     HA  116   5.360   5.081   4.653
   12PRO     CB  117   5.482   5.216   4.777
   12PRO    HB1  118   5.476   5.288   4.692
   12PRO    HB2  119   5.590   5.208   4.807
   12PRO     CG  120   5.403   5.260   4.896
   12PRO    HG1  121   5.467   5.308   4.973
   12PRO    HG2  122   5.327   5.336   4.864
   12PRO      C  123   5.535   4.978   4.713
   12PRO      O  124   5.576   4.907   4.805
   13GLY      N  125   5.569   4.968   4.587
   13GLY     HN  126   5.531   5.026   4.515
   13GLY     CA  127   5.679   4.880   4.552
   13GLY    HA1  128   5.693   4.888   4.445
   13GLY    HA2  129   5.656   4.780   4.584
   13GLY      C  130   5.811   4.920   4.615
   13GLY      O  131   5.823   5.029   4.671
   14SER      N  132   5.906   4.836   4.598
   14SER     HN  133   5.895   4.748   4.553
   14SER     CA  134   6.041   4.869   4.644
   14SER     HA  135   6.035   4.908   4.745
   14SER     CB  136   6.130   4.745   4.645
   14SER    HB1  137   6.234   4.766   4.676
   14SER    HB2  138   6.135   4.707   4.541
   14SER     OG  139   6.072   4.642   4.724
   14SER    HG1  140   6.120   4.643   4.808
   14SER      C  141   6.103   4.978   4.557
   14SER      O  142   6.068   4.992   4.440
   15GLY      N  143   6.181   5.071   4.620
   15GLY     HN  144   6.206   5.059   4.716
   15GLY     CA  145   6.253   5.171   4.542
   15GLY    HA1  146   6.307   5.233   4.612
   15GLY    HA2  147   6.179   5.225   4.484
   15GLY      C  148   6.354   5.111   4.447
   15GLY      O  149   6.381   4.990   4.451
   16PRO      N  150   6.409   5.166   4.357
   16PRO     CD  151   6.389   5.319   4.350
   16PRO    HD1  152   6.403   5.369   4.448
   16PRO    HD2  153   6.288   5.341   4.308
   16PRO     CA  154   6.516   5.121   4.268
   16PRO     HA  155   6.485   5.030   4.218
   16PRO     CB  156   6.535   5.239   4.173
   16PRO    HB1  157   6.463   5.227   4.089
   16PRO    HB2  158   6.637   5.245   4.130
   16PRO     CG  159   6.496   5.359   4.253
   16PRO    HG1  160   6.585   5.393   4.311
   16PRO    HG2  161   6.463   5.444   4.188
   16PRO      C  162   6.645   5.089   4.343
   16PRO      O  163   6.668   5.141   4.452
   17GLY      N  164   6.736   4.983   4.288
   17GLY     HN  165   6.712   4.938   4.202
   17GLY     CA  166   6.867   4.951   4.343
   17GLY    HA1  167   6.907   4.872   4.284
   17GLY    HA2  168   6.853   4.926   4.447
   17GLY      C  169   6.964   5.067   4.335
   17GLY      O  170   6.941   5.163   4.261
   18ALA      N  171   7.053   5.077   4.400
   18ALA     HN  172   7.074   5.003   4.462
   18ALA     CA  173   7.159   5.178   4.399
   18ALA     HA  174   7.109   5.274   4.405
   18ALA     CB  175   7.246   5.165   4.523
   18ALA    HB1  176   7.293   5.064   4.527
   18ALA    HB2  177   7.188   5.181   4.615
   18ALA    HB3  178   7.328   5.240   4.522
   18ALA      C  179   7.244   5.167   4.273
   18ALA      O  180   7.254   5.060   4.213
   19PRO      N  181   7.282   5.300   4.204
   19PRO     CD  182   7.247   5.416   4.255
   19PRO    HD1  183   7.301   5.430   4.351
   19PRO    HD2  184   7.136   5.421   4.270
   19PRO     CA  185   7.363   5.304   4.082
   19PRO     HA  186   7.315   5.247   4.004
   19PRO     CB  187   7.373   5.454   4.050
   19PRO    HB1  188   7.336   5.473   3.947
   19PRO    HB2  189   7.478   5.489   4.058
   19PRO     CG  190   7.289   5.520   4.155
   19PRO    HG1  191   7.347   5.601   4.205
   19PRO    HG2  192   7.200   5.567   4.107
   19PRO      C  193   7.502   5.243   4.101
   19PRO    OT1  194   7.531   5.198   4.215
   19PRO    OT2  195   7.580   5.242   4.003
   20LIT    LIT  196   0.747   1.820   6.626
   21LIT    LIT  197   7.125   2.318   5.091
   22LIT    LIT  198   0.032   6.097   2.416
   23LIT    LIT  199   5.544   2.691   3.577
   24LIT    LIT  200   6.487   7.870   7.975
   25LIT    LIT  201   8.748   5.603   6.867
   26LIT    LIT  202   8.171   5.865   9.079
   27LIT    LIT  203   1.364   2.221   2.890
   28LIT    LIT  204   7.855   6.683   4.975
   29LIT    LIT  205   3.077   1.360   2.971
   30LIT    LIT  206   6.537   6.600   6.258
   31LIT    LIT  207   5.610   6.542   3.052
   32LIT    LIT  208   6.530   0.299   4.273
   33LIT    LIT  209   8.940   4.037   2.435
   34LIT    LIT  210   6.397   5.449  10.314
   35LIT    LIT  211   4.738   8.755   6.574
   36LIT    LIT  212   1.578   7.020   2.423
   37LIT    LIT  213   5.941   3.243   0.156
   38LIT    LIT  214   0.652   6.932   1.968
   39LIT    LIT  215   3.682  -0.109   6.639
   40LIT    LIT  216   2.191   1.090   4.390
   41LIT    LIT  217   3.468   6.258   1.430
   42LIT    LIT  218   8.647   2.913   3.049
   43LIT    LIT  219   5.624   4.597   4.970
   44LIT    LIT  220   3.231   2.125   5.017
   45LIT    LIT  221   3.945  -0.353   3.947
   46LIT    LIT  222   6.083   4.628   6.258
   47LIT    LIT  223   9.859   7.144   4.671
   48LIT    LIT  224   3.710   9.083   6.592
   49LIT    LIT  225   0.840   1.427   6.711
   50LIT    LIT  226   7.842   6.338   3.319
   51LIT    LIT  227   4.734   7.230   2.860
   52LIT    LIT  228   5.666   9.606   5.475
   53LIT    LIT  229   3.976   5.282   6.551
   54LIT    LIT  230   8.577   7.536   4.678
   55LIT    LIT  231   4.636   8.255   2.951
   56LIT    LIT  232   5.298  -0.004   4.651
   57LIT    LIT  233   6.144  -0.155   3.149
   58LIT    LIT  234   5.756   8.215   6.239
   59LIT    LIT  235   6.815   8.235   1.366
   60LIT    LIT  236   3.568   5.818   0.289
   61LIT    LIT  237   6.566   0.589   2.577
   62LIT    LIT  238   2.463   2.719   2.832
   63LIT    LIT  239   1.499   1.119   6.641
   64LIT    LIT  240   8.373   7.389   6.714
   65LIT    LIT  241   5.393   1.730   5.182
   66LIT    LIT  242   1.250   7.511   7.659
   67LIT    LIT  243   0.044   3.349   3.474
   68LIT    LIT  244   0.064   5.429   5.532
   69LIT    LIT  245   3.902   2.637   5.250
   70LIT    LIT  246   4.070   9.457   8.054
   71LIT    LIT  247   4.607   4.206   8.749
   72LIT    LIT  248   0.652   6.019   1.613
   73LIT    LIT  249   8.643   5.646   5.528
   74LIT    LIT  250   2.954   1.528   1.884
   75LIT    LIT  251   7.915   5.786   1.487
   76LIT    LIT  252   3.004   3.522   1.712
   77LIT    LIT  253   6.058   1.672   9.058
   78LIT    LIT  254   8.748   6.368   7.438
   79LIT    LIT  255   5.766   3.840   9.712
   80LIT    LIT  256   3.092   4.889   1.279
   81LIT    LIT  257   8.092   8.669   6.223
   82LIT    LIT  258   6.462   8.520   4.379
   83LIT    LIT  259   2.308   5.756   0.242
   84LIT    LIT  260   0.762   3.886   7.402
   85CLA    CLA  261   8.271   6.599   4.752
   86CLA    CLA  262  10.102   4.611   6.856
   87CLA    CLA  263   7.221   8.137   4.644
   88CLA    CLA  264   9.351   3.191   6.427
   89CLA    CLA  265   5.147   4.015   7.577
   90CLA    CLA  266   2.810   2.772   7.355
   91CLA    CLA  267   0.856   5.448   1.321
   92CLA    CLA  268   2.240   0.932   4.248
   93CLA    CLA  269   2.867   1.291   2.984
   94CLA    CLA  270   4.862   7.940   0.590
   95CLA    CLA  271   6.061   2.327   7.023
   96CLA    CLA  272   7.825   4.848   9.324
   97CLA    CLA  273   5.950   2.297   8.653
   98CLA    CLA  274   1.399   5.230   2.688
   99CLA    CLA  275   5.181   9.470   2.130
  100CLA    CLA  276   2.706   4.226   1.451
  101CLA    CLA  277   9.449   3.992   3.843
  102CLA    CLA  278   1.890   5.253   9.024
  103CLA    CLA  279   5.671   9.628   7.103
  104CLA    CLA  280   5.772   9.800   5.454
  105CLA    CLA  281   5.422   5.757   2.673
  106CLA    CLA  282   4.962   4.983   5.469
  107CLA    CLA  283   8.011   4.613   5.652
  108CLA    CLA  284   4.752   1.183   0.638
  109CLA    CLA  285   8.629   4.838   6.351
  110CLA    CLA  286   1.887   3.953   0.582
  111CLA    CLA  287   2.258   7.307   6.380
  112CLA    CLA  288   5.727   0.272   5.686
  113CLA    CLA  289   9.164   4.660   8.839
  114CLA    CLA  290   1.062   1.444   5.844
  115CLA    CLA  291   2.902   2.472   1.075
  116CLA    CLA  292   6.303   1.307   4.662
  117CLA    CLA  293   5.690   7.495   6.997
  118CLA    CLA  294   5.294   6.448   2.739
  119CLA    CLA  295   3.296   3.241   4.610
  120CLA    CLA  296   0.580   5.487   7.575
  121CLA    CLA  297   6.535   6.888   1.513
  122CLA    CLA  298   4.507   8.953   3.065
  123CLA    CLA  299   8.268   9.160   2.938
  124CLA    CLA  300   4.743   1.465   8.810
  125CLA    CLA  301   7.304   4.277   1.555
  126CLA    CLA  302   9.052   5.814   5.108
  127CLA    CLA  303   5.604   2.969   0.167
  128CLA    CLA  304   3.123   9.104   2.299
  129CLA    CLA  305   2.883   0.191   4.773
  130CLA    CLA  306   3.841   7.085   6.621
  131CLA    CLA  307   0.652   7.663   4.910
  132CLA    CLA  308   6.702   8.149   1.196
  133CLA    CLA  309   3.264   9.671   5.954
  134CLA    CLA  310   8.268   8.450   5.500
  135CLA    CLA  311   3.231   2.763   5.378
  136CLA    CLA  312   2.867   4.121   1.946
  137CLA    CLA  313   6.487   1.782   2.163
  138CLA    CLA  314   4.344  -0.262   4.669
  139CLA    CLA  315   8.259   9.048   3.558
  140CLA    CLA  316   1.275   1.355   6.315
  141CLA    CLA  317   4.433   3.922   9.525
  142CLA    CLA  318   7.152   6.872   8.020
  143CLA    CLA  319   8.915   5.408   3.704
  144CLA    CLA  320   6.319   0.190   2.565
  145CLA    CLA  321   2.927   8.287   6.979
  146CLA    CLA  322   3.536   1.799   3.128
  147CLA    CLA  323   8.110   6.237   3.423
  148CLA    CLA  324   2.737   0.236   6.590
  149CLA    CLA  325   2.005   3.912   4.727
  150TIP3   OH2  326   4.583   0.068   1.706
  150TIP3    H1  327   4.494   0.039   1.731
  150TIP3    H2  328   4.561   0.138   1.641
  151TIP3   OH2  329   4.769   0.009   2.022
  151TIP3    H1  330   4.744  -0.066   1.962
  151TIP3    H2  331   4.759   0.085   1.962
  152TIP3   OH2  332   4.945  -0.311   1.913
  152TIP3    H1  333   4.859  -0.266   1.910
  152TIP3    H2  334   4.951  -0.346   1.822
  153TIP3   OH2  335   4.667  -0.508   2.163
  153TIP3    H1  336   4.649  -0.435   2.226
  153TIP3    H2  337   4.579  -0.547   2.150
  154TIP3   OH2  338   5.003   0.323   2.043
  154TIP3    H1  339   5.002   0.227   2.057
  154TIP3    H2  340   4.919   0.347   2.088
  155TIP3   OH2  341   4.128   0.105   2.191
  155TIP3    H1  342   4.125   0.202   2.205
  155TIP3    H2  343   4.054   0.076   2.245
  156TIP3   OH2  344   4.898  -0.557   2.332
  156TIP3    H1  345   4.822  -0.526   2.280
  156TIP3    H2  346   4.913  -0.644   2.292
  157TIP3   OH2  347   4.402  -0.546   2.552
  157TIP3    H1  348   4.379  -0.637   2.576
  157TIP3    H2  349   4.500  -0.550   2.550
  158TIP3   OH2  350   4.690   0.676   2.143
  158TIP3    H1  351   4.689   0.699   2.048
  158TIP3    H2  352   4.769   0.724   2.174
  159TIP3   OH2  353   4.695  -0.197   1.872
  159TIP3    H1  354   4.731  -0.222   1.784
  159TIP3    H2  355   4.619  -0.259   1.879
  160TIP3   OH2  356   4.281  -0.137   2.209
  160TIP3    H1  357   4.241  -0.179   2.285
  160TIP3    H2  358   4.223  -0.061   2.195
  161TIP3   OH2  359   4.394   0.124   2.083
  161TIP3    H1  360   4.301   0.101   2.098
  161TIP3    H2  361   4.419   0.159   2.171
  162TIP3   OH2  362   5.023   0.034   2.098
  162TIP3    H1  363   4.925   0.031   2.087
  162TIP3    H2  364   5.052   0.003   2.009
  163TIP3   OH2  365   4.520   0.372   1.991
  163TIP3    H1  366   4.452   0.303   1.981
  163TIP3    H2  367   4.504   0.430   1.913
  164TIP3   OH2  368   4.549   0.328   1.583
  164TIP3    H1  369   4.509   0.387   1.515
  164TIP3    H2  370   4.643   0.349   1.568
  165TIP3   OH2  371   3.360   0.377   2.508
  165TIP3    H1  372   3.435   0.383   2.571
  165TIP3    H2  373   3.305   0.310   2.555
  166TIP3   OH2  374   3.802   0.332   2.599
  166TIP3    H1  375   3.894   0.318   2.625
  166TIP3    H2  376   3.799   0.284   2.516
  167TIP3   OH2  377   4.438   0.237   2.334
  167TIP3    H1  378   4.430   0.165   2.401
  167TIP3    H2  379   4.517   0.285   2.364
  168TIP3   OH2  380   4.060  -0.142   2.542
  168TIP3    H1  381   4.033  -0.156   2.449
  168TIP3    H2  382   4.129  -0.209   2.554
  169TIP3   OH2  383   4.556  -0.149   2.137
  169TIP3    H1  384   4.607  -0.077   2.097
  169TIP3    H2  385   4.465  -0.112   2.140
  170TIP3   OH2  386   4.409  -0.214   2.535
  170TIP3    H1  387   4.495  -0.221   2.491
  170TIP3    H2  388   4.418  -0.277   2.608
  171TIP3   OH2  389   4.667  -0.535   2.585
  171TIP3    H1  390   4.719  -0.612   2.612
  171TIP3    H2  391   4.734  -0.471   2.559
  172TIP3   OH2  392   4.685  -0.284   2.326
  172TIP3    H1  393   4.627  -0.230   2.267
  172TIP3    H2  394   4.772  -0.261   2.286
  173TIP3   OH2  395   4.802   0.420   1.542
  173TIP3    H1  396   4.827   0.469   1.623
  173TIP3    H2  397   4.846   0.472   1.473
  174TIP3   OH2  398   4.840   0.466   1.816
  174TIP3    H1  399   4.795   0.379   1.819
  174TIP3    H2  400   4.917   0.445   1.871
  175TIP3   OH2  401   4.876   0.126   2.389
  175TIP3    H1  402   4.801   0.135   2.452
  175TIP3    H2  403   4.916   0.215   2.392
  176TIP3   OH2  404   4.908  -0.054   1.680
  176TIP3    H1  405   4.914  -0.120   1.610
  176TIP3    H2  406   4.894   0.027   1.629
  177TIP3   OH2  407   4.723   0.228   1.866
  177TIP3    H1  408   4.649   0.265   1.917
  177TIP3    H2  409   4.677   0.167   1.804
  178TIP3   OH2  410   4.924  -0.216   2.218
  178TIP3    H1  411   4.996  -0.281   2.206
  178TIP3    H2  412   4.948  -0.146   2.154
  179TIP3   OH2  413   5.112  -0.409   2.245
  179TIP3    H1  414   5.042  -0.470   2.279
  179TIP3    H2  415   5.190  -0.465   2.248
  180TIP3   OH2  416   4.882  -0.567   2.002
  180TIP3    H1  417   4.809  -0.523   2.050
  180TIP3    H2  418   4.920  -0.491   1.954
  181TIP3   OH2  419   4.108   0.379   2.262
  181TIP3    H1  420   4.152   0.377   2.349
  181TIP3    H2  421   4.175   0.426   2.208
  182TIP3   OH2  422   4.291   0.521   2.115
  182TIP3    H1  423   4.368   0.472   2.082
  182TIP3    H2  424   4.336   0.583   2.177
  183TIP3   OH2  425   4.276   0.342   1.817
  183TIP3    H1  426   4.182   0.326   1.838
  183TIP3    H2  427   4.285   0.438   1.829
  184TIP3   OH2  428   4.490   0.539   1.772
  184TIP3    H1  429   4.468   0.621   1.723
  184TIP3    H2  430   4.509   0.477   1.698
  185TIP3   OH2  431   4.757   0.408   2.148
  185TIP3    H1  432   4.676   0.376   2.104
  185TIP3    H2  433   4.738   0.504   2.149
  186TIP3   OH2  434   5.494   0.121   1.662
  186TIP3    H1  435   5.464   0.211   1.637
  186TIP3    H2  436   5.423   0.098   1.726
  187TIP3   OH2  437   5.705   0.240   1.813
  187TIP3    H1  438   5.645   0.304   1.857
  187TIP3    H2  439   5.641   0.185   1.765
  188TIP3   OH2  440   5.438  -0.157   1.880
  188TIP3    H1  441   5.446  -0.093   1.953
  188TIP3    H2  442   5.371  -0.219   1.916
  189TIP3   OH2  443   5.499   0.409   1.898
  189TIP3    H1  444   5.464   0.407   1.807
  189TIP3    H2  445   5.420   0.388   1.951
  190TIP3   OH2  446   5.103  -0.060   1.861
  190TIP3    H1  447   5.029  -0.070   1.797
  190TIP3    H2  448   5.125  -0.153   1.883
  191TIP3   OH2  449   4.940   0.164   1.510
  191TIP3    H1  450   5.028   0.194   1.545
  191TIP3    H2  451   4.888   0.244   1.531
  192TIP3   OH2  452   5.892   0.383   1.652
  192TIP3    H1  453   5.894   0.468   1.701
  192TIP3    H2  454   5.843   0.326   1.715
  193TIP3   OH2  455   5.287   0.132   1.837
  193TIP3    H1  456   5.342   0.114   1.917
  193TIP3    H2  457   5.221   0.060   1.845
  194TIP3   OH2  458   6.489   0.931   1.639
  194TIP3    H1  459   6.476   0.950   1.543
  194TIP3    H2  460   6.562   0.991   1.662
  195TIP3   OH2  461   5.445   0.054   2.061
  195TIP3    H1  462   5.526   0.079   2.109
  195TIP3    H2  463   5.381   0.049   2.134
  196TIP3   OH2  464   5.213  -0.279   1.990
  196TIP3    H1  465   5.244  -0.286   2.083
  196TIP3    H2  466   5.125  -0.322   1.994
  197TIP3   OH2  467   6.197   0.393   1.631
  197TIP3    H1  468   6.112   0.421   1.594
  197TIP3    H2  469   6.207   0.457   1.706
  198TIP3   OH2  470   5.666   0.497   1.511
  198TIP3    H1  471   5.702   0.553   1.440
  198TIP3    H2  472   5.748   0.458   1.546
  199TIP3   OH2  473   6.323   0.680   1.516
  199TIP3    H1  474   6.297   0.594   1.476
  199TIP3    H2  475   6.309   0.737   1.438
  200TIP3   OH2  476   5.140   0.305   1.634
  200TIP3    H1  477   5.190   0.244   1.691
  200TIP3    H2  478   5.158   0.389   1.677
  201TIP3   OH2  479   5.113   0.619   2.045
  201TIP3    H1  480   5.200   0.619   2.090
  201TIP3    H2  481   5.094   0.524   2.042
  202TIP3   OH2  482   5.598   0.590   2.088
  202TIP3    H1  483   5.693   0.570   2.094
  202TIP3    H2  484   5.573   0.534   2.012
  203TIP3   OH2  485   6.230   0.524   1.861
  203TIP3    H1  486   6.229   0.441   1.916
  203TIP3    H2  487   6.317   0.563   1.885
  204TIP3   OH2  488   5.248   0.026   2.251
  204TIP3    H1  489   5.266  -0.069   2.249
  204TIP3    H2  490   5.161   0.031   2.204
  205TIP3   OH2  491   5.851   0.111   2.016
  205TIP3    H1  492   5.816   0.135   1.928
  205TIP3    H2  493   5.915   0.042   1.995
  206TIP3   OH2  494   5.367  -0.243   2.227
  206TIP3    H1  495   5.442  -0.299   2.203
  206TIP3    H2  496   5.393  -0.211   2.315
  207TIP3   OH2  497   6.201   0.037   2.009
  207TIP3    H1  498   6.272   0.076   1.956
  207TIP3    H2  499   6.239   0.030   2.100
  208TIP3   OH2  500   5.637  -0.433   2.236
  208TIP3    H1  501   5.576  -0.509   2.235
  208TIP3    H2  502   5.652  -0.421   2.141
  209TIP3   OH2  503   4.858   0.302   1.257
  209TIP3    H1  504   4.891   0.217   1.289
  209TIP3    H2  505   4.926   0.362   1.294
  210TIP3   OH2  506   6.684   0.372   1.965
  210TIP3    H1  507   6.595   0.380   2.006
  210TIP3    H2  508   6.718   0.462   1.970
  211TIP3   OH2  509   5.280   0.360   2.065
  211TIP3    H1  510   5.190   0.327   2.046
  211TIP3    H2  511   5.291   0.337   2.158
  212TIP3   OH2  512   5.444   0.390   1.622
  212TIP3    H1  513   5.394   0.460   1.576
  212TIP3    H2  514   5.533   0.415   1.588
  213TIP3   OH2  515   5.907   0.637   1.755
  213TIP3    H1  516   5.949   0.641   1.844
  213TIP3    H2  517   5.971   0.687   1.701
  214TIP3   OH2  518   6.081   0.785   1.607
  214TIP3    H1  519   6.160   0.742   1.567
  214TIP3    H2  520   6.126   0.846   1.668
  215TIP3   OH2  521   5.133   0.639   1.637
  215TIP3    H1  522   5.047   0.677   1.610
  215TIP3    H2  523   5.144   0.679   1.724
  216TIP3   OH2  524   5.367   0.622   1.486
  216TIP3    H1  525   5.282   0.638   1.534
  216TIP3    H2  526   5.347   0.661   1.398
  217TIP3   OH2  527   5.767   0.662   1.315
  217TIP3    H1  528   5.703   0.683   1.244
  217TIP3    H2  529   5.789   0.751   1.348
  218TIP3   OH2  530   6.020   0.612   1.233
  218TIP3    H1  531   5.935   0.626   1.280
  218TIP3    H2  532   6.080   0.675   1.277
  219TIP3   OH2  533   6.231   0.798   1.283
  219TIP3    H1  534   6.216   0.889   1.251
  219TIP3    H2  535   6.303   0.771   1.222
  220TIP3   OH2  536   5.050   0.451   1.389
  220TIP3    H1  537   5.085   0.428   1.477
  220TIP3    H2  538   5.119   0.408   1.332
  221TIP3   OH2  539   5.233   0.333   1.235
  221TIP3    H1  540   5.262   0.242   1.220
  221TIP3    H2  541   5.320   0.379   1.238
  222TIP3   OH2  542   5.486   0.442   1.266
  222TIP3    H1  543   5.507   0.351   1.296
  222TIP3    H2  544   5.511   0.492   1.345
  223TIP3   OH2  545   6.566   0.664   1.659
  223TIP3    H1  546   6.496   0.632   1.600
  223TIP3    H2  547   6.548   0.760   1.650
  224TIP3   OH2  548   6.903   0.886   1.561
  224TIP3    H1  549   6.987   0.891   1.610
  224TIP3    H2  550   6.883   0.792   1.571
  225TIP3   OH2  551   2.627   1.573   2.158
  225TIP3    H1  552   2.570   1.498   2.130
  225TIP3    H2  553   2.599   1.641   2.094
  226TIP3   OH2  554   2.845   1.879   2.199
  226TIP3    H1  555   2.840   1.785   2.223
  226TIP3    H2  556   2.761   1.911   2.239
  227TIP3   OH2  557   2.530   2.234   2.292
  227TIP3    H1  558   2.529   2.256   2.197
  227TIP3    H2  559   2.611   2.280   2.321
  228TIP3   OH2  560   2.875   1.587   2.241
  228TIP3    H1  561   2.776   1.597   2.245
  228TIP3    H2  562   2.880   1.535   2.160
  229TIP3   OH2  563   2.371   1.922   2.154
  229TIP3    H1  564   2.283   1.880   2.147
  229TIP3    H2  565   2.365   1.995   2.088
  230TIP3   OH2  566   1.642   1.896   2.720
  230TIP3    H1  567   1.724   1.891   2.771
  230TIP3    H2  568   1.655   1.821   2.662
  231TIP3   OH2  569   2.283   1.804   2.482
  231TIP3    H1  570   2.276   1.733   2.549
  231TIP3    H2  571   2.364   1.850   2.510
  232TIP3   OH2  572   2.294   1.388   2.779
  232TIP3    H1  573   2.372   1.364   2.728
  232TIP3    H2  574   2.231   1.317   2.762
  233TIP3   OH2  575   2.527   1.062   2.787
  233TIP3    H1  576   2.530   0.976   2.742
  233TIP3    H2  577   2.592   1.114   2.739
  234TIP3   OH2  578   2.528   1.309   2.459
  234TIP3    H1  579   2.473   1.359   2.395
  234TIP3    H2  580   2.618   1.333   2.427
  235TIP3   OH2  581   2.701   1.943   1.692
  235TIP3    H1  582   2.648   1.993   1.755
  235TIP3    H2  583   2.707   2.006   1.619
  236TIP3   OH2  584   2.663   2.013   1.978
  236TIP3    H1  585   2.629   1.923   1.961
  236TIP3    H2  586   2.749   1.992   2.017
  237TIP3   OH2  587   2.716   1.683   2.534
  237TIP3    H1  588   2.645   1.689   2.602
  237TIP3    H2  589   2.757   1.771   2.542
  238TIP3   OH2  590   2.534   1.763   1.987
  238TIP3    H1  591   2.480   1.811   2.052
  238TIP3    H2  592   2.465   1.724   1.931
  239TIP3   OH2  593   2.777   1.357   2.371
  239TIP3    H1  594   2.852   1.293   2.383
  239TIP3    H2  595   2.821   1.435   2.331
  240TIP3   OH2  596   2.931   1.144   2.405
  240TIP3    H1  597   2.881   1.071   2.442
  240TIP3    H2  598   3.020   1.102   2.408
  241TIP3   OH2  599   3.177   0.569   2.673
  241TIP3    H1  600   3.229   0.487   2.660
  241TIP3    H2  601   3.204   0.621   2.597
  242TIP3   OH2  602   1.952   1.966   2.416
  242TIP3    H1  603   2.004   1.951   2.498
  242TIP3    H2  604   2.022   1.992   2.353
  243TIP3   OH2  605   2.142   2.091   2.258
  243TIP3    H1  606   2.213   2.026   2.247
  243TIP3    H2  607   2.183   2.152   2.322
  244TIP3   OH2  608   2.352   2.088   1.939
  244TIP3    H1  609   2.282   2.155   1.921
  244TIP3    H2  610   2.399   2.091   1.852
  245TIP3   OH2  611   2.604   1.967   2.300
  245TIP3    H1  612   2.522   1.933   2.257
  245TIP3    H2  613   2.584   2.062   2.299
  246TIP3   OH2  614   3.864   1.360   1.439
  246TIP3    H1  615   3.902   1.350   1.528
  246TIP3    H2  616   3.834   1.268   1.425
  247TIP3   OH2  617   3.158   1.237   1.796
  247TIP3    H1  618   3.180   1.176   1.869
  247TIP3    H2  619   3.244   1.278   1.780
  248TIP3   OH2  620   4.100   1.630   1.131
  248TIP3    H1  621   4.105   1.564   1.200
  248TIP3    H2  622   4.132   1.710   1.176
  249TIP3   OH2  623   3.152   1.610   1.587
  249TIP3    H1  624   3.118   1.571   1.505
  249TIP3    H2  625   3.242   1.635   1.561
  250TIP3   OH2  626   3.742   2.106   1.149
  250TIP3    H1  627   3.787   2.039   1.093
  250TIP3    H2  628   3.752   2.068   1.237
  251TIP3   OH2  629   3.662   1.560   1.489
  251TIP3    H1  630   3.711   1.486   1.448
  251TIP3    H2  631   3.741   1.612   1.516
  252TIP3   OH2  632   4.670   0.883   1.488
  252TIP3    H1  633   4.700   0.964   1.532
  252TIP3    H2  634   4.698   0.901   1.396
  253TIP3   OH2  635   4.078   1.060   1.536
  253TIP3    H1  636   4.127   0.977   1.548
  253TIP3    H2  637   4.073   1.066   1.440
  254TIP3   OH2  638   4.745   1.086   1.662
  254TIP3    H1  639   4.664   1.136   1.641
  254TIP3    H2  640   4.764   1.117   1.752
  255TIP3   OH2  641   3.776   1.616   0.951
  255TIP3    H1  642   3.758   1.558   0.875
  255TIP3    H2  643   3.711   1.688   0.941
  256TIP3   OH2  644   3.509   1.479   1.720
  256TIP3    H1  645   3.451   1.546   1.762
  256TIP3    H2  646   3.558   1.532   1.655
  257TIP3   OH2  647   4.316   0.812   1.300
  257TIP3    H1  648   4.369   0.757   1.357
  257TIP3    H2  649   4.366   0.896   1.300
  258TIP3   OH2  650   3.341   1.674   1.826
  258TIP3    H1  651   3.315   1.759   1.783
  258TIP3    H2  652   3.257   1.647   1.866
  259TIP3   OH2  653   4.174   1.878   1.296
  259TIP3    H1  654   4.083   1.872   1.331
  259TIP3    H2  655   4.170   1.963   1.248
  260TIP3   OH2  656   4.466   0.786   1.655
  260TIP3    H1  657   4.380   0.816   1.622
  260TIP3    H2  658   4.527   0.815   1.584
  261TIP3   OH2  659   3.863   1.944   0.971
  261TIP3    H1  660   3.922   1.865   0.962
  261TIP3    H2  661   3.922   2.009   0.926
  262TIP3   OH2  662   4.047   1.765   0.895
  262TIP3    H1  663   4.024   1.700   0.826
  262TIP3    H2  664   4.066   1.707   0.971
  263TIP3   OH2  665   4.401   1.795   1.638
  263TIP3    H1  666   4.394   1.717   1.577
  263TIP3    H2  667   4.387   1.869   1.576
  264TIP3   OH2  668   4.597   1.428   1.481
  264TIP3    H1  669   4.516   1.483   1.485
  264TIP3    H2  670   4.628   1.451   1.390
  265TIP3   OH2  671   4.276   1.310   1.776
  265TIP3    H1  672   4.275   1.393   1.828
  265TIP3    H2  673   4.193   1.320   1.726
  266TIP3   OH2  674   3.393   1.665   1.436
  266TIP3    H1  675   3.394   1.629   1.347
  266TIP3    H2  676   3.486   1.650   1.462
  267TIP3   OH2  677   3.410   1.238   1.634
  267TIP3    H1  678   3.455   1.225   1.550
  267TIP3    H2  679   3.449   1.323   1.665
  268TIP3   OH2  680   3.929   1.877   1.413
  268TIP3    H1  681   3.921   1.958   1.466
  268TIP3    H2  682   3.920   1.805   1.478
  269TIP3   OH2  683   3.550   1.798   1.960
  269TIP3    H1  684   3.492   1.860   2.009
  269TIP3    H2  685   3.482   1.744   1.914
  270TIP3   OH2  686   3.297   1.358   2.057
  270TIP3    H1  687   3.305   1.443   2.105
  270TIP3    H2  688   3.204   1.337   2.074
  271TIP3   OH2  689   3.605   1.831   0.970
  271TIP3    H1  690   3.690   1.877   0.988
  271TIP3    H2  691   3.554   1.900   0.925
  272TIP3   OH2  692   3.341   1.963   2.044
  272TIP3    H1  693   3.305   1.968   1.954
  272TIP3    H2  694   3.262   1.944   2.099
  273TIP3   OH2  695   4.210   1.745   0.276
  273TIP3    H1  696   4.220   1.840   0.289
  273TIP3    H2  697   4.299   1.709   0.295
  274TIP3   OH2  698   4.639   2.137   1.681
  274TIP3    H1  699   4.638   2.040   1.693
  274TIP3    H2  700   4.556   2.162   1.727
  275TIP3   OH2  701   3.745   1.928   1.813
  275TIP3    H1  702   3.747   2.020   1.848
  275TIP3    H2  703   3.678   1.887   1.872
  276TIP3   OH2  704   3.498   2.052   0.774
  276TIP3    H1  705   3.442   2.040   0.696
  276TIP3    H2  706   3.480   2.145   0.798
  277TIP3   OH2  707   3.758   2.018   0.688
  277TIP3    H1  708   3.667   2.016   0.723
  277TIP3    H2  709   3.806   1.962   0.751
  278TIP3   OH2  710   4.529   1.270   1.958
  278TIP3    H1  711   4.452   1.283   1.901
  278TIP3    H2  712   4.545   1.174   1.946
  279TIP3   OH2  713   3.100   1.623   1.997
  279TIP3    H1  714   3.187   1.638   2.041
  279TIP3    H2  715   3.046   1.659   2.068
  280TIP3   OH2  716   4.062   0.631   1.969
  280TIP3    H1  717   4.130   0.588   2.025
  280TIP3    H2  718   3.980   0.585   1.996
  281TIP3   OH2  719   4.295   1.043   1.875
  281TIP3    H1  720   4.251   1.041   1.963
  281TIP3    H2  721   4.275   1.133   1.843
  282TIP3   OH2  722   3.421   1.003   1.783
  282TIP3    H1  723   3.413   1.045   1.870
  282TIP3    H2  724   3.431   1.081   1.724
  283TIP3   OH2  725   4.006   1.272   2.119
  283TIP3    H1  726   3.985   1.197   2.179
  283TIP3    H2  727   4.101   1.285   2.138
  284TIP3   OH2  728   3.259   1.056   2.003
  284TIP3    H1  729   3.314   1.115   2.056
  284TIP3    H2  730   3.243   0.982   2.064
  285TIP3   OH2  731   3.989   1.271   1.679
  285TIP3    H1  732   4.027   1.197   1.626
  285TIP3    H2  733   3.976   1.224   1.764
  286TIP3   OH2  734   4.160   0.795   1.563
  286TIP3    H1  735   4.129   0.807   1.655
  286TIP3    H2  736   4.083   0.755   1.520
  287TIP3   OH2  737   4.327   2.490   1.780
  287TIP3    H1  738   4.327   2.512   1.685
  287TIP3    H2  739   4.406   2.538   1.810
  288TIP3   OH2  740   3.292   1.602   2.203
  288TIP3    H1  741   3.373   1.631   2.250
  288TIP3    H2  742   3.229   1.604   2.278
  289TIP3   OH2  743   3.789   1.107   1.479
  289TIP3    H1  744   3.719   1.040   1.469
  289TIP3    H2  745   3.809   1.094   1.573
  290TIP3   OH2  746   3.728   0.947   1.841
  290TIP3    H1  747   3.684   0.954   1.753
  290TIP3    H2  748   3.795   1.017   1.839
  291TIP3   OH2  749   4.367   1.578   1.474
  291TIP3    H1  750   4.394   1.626   1.392
  291TIP3    H2  751   4.282   1.537   1.446
  292TIP3   OH2  752   3.853   1.652   1.844
  292TIP3    H1  753   3.892   1.637   1.932
  292TIP3    H2  754   3.829   1.746   1.847
  293TIP3   OH2  755   3.042   1.284   2.158
  293TIP3    H1  756   3.087   1.288   2.245
  293TIP3    H2  757   3.019   1.188   2.154
  294TIP3   OH2  758   3.761   1.396   2.150
  294TIP3    H1  759   3.711   1.335   2.094
  294TIP3    H2  760   3.853   1.366   2.130
  295TIP3   OH2  761   4.023   1.910   1.739
  295TIP3    H1  762   3.927   1.919   1.747
  295TIP3    H2  763   4.053   1.966   1.814
  296TIP3   OH2  764   4.652   1.846   1.726
  296TIP3    H1  765   4.554   1.841   1.717
  296TIP3    H2  766   4.678   1.816   1.636
  297TIP3   OH2  767   4.133   1.801   0.540
  297TIP3    H1  768   4.130   1.727   0.601
  297TIP3    H2  769   4.130   1.755   0.454
  298TIP3   OH2  770   4.134   1.442   1.392
  298TIP3    H1  771   4.039   1.421   1.400
  298TIP3    H2  772   4.167   1.358   1.353
  299TIP3   OH2  773   3.526   2.007   1.614
  299TIP3    H1  774   3.565   2.082   1.564
  299TIP3    H2  775   3.604   1.978   1.665
  300TIP3   OH2  776   3.915   1.645   1.573
  300TIP3    H1  777   3.910   1.640   1.671
  300TIP3    H2  778   4.000   1.601   1.556
  301TIP3   OH2  779   4.162   2.181   1.623
  301TIP3    H1  780   4.083   2.125   1.610
  301TIP3    H2  781   4.151   2.246   1.550
  302TIP3   OH2  782   4.231   2.023   0.259
  302TIP3    H1  783   4.284   2.103   0.238
  302TIP3    H2  784   4.152   2.064   0.298
  303TIP3   OH2  785   4.023   1.536   0.744
  303TIP3    H1  786   4.067   1.511   0.826
  303TIP3    H2  787   4.088   1.503   0.678
  304TIP3   OH2  788   2.977   1.849   1.816
  304TIP3    H1  789   3.062   1.820   1.781
  304TIP3    H2  790   2.990   1.944   1.830
  305TIP3   OH2  791   4.081   0.852   1.815
  305TIP3    H1  792   4.161   0.895   1.853
  305TIP3    H2  793   4.070   0.775   1.875
  306TIP3   OH2  794   3.943   1.118   1.897
  306TIP3    H1  795   3.960   1.170   1.979
  306TIP3    H2  796   3.990   1.035   1.916
  307TIP3   OH2  797   4.565   1.004   1.877
  307TIP3    H1  798   4.467   0.999   1.881
  307TIP3    H2  799   4.581   0.968   1.789
  308TIP3   OH2  800   4.200   1.191   1.280
  308TIP3    H1  801   4.159   1.110   1.247
  308TIP3    H2  802   4.286   1.158   1.313
  309TIP3   OH2  803   4.183   2.151   1.215
  309TIP3    H1  804   4.141   2.199   1.141
  309TIP3    H2  805   4.278   2.170   1.195
  310TIP3   OH2  806   2.955   2.181   2.196
  310TIP3    H1  807   3.041   2.182   2.244
  310TIP3    H2  808   2.935   2.086   2.194
  311TIP3   OH2  809   3.437   2.149   2.236
  311TIP3    H1  810   3.532   2.132   2.251
  311TIP3    H2  811   3.420   2.090   2.161
  312TIP3   OH2  812   4.077   2.051   1.970
  312TIP3    H1  813   4.068   1.981   2.039
  312TIP3    H2  814   4.154   2.102   2.000
  313TIP3   OH2  815   3.099   1.585   2.400
  313TIP3    H1  816   3.112   1.488   2.407
  313TIP3    H2  817   3.009   1.590   2.361
  314TIP3   OH2  818   3.696   1.670   2.168
  314TIP3    H1  819   3.659   1.686   2.079
  314TIP3    H2  820   3.729   1.578   2.161
  315TIP3   OH2  821   4.185   1.678   1.770
  315TIP3    H1  822   4.262   1.719   1.727
  315TIP3    H2  823   4.119   1.750   1.759
  316TIP3   OH2  824   3.205   1.310   2.380
  316TIP3    H1  825   3.285   1.258   2.364
  316TIP3    H2  826   3.224   1.343   2.471
  317TIP3   OH2  827   3.529   1.196   2.025
  317TIP3    H1  828   3.465   1.269   2.037
  317TIP3    H2  829   3.586   1.231   1.953
  318TIP3   OH2  830   4.055   1.606   2.169
  318TIP3    H1  831   4.140   1.590   2.126
  318TIP3    H2  832   4.056   1.541   2.242
  319TIP3   OH2  833   3.659   0.992   2.167
  319TIP3    H1  834   3.655   0.908   2.119
  319TIP3    H2  835   3.621   1.054   2.101
  320TIP3   OH2  836   3.628   0.745   1.981
  320TIP3    H1  837   3.676   0.818   1.934
  320TIP3    H2  838   3.565   0.721   1.912
  321TIP3   OH2  839   3.695   1.311   1.841
  321TIP3    H1  840   3.782   1.320   1.800
  321TIP3    H2  841   3.645   1.384   1.799
  322TIP3   OH2  842   4.278   1.284   2.226
  322TIP3    H1  843   4.325   1.201   2.236
  322TIP3    H2  844   4.347   1.342   2.192
  323TIP3   OH2  845   4.317   1.535   1.959
  323TIP3    H1  846   4.260   1.589   1.899
  323TIP3    H2  847   4.405   1.555   1.920
  324TIP3   OH2  848   3.527   1.115   2.384
  324TIP3    H1  849   3.467   1.039   2.402
  324TIP3    H2  850   3.573   1.084   2.303
  325TIP3   OH2  851   3.801   0.541   2.038
  325TIP3    H1  852   3.749   0.622   2.021
  325TIP3    H2  853   3.749   0.475   1.989
  326TIP3   OH2  854   3.924   1.051   2.254
  326TIP3    H1  855   3.920   1.040   2.350
  326TIP3    H2  856   3.833   1.024   2.229
  327TIP3   OH2  857   4.164   1.000   2.108
  327TIP3    H1  858   4.089   0.998   2.170
  327TIP3    H2  859   4.238   0.967   2.163
  328TIP3   OH2  860   4.390   0.937   2.260
  328TIP3    H1  861   4.404   0.842   2.279
  328TIP3    H2  862   4.388   0.977   2.349
  329TIP3   OH2  863   3.383   0.889   2.443
  329TIP3    H1  864   3.386   0.796   2.409
  329TIP3    H2  865   3.421   0.876   2.532
  330TIP3   OH2  866   3.889   0.549   2.298
  330TIP3    H1  867   3.964   0.486   2.291
  330TIP3    H2  868   3.856   0.547   2.206
  331TIP3   OH2  869   3.957   0.768   2.453
  331TIP3    H1  870   3.935   0.697   2.389
  331TIP3    H2  871   3.880   0.828   2.446
  332TIP3   OH2  872   4.433   2.247   1.169
  332TIP3    H1  873   4.465   2.281   1.255
  332TIP3    H2  874   4.496   2.286   1.107
  333TIP3   OH2  875   4.465   2.266   1.453
  333TIP3    H1  876   4.425   2.177   1.446
  333TIP3    H2  877   4.543   2.244   1.507
  334TIP3   OH2  878   4.511   1.941   2.024
  334TIP3    H1  879   4.439   1.949   2.089
  334TIP3    H2  880   4.553   2.030   2.029
  335TIP3   OH2  881   4.327   1.486   0.666
  335TIP3    H1  882   4.409   1.526   0.632
  335TIP3    H2  883   4.366   1.422   0.730
  336TIP3   OH2  884   4.454   1.333   0.849
  336TIP3    H1  885   4.399   1.270   0.901
  336TIP3    H2  886   4.521   1.362   0.914
  337TIP3   OH2  887   4.506   1.710   1.280
  337TIP3    H1  888   4.561   1.647   1.229
  337TIP3    H2  889   4.502   1.787   1.219
  338TIP3   OH2  890   4.344   2.013   1.477
  338TIP3    H1  891   4.272   2.056   1.527
  338TIP3    H2  892   4.294   1.964   1.408
  339TIP3   OH2  893   4.303   1.171   1.009
  339TIP3    H1  894   4.261   1.088   0.984
  339TIP3    H2  895   4.258   1.196   1.090
  340TIP3   OH2  896   4.558   1.601   1.851
  340TIP3    H1  897   4.632   1.536   1.844
  340TIP3    H2  898   4.588   1.672   1.791
  341TIP3   OH2  899   4.745   1.410   1.876
  341TIP3    H1  900   4.671   1.357   1.913
  341TIP3    H2  901   4.818   1.346   1.886
  342TIP3   OH2  902   4.428   1.077   1.383
  342TIP3    H1  903   4.514   1.099   1.341
  342TIP3    H2  904   4.445   1.108   1.473
  343TIP3   OH2  905   4.497   1.212   1.620
  343TIP3    H1  906   4.418   1.247   1.666
  343TIP3    H2  907   4.530   1.291   1.573
  344TIP3   OH2  908   3.122   0.955   2.425
  344TIP3    H1  909   3.218   0.936   2.423
  344TIP3    H2  910   3.086   0.872   2.458
  345TIP3   OH2  911   4.948   0.800   2.175
  345TIP3    H1  912   5.006   0.734   2.132
  345TIP3    H2  913   4.922   0.857   2.100
  346TIP3   OH2  914   4.821   0.945   1.982
  346TIP3    H1  915   4.733   0.981   2.002
  346TIP3    H2  916   4.796   0.872   1.922
  347TIP3   OH2  917   4.022   2.113   0.831
  347TIP3    H1  918   4.069   2.087   0.749
  347TIP3    H2  919   4.083   2.177   0.869
  348TIP3   OH2  920   3.120   1.897   2.207
  348TIP3    H1  921   3.023   1.888   2.205
  348TIP3    H2  922   3.138   1.895   2.302
  349TIP3   OH2  923   3.292   1.941   1.756
  349TIP3    H1  924   3.251   2.022   1.719
  349TIP3    H2  925   3.381   1.954   1.718
  350TIP3   OH2  926   3.746   2.192   1.899
  350TIP3    H1  927   3.788   2.192   1.988
  350TIP3    H2  928   3.813   2.242   1.847
  351TIP3   OH2  929   3.925   2.341   1.756
  351TIP3    H1  930   3.997   2.292   1.714
  351TIP3    H2  931   3.976   2.399   1.817
  352TIP3   OH2  932   4.718   0.710   1.859
  352TIP3    H1  933   4.627   0.700   1.826
  352TIP3    H2  934   4.752   0.619   1.845
  353TIP3   OH2  935   2.977   2.195   1.788
  353TIP3    H1  936   2.890   2.231   1.760
  353TIP3    H2  937   2.985   2.238   1.874
  354TIP3   OH2  938   3.212   2.178   1.641
  354TIP3    H1  939   3.126   2.194   1.686
  354TIP3    H2  940   3.193   2.214   1.552
  355TIP3   OH2  941   3.637   2.210   1.443
  355TIP3    H1  942   3.573   2.232   1.373
  355TIP3    H2  943   3.652   2.298   1.483
  356TIP3   OH2  944   3.907   2.150   1.490
  356TIP3    H1  945   3.813   2.168   1.471
  356TIP3    H2  946   3.951   2.225   1.448
  357TIP3   OH2  947   4.114   2.343   1.407
  357TIP3    H1  948   4.100   2.428   1.359
  357TIP3    H2  949   4.141   2.284   1.333
  358TIP3   OH2  950   2.906   2.005   1.517
  358TIP3    H1  951   2.888   1.971   1.606
  358TIP3    H2  952   2.990   1.957   1.495
  359TIP3   OH2  953   3.107   1.863   1.407
  359TIP3    H1  954   3.134   1.772   1.422
  359TIP3    H2  955   3.192   1.908   1.391
  360TIP3   OH2  956   3.358   1.973   1.386
  360TIP3    H1  957   3.401   1.890   1.361
  360TIP3    H2  958   3.401   1.991   1.472
  361TIP3   OH2  959   4.468   0.509   1.406
  361TIP3    H1  960   4.505   0.545   1.322
  361TIP3    H2  961   4.377   0.489   1.382
  362TIP3   OH2  962   4.569   0.600   1.179
  362TIP3    H1  963   4.591   0.538   1.108
  362TIP3    H2  964   4.611   0.683   1.148
  363TIP3   OH2  965   4.165   2.069   0.594
  363TIP3    H1  966   4.155   1.972   0.579
  363TIP3    H2  967   4.118   2.104   0.516
  364TIP3   OH2  968   3.389   0.622   2.396
  364TIP3    H1  969   3.365   0.532   2.426
  364TIP3    H2  970   3.484   0.622   2.423
  365TIP3   OH2  971   3.639   0.610   2.506
  365TIP3    H1  972   3.723   0.584   2.465
  365TIP3    H2  973   3.627   0.540   2.573
  366TIP3   OH2  974   4.451   0.667   2.291
  366TIP3    H1  975   4.473   0.635   2.381
  366TIP3    H2  976   4.539   0.663   2.247
  367TIP3   OH2  977   4.393   2.221   1.784
  367TIP3    H1  978   4.315   2.189   1.736
  367TIP3    H2  979   4.375   2.317   1.785
  368TIP3   OH2  980   5.641   1.599   0.567
  368TIP3    H1  981   5.616   1.690   0.541
  368TIP3    H2  982   5.568   1.549   0.527
  369TIP3   OH2  983   5.657   1.593   0.930
  369TIP3    H1  984   5.687   1.559   1.016
  369TIP3    H2  985   5.615   1.515   0.891
  370TIP3   OH2  986   4.957   1.492   1.299
  370TIP3    H1  987   4.992   1.424   1.359
  370TIP3    H2  988   5.038   1.542   1.279
  371TIP3   OH2  989   5.901   1.890   0.610
  371TIP3    H1  990   5.886   1.823   0.678
  371TIP3    H2  991   5.927   1.967   0.663
  372TIP3   OH2  992   4.928   1.898   1.025
  372TIP3    H1  993   4.920   1.800   1.026
  372TIP3    H2  994   5.025   1.906   1.016
  373TIP3   OH2  995   4.593   1.081   0.882
  373TIP3    H1  996   4.591   1.175   0.859
  373TIP3    H2  997   4.600   1.046   0.792
  374TIP3   OH2  998   4.701   1.392   0.978
  374TIP3    H1  999   4.747   1.313   1.013
  374TIP3    H2 1000   4.737   1.398   0.888
  375TIP3   OH2 1001   5.544   2.350   0.626
  375TIP3    H1 1002   5.595   2.281   0.579
  375TIP3    H2 1003   5.545   2.319   0.717
  376TIP3   OH2 1004   5.457   1.818   0.978
  376TIP3    H1 1005   5.492   1.741   0.931
  376TIP3    H2 1006   5.542   1.861   1.002
  377TIP3   OH2 1007   6.428   1.170   1.012
  377TIP3    H1 1008   6.490   1.219   1.069
  377TIP3    H2 1009   6.415   1.235   0.941
  378TIP3   OH2 1010   5.869   1.321   1.011
  378TIP3    H1 1011   5.907   1.234   1.032
  378TIP3    H2 1012   5.839   1.307   0.919
  379TIP3   OH2 1013   5.199   0.976   0.979
  379TIP3    H1 1014   5.183   1.051   0.917
  379TIP3    H2 1015   5.149   0.906   0.933
  380TIP3   OH2 1016   4.839   1.182   1.088
  380TIP3    H1 1017   4.925   1.160   1.129
  380TIP3    H2 1018   4.842   1.123   1.009
  381TIP3   OH2 1019   5.281   1.380   0.877
  381TIP3    H1 1020   5.375   1.353   0.888
  381TIP3    H2 1021   5.241   1.296   0.844
  382TIP3   OH2 1022   6.553   1.367   1.150
  382TIP3    H1 1023   6.465   1.409   1.140
  382TIP3    H2 1024   6.562   1.368   1.247
  383TIP3   OH2 1025   5.202   0.962   1.411
  383TIP3    H1 1026   5.143   0.999   1.343
  383TIP3    H2 1027   5.150   0.982   1.492
  384TIP3   OH2 1028   5.559   1.820   0.416
  384TIP3    H1 1029   5.507   1.788   0.340
  384TIP3    H2 1030   5.509   1.901   0.440
  385TIP3   OH2 1031   5.310   1.737   1.209
  385TIP3    H1 1032   5.246   1.801   1.246
  385TIP3    H2 1033   5.351   1.789   1.137
  386TIP3   OH2 1034   5.074   1.077   1.197
  386TIP3    H1 1035   5.137   1.150   1.217
  386TIP3    H2 1036   5.120   1.036   1.120
  387TIP3   OH2 1037   5.136   1.930   1.305
  387TIP3    H1 1038   5.110   2.014   1.263
  387TIP3    H2 1039   5.057   1.915   1.361
  388TIP3   OH2 1040   4.549   1.618   0.556
  388TIP3    H1 1041   4.504   1.630   0.470
  388TIP3    H2 1042   4.565   1.708   0.586
  389TIP3   OH2 1043   5.974   2.135   0.779
  389TIP3    H1 1044   5.884   2.127   0.820
  389TIP3    H2 1045   5.965   2.222   0.735
  390TIP3   OH2 1046   6.236   1.044   1.163
  390TIP3    H1 1047   6.153   1.069   1.119
  390TIP3    H2 1048   6.302   1.074   1.097
  391TIP3   OH2 1049   5.568   0.714   1.136
  391TIP3    H1 1050   5.549   0.620   1.119
  391TIP3    H2 1051   5.485   0.741   1.180
  392TIP3   OH2 1052   5.678   2.181   0.458
  392TIP3    H1 1053   5.729   2.101   0.433
  392TIP3    H2 1054   5.736   2.250   0.417
  393TIP3   OH2 1055   5.823   1.966   0.356
  393TIP3    H1 1056   5.765   1.893   0.331
  393TIP3    H2 1057   5.853   1.935   0.445
  394TIP3   OH2 1058   6.199   2.052   1.123
  394TIP3    H1 1059   6.187   1.973   1.065
  394TIP3    H2 1060   6.181   2.126   1.061
  395TIP3   OH2 1061   5.490   1.457   0.373
  395TIP3    H1 1062   5.406   1.504   0.354
  395TIP3    H2 1063   5.525   1.443   0.283
  396TIP3   OH2 1064   6.391   1.682   0.961
  396TIP3    H1 1065   6.309   1.735   0.974
  396TIP3    H2 1066   6.419   1.714   0.873
  397TIP3   OH2 1067   5.828   1.542   0.383
  397TIP3    H1 1068   5.756   1.560   0.448
  397TIP3    H2 1069   5.904   1.533   0.442
  398TIP3   OH2 1070   6.073   1.567   1.261
  398TIP3    H1 1071   6.069   1.650   1.312
  398TIP3    H2 1072   5.986   1.570   1.216
  399TIP3   OH2 1073   5.071   1.528   0.769
  399TIP3    H1 1074   5.032   1.472   0.699
  399TIP3    H2 1075   5.147   1.473   0.798
  400TIP3   OH2 1076   5.198   1.936   0.918
  400TIP3    H1 1077   5.176   1.889   0.836
  400TIP3    H2 1078   5.288   1.903   0.936
  401TIP3   OH2 1079   5.208   1.494   1.126
  401TIP3    H1 1080   5.237   1.474   1.034
  401TIP3    H2 1081   5.249   1.581   1.143
  402TIP3   OH2 1082   5.732   2.133   0.900
  402TIP3    H1 1083   5.717   2.212   0.954
  402TIP3    H2 1084   5.718   2.060   0.963
  403TIP3   OH2 1085   5.342   2.053   1.447
  403TIP3    H1 1086   5.283   2.116   1.493
  403TIP3    H2 1087   5.277   1.999   1.398
  404TIP3   OH2 1088   5.098   1.610   1.549
  404TIP3    H1 1089   5.101   1.696   1.594
  404TIP3    H2 1090   5.003   1.592   1.549
  405TIP3   OH2 1091   5.420   2.065   0.454
  405TIP3    H1 1092   5.495   2.123   0.477
  405TIP3    H2 1093   5.357   2.127   0.414
  406TIP3   OH2 1094   5.138   2.224   1.533
  406TIP3    H1 1095   5.104   2.219   1.441
  406TIP3    H2 1096   5.058   2.201   1.586
  407TIP3   OH2 1097   4.965   1.380   0.561
  407TIP3    H1 1098   4.895   1.434   0.517
  407TIP3    H2 1099   4.908   1.306   0.591
  408TIP3   OH2 1100   4.716   1.752   1.480
  408TIP3    H1 1101   4.655   1.728   1.408
  408TIP3    H2 1102   4.754   1.665   1.506
  409TIP3   OH2 1103   4.570   1.941   1.120
  409TIP3    H1 1104   4.665   1.933   1.102
  409TIP3    H2 1105   4.567   2.025   1.169
  410TIP3   OH2 1106   6.436   2.394   1.167
  410TIP3    H1 1107   6.435   2.297   1.182
  410TIP3    H2 1108   6.353   2.419   1.213
  411TIP3   OH2 1109   5.542   2.182   1.303
  411TIP3    H1 1110   5.542   2.275   1.336
  411TIP3    H2 1111   5.471   2.143   1.358
  412TIP3   OH2 1112   5.295   2.309   0.255
  412TIP3    H1 1113   5.254   2.292   0.169
  412TIP3    H2 1114   5.270   2.402   0.273
  413TIP3   OH2 1115   4.739   2.162   0.638
  413TIP3    H1 1116   4.787   2.151   0.723
  413TIP3    H2 1117   4.685   2.081   0.639
  414TIP3   OH2 1118   5.484   2.224  -0.077
  414TIP3    H1 1119   5.555   2.172  -0.120
  414TIP3    H2 1120   5.524   2.236   0.011
  415TIP3   OH2 1121   5.554   2.264   0.182
  415TIP3    H1 1122   5.463   2.268   0.221
  415TIP3    H2 1123   5.604   2.221   0.253
  416TIP3   OH2 1124   6.327   1.530   1.441
  416TIP3    H1 1125   6.245   1.541   1.391
  416TIP3    H2 1126   6.344   1.434   1.429
  417TIP3   OH2 1127   4.921   1.935   1.473
  417TIP3    H1 1128   4.973   1.916   1.554
  417TIP3    H2 1129   4.848   1.870   1.479
  418TIP3   OH2 1130   5.319   0.761   1.251
  418TIP3    H1 1131   5.229   0.729   1.227
  418TIP3    H2 1132   5.294   0.844   1.295
  419TIP3   OH2 1133   5.854   0.881   1.452
  419TIP3    H1 1134   5.924   0.850   1.514
  419TIP3    H2 1135   5.771   0.859   1.499
  420TIP3   OH2 1136   6.097   1.304   1.367
  420TIP3    H1 1137   6.047   1.298   1.452
  420TIP3    H2 1138   6.069   1.390   1.331
  421TIP3   OH2 1139   5.253   1.271   1.272
  421TIP3    H1 1140   5.202   1.294   1.353
  421TIP3    H2 1141   5.239   1.352   1.217
  422TIP3   OH2 1142   5.134   1.161   0.792
  422TIP3    H1 1143   5.038   1.147   0.796
  422TIP3    H2 1144   5.152   1.127   0.701
  423TIP3   OH2 1145   5.586   1.271   0.551
  423TIP3    H1 1146   5.532   1.339   0.504
  423TIP3    H2 1147   5.636   1.236   0.475
  424TIP3   OH2 1148   5.802   1.526   1.602
  424TIP3    H1 1149   5.780   1.452   1.662
  424TIP3    H2 1150   5.897   1.539   1.621
  425TIP3   OH2 1151   5.792   1.272   0.745
  425TIP3    H1 1152   5.718   1.305   0.690
  425TIP3    H2 1153   5.805   1.186   0.699
  426TIP3   OH2 1154   5.071   1.304   1.481
  426TIP3    H1 1155   5.102   1.366   1.549
  426TIP3    H2 1156   5.061   1.221   1.532
  427TIP3   OH2 1157   4.684   0.809   1.056
  427TIP3    H1 1158   4.741   0.855   1.121
  427TIP3    H2 1159   4.703   0.861   0.976
  428TIP3   OH2 1160   5.798   1.522   1.177
  428TIP3    H1 1161   5.828   1.449   1.118
  428TIP3    H2 1162   5.768   1.470   1.255
  429TIP3   OH2 1163   5.453   0.999   0.852
  429TIP3    H1 1164   5.374   0.987   0.908
  429TIP3    H2 1165   5.525   0.978   0.912
  430TIP3   OH2 1166   4.888   1.023   0.873
  430TIP3    H1 1167   4.825   1.061   0.807
  430TIP3    H2 1168   4.928   0.949   0.824
  431TIP3   OH2 1169   5.178   1.050   0.548
  431TIP3    H1 1170   5.275   1.034   0.543
  431TIP3    H2 1171   5.152   1.056   0.456
  432TIP3   OH2 1172   5.945   1.055   1.047
  432TIP3    H1 1173   5.915   1.068   1.140
  432TIP3    H2 1174   5.875   0.994   1.015
  433TIP3   OH2 1175   6.123   2.746   1.266
  433TIP3    H1 1176   6.121   2.768   1.172
  433TIP3    H2 1177   6.201   2.797   1.297
  434TIP3   OH2 1178   5.082   1.856   1.691
  434TIP3    H1 1179   5.163   1.886   1.737
  434TIP3    H2 1180   5.018   1.856   1.765
  435TIP3   OH2 1181   5.551   1.313   0.947
  435TIP3    H1 1182   5.607   1.259   0.891
  435TIP3    H2 1183   5.560   1.269   1.033
  436TIP3   OH2 1184   5.070   0.797   0.815
  436TIP3    H1 1185   5.054   0.709   0.854
  436TIP3    H2 1186   5.132   0.778   0.743
  437TIP3   OH2 1187   5.524   1.202   1.237
  437TIP3    H1 1188   5.435   1.241   1.248
  437TIP3    H2 1189   5.582   1.264   1.286
  438TIP3   OH2 1190   5.262   1.606   0.329
  438TIP3    H1 1191   5.196   1.533   0.321
  438TIP3    H2 1192   5.244   1.636   0.421
  439TIP3   OH2 1193   6.163   1.832   0.961
  439TIP3    H1 1194   6.185   1.881   0.879
  439TIP3    H2 1195   6.076   1.792   0.939
  440TIP3   OH2 1196   5.663   1.916   1.326
  440TIP3    H1 1197   5.681   1.891   1.417
  440TIP3    H2 1198   5.622   2.004   1.335
  441TIP3   OH2 1199   4.958   1.624   1.008
  441TIP3    H1 1200   4.989   1.594   0.920
  441TIP3    H2 1201   4.985   1.550   1.064
  442TIP3   OH2 1202   5.415   1.750   0.151
  442TIP3    H1 1203   5.367   1.836   0.160
  442TIP3    H2 1204   5.359   1.693   0.209
  443TIP3   OH2 1205   4.829   1.543   1.620
  443TIP3    H1 1206   4.855   1.527   1.713
  443TIP3    H2 1207   4.765   1.472   1.604
  444TIP3   OH2 1208   5.557   1.652   1.639
  444TIP3    H1 1209   5.500   1.595   1.585
  444TIP3    H2 1210   5.646   1.620   1.612
  445TIP3   OH2 1211   5.823   2.176   1.221
  445TIP3    H1 1212   5.726   2.172   1.232
  445TIP3    H2 1213   5.849   2.227   1.301
  446TIP3   OH2 1214   6.449   2.103   1.212
  446TIP3    H1 1215   6.351   2.098   1.205
  446TIP3    H2 1216   6.474   2.074   1.122
  447TIP3   OH2 1217   5.939   2.051   0.035
  447TIP3    H1 1218   5.910   2.019   0.121
  447TIP3    H2 1219   5.869   2.016  -0.024
  448TIP3   OH2 1220   5.925   1.698   0.882
  448TIP3    H1 1221   5.831   1.672   0.895
  448TIP3    H2 1222   5.959   1.618   0.838
  449TIP3   OH2 1223   5.053   1.922   0.631
  449TIP3    H1 1224   5.054   2.003   0.577
  449TIP3    H2 1225   4.958   1.904   0.636
  450TIP3   OH2 1226   4.657   1.291   0.320
  450TIP3    H1 1227   4.712   1.366   0.354
  450TIP3    H2 1228   4.643   1.244   0.404
  451TIP3   OH2 1229   5.199   1.692   0.578
  451TIP3    H1 1230   5.160   1.780   0.596
  451TIP3    H2 1231   5.159   1.639   0.649
  452TIP3   OH2 1232   5.322   2.267   1.101
  452TIP3    H1 1233   5.362   2.339   1.048
  452TIP3    H2 1234   5.399   2.233   1.148
  453TIP3   OH2 1235   4.974   2.161   0.484
  453TIP3    H1 1236   4.888   2.170   0.529
  453TIP3    H2 1237   5.006   2.254   0.486
  454TIP3   OH2 1238   5.714   1.902   1.057
  454TIP3    H1 1239   5.705   1.899   1.155
  454TIP3    H2 1240   5.792   1.846   1.043
  455TIP3   OH2 1241   5.732   1.836  -0.023
  455TIP3    H1 1242   5.780   1.794   0.051
  455TIP3    H2 1243   5.655   1.873   0.022
  456TIP3   OH2 1244   5.961   2.437   1.109
  456TIP3    H1 1245   5.882   2.379   1.101
  456TIP3    H2 1246   5.945   2.501   1.036
  457TIP3   OH2 1247   6.002   2.273  -0.184
  457TIP3    H1 1248   6.060   2.330  -0.236
  457TIP3    H2 1249   5.922   2.329  -0.173
  458TIP3   OH2 1250   5.047   1.046   1.629
  458TIP3    H1 1251   4.950   1.049   1.642
  458TIP3    H2 1252   5.074   0.984   1.698
  459TIP3   OH2 1253   5.861   1.726   0.188
  459TIP3    H1 1254   5.835   1.660   0.256
  459TIP3    H2 1255   5.941   1.764   0.228
  460TIP3   OH2 1256   4.759   2.132   1.261
  460TIP3    H1 1257   4.811   2.053   1.284
  460TIP3    H2 1258   4.796   2.196   1.323
  461TIP3   OH2 1259   5.040   1.779  -0.065
  461TIP3    H1 1260   5.102   1.705  -0.080
  461TIP3    H2 1261   5.023   1.773   0.031
  462TIP3   OH2 1262   4.999   1.777   0.211
  462TIP3    H1 1263   5.067   1.748   0.273
  462TIP3    H2 1264   5.006   1.875   0.218
  463TIP3   OH2 1265   4.766   1.512   0.427
  463TIP3    H1 1266   4.695   1.536   0.491
  463TIP3    H2 1267   4.754   1.582   0.360
  464TIP3   OH2 1268   5.881   1.112   1.307
  464TIP3    H1 1269   5.963   1.147   1.345
  464TIP3    H2 1270   5.867   1.031   1.360
  465TIP3   OH2 1271   5.265   1.975   0.166
  465TIP3    H1 1272   5.179   2.008   0.198
  465TIP3    H2 1273   5.279   2.032   0.089
  466TIP3   OH2 1274   5.448   1.028   0.575
  466TIP3    H1 1275   5.506   1.107   0.570
  466TIP3    H2 1276   5.455   1.007   0.671
  467TIP3   OH2 1277   5.720   1.360   1.384
  467TIP3    H1 1278   5.740   1.413   1.463
  467TIP3    H2 1279   5.777   1.282   1.397
  468TIP3   OH2 1280   5.003   2.050   0.229
  468TIP3    H1 1281   4.976   2.120   0.166
  468TIP3    H2 1282   4.990   2.095   0.315
  469TIP3   OH2 1283   6.363   1.267   1.351
  469TIP3    H1 1284   6.266   1.265   1.366
  469TIP3    H2 1285   6.368   1.207   1.275
  470TIP3   OH2 1286   6.009   1.462   0.752
  470TIP3    H1 1287   5.935   1.398   0.753
  470TIP3    H2 1288   6.077   1.411   0.801
  471TIP3   OH2 1289   4.726   1.695   0.222
  471TIP3    H1 1290   4.801   1.757   0.232
  471TIP3    H2 1291   4.763   1.635   0.155
  472TIP3   OH2 1292   5.979   2.407   0.702
  472TIP3    H1 1293   5.936   2.452   0.627
  472TIP3    H2 1294   6.073   2.426   0.680
  473TIP3   OH2 1295   5.054   0.681   1.231
  473TIP3    H1 1296   5.025   0.643   1.145
  473TIP3    H2 1297   5.046   0.603   1.290
  474TIP3   OH2 1298   4.603   1.910   0.616
  474TIP3    H1 1299   4.519   1.930   0.660
  474TIP3    H2 1300   4.582   1.938   0.525
  475TIP3   OH2 1301   4.750   2.434   1.682
  475TIP3    H1 1302   4.837   2.433   1.727
  475TIP3    H2 1303   4.730   2.339   1.678
  476TIP3   OH2 1304   5.236   2.405   1.724
  476TIP3    H1 1305   5.330   2.383   1.732
  476TIP3    H2 1306   5.210   2.348   1.649
  477TIP3   OH2 1307   5.216   1.982  -0.125
  477TIP3    H1 1308   5.146   1.915  -0.111
  477TIP3    H2 1309   5.279   1.934  -0.180
  478TIP3   OH2 1310   5.872   2.309   1.458
  478TIP3    H1 1311   5.863   2.238   1.526
  478TIP3    H2 1312   5.951   2.358   1.489
  479TIP3   OH2 1313   5.702   2.085  -0.151
  479TIP3    H1 1314   5.708   1.992  -0.177
  479TIP3    H2 1315   5.731   2.127  -0.233
  480TIP3   OH2 1316   4.882   1.843   1.881
  480TIP3    H1 1317   4.900   1.747   1.883
  480TIP3    H2 1318   4.794   1.845   1.837
  481TIP3   OH2 1319   4.859   1.491   0.067
  481TIP3    H1 1320   4.918   1.464   0.138
  481TIP3    H2 1321   4.920   1.526   0.000
  482TIP3   OH2 1322   5.490   1.927   1.654
  482TIP3    H1 1323   5.449   1.941   1.567
  482TIP3    H2 1324   5.522   1.834   1.648
  483TIP3   OH2 1325   5.267   1.628  -0.081
  483TIP3    H1 1326   5.296   1.693  -0.015
  483TIP3    H2 1327   5.353   1.620  -0.127
  484TIP3   OH2 1328   5.984   1.934   1.259
  484TIP3    H1 1329   6.057   1.982   1.215
  484TIP3    H2 1330   5.911   1.997   1.247
  485TIP3   OH2 1331   5.000   1.575   1.862
  485TIP3    H1 1332   5.076   1.520   1.840
  485TIP3    H2 1333   5.025   1.608   1.951
  486TIP3   OH2 1334   5.086   1.402   0.308
  486TIP3    H1 1335   5.048   1.367   0.391
  486TIP3    H2 1336   5.073   1.328   0.244
  487TIP3   OH2 1337   5.335   1.461   1.524
  487TIP3    H1 1338   5.259   1.523   1.528
  487TIP3    H2 1339   5.384   1.494   1.445
  488TIP3   OH2 1340   5.853   1.864   1.659
  488TIP3    H1 1341   5.935   1.845   1.612
  488TIP3    H2 1342   5.853   1.796   1.728
  489TIP3   OH2 1343   5.458   1.249   1.653
  489TIP3    H1 1344   5.460   1.169   1.596
  489TIP3    H2 1345   5.416   1.315   1.593
  490TIP3   OH2 1346   5.460   1.038   1.458
  490TIP3    H1 1347   5.489   1.079   1.373
  490TIP3    H2 1348   5.367   1.015   1.438
  491TIP3   OH2 1349   5.492   1.575   1.332
  491TIP3    H1 1350   5.573   1.577   1.279
  491TIP3    H2 1351   5.436   1.641   1.287
  492TIP3   OH2 1352   6.073   1.541   1.714
  492TIP3    H1 1353   6.121   1.457   1.723
  492TIP3    H2 1354   6.144   1.600   1.684
  493TIP3   OH2 1355   6.114   1.792   1.448
  493TIP3    H1 1356   6.056   1.844   1.388
  493TIP3    H2 1357   6.201   1.810   1.407
  494TIP3   OH2 1358   5.335   1.366   1.880
  494TIP3    H1 1359   5.267   1.297   1.892
  494TIP3    H2 1360   5.372   1.341   1.793
  495TIP3   OH2 1361   5.595   0.807   1.527
  495TIP3    H1 1362   5.543   0.887   1.502
  495TIP3    H2 1363   5.530   0.735   1.512
  496TIP3   OH2 1364   5.720   1.308   1.740
  496TIP3    H1 1365   5.712   1.296   1.836
  496TIP3    H2 1366   5.630   1.281   1.712
  497TIP3   OH2 1367   5.960   1.255   1.594
  497TIP3    H1 1368   5.884   1.255   1.656
  497TIP3    H2 1369   6.033   1.224   1.651
  498TIP3   OH2 1370   6.186   1.196   1.747
  498TIP3    H1 1371   6.201   1.101   1.765
  498TIP3    H2 1372   6.184   1.234   1.838
  499TIP3   OH2 1373   5.176   1.145   1.932
  499TIP3    H1 1374   5.186   1.056   1.894
  499TIP3    H2 1375   5.212   1.131   2.022
  500TIP3   OH2 1376   5.689   0.810   1.783
  500TIP3    H1 1377   5.757   0.740   1.776
  500TIP3    H2 1378   5.650   0.805   1.693
  501TIP3   OH2 1379   5.754   1.024   1.941
  501TIP3    H1 1380   5.732   0.953   1.876
  501TIP3    H2 1381   5.677   1.085   1.932
  502TIP3   OH2 1382   4.962   2.249   0.042
  502TIP3    H1 1383   5.058   2.251   0.021
  502TIP3    H2 1384   4.925   2.296  -0.033
  503TIP3   OH2 1385   4.462   1.631   0.297
  503TIP3    H1 1386   4.546   1.663   0.258
  503TIP3    H2 1387   4.433   1.569   0.228
  504TIP3   OH2 1388   4.365   2.248   0.668
  504TIP3    H1 1389   4.299   2.183   0.636
  504TIP3    H2 1390   4.412   2.194   0.736
  505TIP3   OH2 1391   4.501   2.108   0.858
  505TIP3    H1 1392   4.494   2.027   0.911
  505TIP3    H2 1393   4.556   2.163   0.917
  506TIP3   OH2 1394   6.233   2.496   0.657
  506TIP3    H1 1395   6.259   2.534   0.742
  506TIP3    H2 1396   6.286   2.547   0.594
  507TIP3   OH2 1397   6.263   2.522   0.939
  507TIP3    H1 1398   6.219   2.434   0.932
  507TIP3    H2 1399   6.337   2.498   0.998
  508TIP3   OH2 1400   6.307   2.199   1.508
  508TIP3    H1 1401   6.235   2.204   1.574
  508TIP3    H2 1402   6.348   2.287   1.516
  509TIP3   OH2 1403   6.306   1.968   0.770
  509TIP3    H1 1404   6.357   1.908   0.713
  509TIP3    H2 1405   6.296   2.046   0.712
  510TIP3   OH2 1406   6.139   2.270   0.963
  510TIP3    H1 1407   6.068   2.312   1.015
  510TIP3    H2 1408   6.088   2.222   0.894
  511TIP3   OH2 1409   6.216   1.431   0.553
  511TIP3    H1 1410   6.162   1.390   0.482
  511TIP3    H2 1411   6.145   1.456   0.616
  512TIP3   OH2 1412   4.693   1.508   1.230
  512TIP3    H1 1413   4.692   1.477   1.136
  512TIP3    H2 1414   4.790   1.510   1.246
  513TIP3   OH2 1415   6.355   1.857   1.337
  513TIP3    H1 1416   6.428   1.792   1.330
  513TIP3    H2 1417   6.385   1.928   1.278
  514TIP3   OH2 1418   6.544   1.667   1.356
  514TIP3    H1 1419   6.469   1.617   1.395
  514TIP3    H2 1420   6.616   1.602   1.373
  515TIP3   OH2 1421   6.221   1.339   0.874
  515TIP3    H1 1422   6.302   1.370   0.831
  515TIP3    H2 1423   6.235   1.366   0.967
  516TIP3   OH2 1424   6.294   1.469   1.107
  516TIP3    H1 1425   6.215   1.499   1.157
  516TIP3    H2 1426   6.322   1.552   1.063
  517TIP3   OH2 1427   4.908   1.195   1.903
  517TIP3    H1 1428   5.006   1.189   1.903
  517TIP3    H2 1429   4.885   1.111   1.946
  518TIP3   OH2 1430   6.738   1.071   1.669
  518TIP3    H1 1431   6.797   1.004   1.630
  518TIP3    H2 1432   6.712   1.124   1.590
  519TIP3   OH2 1433   4.870   0.890   1.246
  519TIP3    H1 1434   4.933   0.815   1.248
  519TIP3    H2 1435   4.932   0.964   1.231
  520TIP3   OH2 1436   4.676   1.161   1.311
  520TIP3    H1 1437   4.722   1.151   1.224
  520TIP3    H2 1438   4.706   1.249   1.335
  521TIP3   OH2 1439   6.618   1.203   1.467
  521TIP3    H1 1440   6.531   1.239   1.495
  521TIP3    H2 1441   6.587   1.132   1.407
  522TIP3   OH2 1442   5.818   2.363   0.322
  522TIP3    H1 1443   5.865   2.350   0.236
  522TIP3    H2 1444   5.867   2.438   0.360
  523TIP3   OH2 1445   4.876   0.743   1.623
  523TIP3    H1 1446   4.826   0.741   1.706
  523TIP3    H2 1447   4.811   0.783   1.563
  524TIP3   OH2 1448   4.918   2.172   1.702
  524TIP3    H1 1449   4.827   2.141   1.683
  524TIP3    H2 1450   4.926   2.151   1.795
  525TIP3   OH2 1451   5.094   2.202   1.249
  525TIP3    H1 1452   5.047   2.277   1.209
  525TIP3    H2 1453   5.181   2.214   1.204
  526TIP3   OH2 1454   5.543   2.448   1.387
  526TIP3    H1 1455   5.585   2.449   1.475
  526TIP3    H2 1456   5.609   2.498   1.334
  527TIP3   OH2 1457   5.721   2.598   1.243
  527TIP3    H1 1458   5.792   2.547   1.201
  527TIP3    H2 1459   5.772   2.655   1.304
  528TIP3   OH2 1460   6.487   0.976   1.362
  528TIP3    H1 1461   6.413   0.974   1.299
  528TIP3    H2 1462   6.545   0.906   1.328
  529TIP3   OH2 1463   4.773   2.461   1.270
  529TIP3    H1 1464   4.685   2.496   1.245
  529TIP3    H2 1465   4.779   2.491   1.361
  530TIP3   OH2 1466   5.010   2.438   1.128
  530TIP3    H1 1467   4.923   2.452   1.173
  530TIP3    H2 1468   4.990   2.471   1.038
  531TIP3   OH2 1469   5.435   2.468   0.926
  531TIP3    H1 1470   5.367   2.488   0.859
  531TIP3    H2 1471   5.448   2.556   0.968
  532TIP3   OH2 1472   5.703   2.409   0.977
  532TIP3    H1 1473   5.608   2.424   0.958
  532TIP3    H2 1474   5.744   2.486   0.933
  533TIP3   OH2 1475   5.915   2.603   0.893
  533TIP3    H1 1476   5.896   2.687   0.846
  533TIP3    H2 1477   5.937   2.542   0.819
  534TIP3   OH2 1478   4.683   2.254   1.018
  534TIP3    H1 1479   4.712   2.229   1.109
  534TIP3    H2 1480   4.755   2.211   0.966
  535TIP3   OH2 1481   4.876   2.126   0.872
  535TIP3    H1 1482   4.893   2.041   0.919
  535TIP3    H2 1483   4.967   2.163   0.867
  536TIP3   OH2 1484   5.142   2.221   0.874
  536TIP3    H1 1485   5.174   2.131   0.859
  536TIP3    H2 1486   5.185   2.241   0.959
  537TIP3   OH2 1487   5.733   0.880   0.972
  537TIP3    H1 1488   5.677   0.825   1.031
  537TIP3    H2 1489   5.762   0.814   0.906
  538TIP3   OH2 1490   4.983   0.567   0.988
  538TIP3    H1 1491   4.895   0.537   0.963
  538TIP3    H2 1492   5.036   0.487   0.973
  539TIP3   OH2 1493   4.473   2.022   0.407
  539TIP3    H1 1494   4.390   1.985   0.371
  539TIP3    H2 1495   4.455   2.116   0.401
  540TIP3   OH2 1496   5.226   2.227  -0.012
  540TIP3    H1 1497   5.318   2.248  -0.043
  540TIP3    H2 1498   5.214   2.145  -0.065
  541TIP3   OH2 1499   5.957   2.330   0.090
  541TIP3    H1 1500   5.965   2.237   0.061
  541TIP3    H2 1501   5.910   2.368   0.014
  542TIP3   OH2 1502   5.176   0.865   1.870
  542TIP3    H1 1503   5.144   0.795   1.929
  542TIP3    H2 1504   5.271   0.867   1.895
  543TIP3   OH2 1505   5.424   0.865   1.989
  543TIP3    H1 1506   5.509   0.840   1.948
  543TIP3    H2 1507   5.414   0.793   2.056
  544TIP3   OH2 1508   4.556   2.061   0.062
  544TIP3    H1 1509   4.537   2.096   0.150
  544TIP3    H2 1510   4.641   2.019   0.074
  545TIP3   OH2 1511   6.246   0.926   1.778
  545TIP3    H1 1512   6.268   0.894   1.868
  545TIP3    H2 1513   6.333   0.917   1.732
  546TIP3   OH2 1514   6.191   2.478   1.269
  546TIP3    H1 1515   6.112   2.444   1.223
  546TIP3    H2 1516   6.170   2.573   1.272
  547TIP3   OH2 1517   6.753   1.757   0.796
  547TIP3    H1 1518   6.780   1.681   0.852
  547TIP3    H2 1519   6.825   1.819   0.818
  548TIP3   OH2 1520   6.723   2.176   0.515
  548TIP3    H1 1521   6.710   2.082   0.540
  548TIP3    H2 1522   6.819   2.177   0.503
  549TIP3   OH2 1523   7.374   2.574   0.121
  549TIP3    H1 1524   7.356   2.479   0.109
  549TIP3    H2 1525   7.341   2.586   0.211
  550TIP3   OH2 1526   7.105   2.001   0.706
  550TIP3    H1 1527   7.027   2.050   0.741
  550TIP3    H2 1528   7.136   2.064   0.640
  551TIP3   OH2 1529   6.929   2.187   0.790
  551TIP3    H1 1530   6.903   2.274   0.752
  551TIP3    H2 1531   6.850   2.173   0.848
  552TIP3   OH2 1532   7.910   2.292   0.629
  552TIP3    H1 1533   7.823   2.291   0.585
  552TIP3    H2 1534   7.928   2.387   0.619
  553TIP3   OH2 1535   6.991   2.185   0.409
  553TIP3    H1 1536   6.968   2.145   0.323
  553TIP3    H2 1537   7.087   2.184   0.406
  554TIP3   OH2 1538   7.462   2.402   0.368
  554TIP3    H1 1539   7.495   2.489   0.399
  554TIP3    H2 1540   7.499   2.344   0.437
  555TIP3   OH2 1541   7.137   2.306   0.934
  555TIP3    H1 1542   7.079   2.371   0.980
  555TIP3    H2 1543   7.069   2.255   0.885
  556TIP3   OH2 1544   6.893   1.869   1.032
  556TIP3    H1 1545   6.899   1.952   1.083
  556TIP3    H2 1546   6.799   1.848   1.045
  557TIP3   OH2 1547   6.935   2.479   1.021
  557TIP3    H1 1548   6.899   2.476   0.930
  557TIP3    H2 1549   6.856   2.457   1.075
  558TIP3   OH2 1550   6.515   2.008   0.967
  558TIP3    H1 1551   6.446   1.985   0.900
  558TIP3    H2 1552   6.548   1.920   0.995
  559TIP3   OH2 1553   6.368   2.197   0.606
  559TIP3    H1 1554   6.463   2.204   0.592
  559TIP3    H2 1555   6.349   2.281   0.652
  560TIP3   OH2 1556   8.233   2.663   0.655
  560TIP3    H1 1557   8.235   2.566   0.667
  560TIP3    H2 1558   8.147   2.683   0.699
  561TIP3   OH2 1559   7.340   2.433   0.794
  561TIP3    H1 1560   7.342   2.526   0.823
  561TIP3    H2 1561   7.265   2.398   0.848
  562TIP3   OH2 1562   6.525   2.427   0.131
  562TIP3    H1 1563   6.571   2.412   0.217
  562TIP3    H2 1564   6.471   2.345   0.127
  563TIP3   OH2 1565   6.719   2.190   0.959
  563TIP3    H1 1566   6.768   2.173   1.042
  563TIP3    H2 1567   6.644   2.127   0.966
  564TIP3   OH2 1568   7.605   1.799   1.096
  564TIP3    H1 1569   7.577   1.718   1.144
  564TIP3    H2 1570   7.701   1.796   1.110
  565TIP3   OH2 1571   6.845   1.554   0.973
  565TIP3    H1 1572   6.884   1.619   1.032
  565TIP3    H2 1573   6.846   1.473   1.028
  566TIP3   OH2 1574   7.922   3.000   0.756
  566TIP3    H1 1575   7.917   3.022   0.661
  566TIP3    H2 1576   7.995   3.057   0.786
  567TIP3   OH2 1577   6.880   2.113   1.177
  567TIP3    H1 1578   6.958   2.145   1.227
  567TIP3    H2 1579   6.814   2.110   1.249
  568TIP3   OH2 1580   7.469   2.178   0.824
  568TIP3    H1 1581   7.461   2.142   0.913
  568TIP3    H2 1582   7.416   2.259   0.830
  569TIP3   OH2 1583   6.737   1.911   0.565
  569TIP3    H1 1584   6.771   1.862   0.487
  569TIP3    H2 1585   6.741   1.843   0.635
  570TIP3   OH2 1586   6.628   1.797   1.105
  570TIP3    H1 1587   6.651   1.785   1.200
  570TIP3    H2 1588   6.562   1.726   1.094
  571TIP3   OH2 1589   7.355   1.910   1.126
  571TIP3    H1 1590   7.303   1.865   1.058
  571TIP3    H2 1591   7.445   1.876   1.106
  572TIP3   OH2 1592   7.638   2.475   0.702
  572TIP3    H1 1593   7.546   2.444   0.703
  572TIP3    H2 1594   7.647   2.508   0.794
  573TIP3   OH2 1595   8.245   2.388   0.697
  573TIP3    H1 1596   8.160   2.370   0.741
  573TIP3    H2 1597   8.240   2.330   0.618
  574TIP3   OH2 1598   6.786   2.204   0.127
  574TIP3    H1 1599   6.789   2.283   0.069
  574TIP3    H2 1600   6.691   2.195   0.141
  575TIP3   OH2 1601   7.119   2.521   0.586
  575TIP3    H1 1602   7.157   2.594   0.534
  575TIP3    H2 1603   7.197   2.491   0.636
  576TIP3   OH2 1604   6.740   2.420  -0.036
  576TIP3    H1 1605   6.657   2.436   0.014
  576TIP3    H2 1606   6.782   2.508  -0.035
  577TIP3   OH2 1607   7.548   2.233   0.570
  577TIP3    H1 1608   7.514   2.222   0.662
  577TIP3    H2 1609   7.627   2.178   0.573
  578TIP3   OH2 1610   7.767   2.697   0.592
  578TIP3    H1 1611   7.694   2.631   0.598
  578TIP3    H2 1612   7.736   2.757   0.521
  579TIP3   OH2 1613   6.849   1.318   1.123
  579TIP3    H1 1614   6.752   1.324   1.129
  579TIP3    H2 1615   6.863   1.236   1.173
  580TIP3   OH2 1616   6.560   2.389   0.746
  580TIP3    H1 1617   6.607   2.310   0.777
  580TIP3    H2 1618   6.586   2.454   0.813
  581TIP3   OH2 1619   7.786   2.683   0.195
  581TIP3    H1 1620   7.736   2.733   0.126
  581TIP3    H2 1621   7.877   2.702   0.166
  582TIP3   OH2 1622   6.414   2.176   0.116
  582TIP3    H1 1623   6.324   2.173   0.151
  582TIP3    H2 1624   6.393   2.188   0.021
  583TIP3   OH2 1625   6.546   2.691   1.166
  583TIP3    H1 1626   6.632   2.689   1.214
  583TIP3    H2 1627   6.523   2.596   1.165
  584TIP3   OH2 1628   7.034   2.662   1.210
  584TIP3    H1 1629   7.127   2.639   1.218
  584TIP3    H2 1630   7.006   2.604   1.137
  585TIP3   OH2 1631   7.669   2.571   0.955
  585TIP3    H1 1632   7.660   2.499   1.021
  585TIP3    H2 1633   7.747   2.620   0.987
  586TIP3   OH2 1634   6.680   2.101   1.366
  586TIP3    H1 1635   6.696   2.005   1.375
  586TIP3    H2 1636   6.591   2.102   1.325
  587TIP3   OH2 1637   7.292   2.185   1.138
  587TIP3    H1 1638   7.240   2.197   1.056
  587TIP3    H2 1639   7.317   2.090   1.135
  588TIP3   OH2 1640   6.800   1.835   1.346
  588TIP3    H1 1641   6.864   1.764   1.338
  588TIP3    H2 1642   6.820   1.866   1.437
  589TIP3   OH2 1643   7.117   1.697   1.019
  589TIP3    H1 1644   7.044   1.762   1.032
  589TIP3    H2 1645   7.170   1.745   0.952
  590TIP3   OH2 1646   7.652   2.118   1.141
  590TIP3    H1 1647   7.740   2.093   1.112
  590TIP3    H2 1648   7.635   2.051   1.210
  591TIP3   OH2 1649   7.276   1.536   1.166
  591TIP3    H1 1650   7.253   1.451   1.125
  591TIP3    H2 1651   7.226   1.598   1.109
  592TIP3   OH2 1652   7.264   1.847   0.855
  592TIP3    H1 1653   7.334   1.845   0.787
  592TIP3    H2 1654   7.199   1.904   0.807
  593TIP3   OH2 1655   7.881   1.791   1.180
  593TIP3    H1 1656   7.909   1.725   1.248
  593TIP3    H2 1657   7.945   1.862   1.196
  594TIP3   OH2 1658   7.898   2.052   0.960
  594TIP3    H1 1659   7.827   2.098   0.914
  594TIP3    H2 1660   7.973   2.062   0.898
  595TIP3   OH2 1661   7.126   1.637   1.375
  595TIP3    H1 1662   7.059   1.566   1.388
  595TIP3    H2 1663   7.169   1.608   1.292
  596TIP3   OH2 1664   7.526   1.593   1.256
  596TIP3    H1 1665   7.500   1.575   1.348
  596TIP3    H2 1666   7.442   1.569   1.211
  597TIP3   OH2 1667   6.980   1.410   1.419
  597TIP3    H1 1668   6.968   1.315   1.398
  597TIP3    H2 1669   7.006   1.402   1.512
  598TIP3   OH2 1670   7.567   1.304   1.433
  598TIP3    H1 1671   7.564   1.247   1.355
  598TIP3    H2 1672   7.483   1.357   1.427
  599TIP3   OH2 1673   6.161   2.511   0.154
  599TIP3    H1 1674   6.094   2.447   0.120
  599TIP3    H2 1675   6.208   2.454   0.219
  600TIP3   OH2 1676   6.296   2.369   0.347
  600TIP3    H1 1677   6.287   2.287   0.398
  600TIP3    H2 1678   6.349   2.423   0.407
  601TIP3   OH2 1679   8.054   2.778   0.153
  601TIP3    H1 1680   8.059   2.811   0.245
  601TIP3    H2 1681   8.104   2.848   0.107
  602TIP3   OH2 1682   8.060   2.782   0.434
  602TIP3    H1 1683   8.020   2.693   0.431
  602TIP3    H2 1684   8.140   2.763   0.484
  603TIP3   OH2 1685   8.103   2.453   0.992
  603TIP3    H1 1686   8.031   2.459   1.059
  603TIP3    H2 1687   8.143   2.542   1.000
  604TIP3   OH2 1688   7.948   2.525   0.479
  604TIP3    H1 1689   7.882   2.585   0.521
  604TIP3    H2 1690   7.892   2.486   0.408
  605TIP3   OH2 1691   6.491   1.759   0.717
  605TIP3    H1 1692   6.507   1.718   0.630
  605TIP3    H2 1693   6.583   1.771   0.749
  606TIP3   OH2 1694   6.709   1.456   1.398
  606TIP3    H1 1695   6.806   1.447   1.394
  606TIP3    H2 1696   6.685   1.368   1.434
  607TIP3   OH2 1697   6.470   1.421   0.782
  607TIP3    H1 1698   6.443   1.453   0.694
  607TIP3    H2 1699   6.479   1.504   0.832
  608TIP3   OH2 1700   6.715   2.426   1.189
  608TIP3    H1 1701   6.623   2.398   1.170
  608TIP3    H2 1702   6.721   2.406   1.283
  609TIP3   OH2 1703   6.892   2.457   0.736
  609TIP3    H1 1704   6.840   2.529   0.697
  609TIP3    H2 1705   6.977   2.474   0.690
  610TIP3   OH2 1706   7.340   2.701   0.871
  610TIP3    H1 1707   7.379   2.705   0.961
  610TIP3    H2 1708   7.405   2.754   0.820
  611TIP3   OH2 1709   7.517   2.854   0.729
  611TIP3    H1 1710   7.588   2.803   0.689
  611TIP3    H2 1711   7.567   2.912   0.790
  612TIP3   OH2 1712   6.572   2.719   0.757
  612TIP3    H1 1713   6.483   2.751   0.731
  612TIP3    H2 1714   6.574   2.747   0.849
  613TIP3   OH2 1715   6.807   2.695   0.614
  613TIP3    H1 1716   6.721   2.708   0.661
  613TIP3    H2 1717   6.785   2.728   0.525
  614TIP3   OH2 1718   7.236   2.727   0.406
  614TIP3    H1 1719   7.158   2.746   0.349
  614TIP3    H2 1720   7.246   2.813   0.452
  615TIP3   OH2 1721   7.503   2.667   0.452
  615TIP3    H1 1722   7.407   2.682   0.441
  615TIP3    H2 1723   7.541   2.751   0.422
  616TIP3   OH2 1724   7.705   2.867   0.383
  616TIP3    H1 1725   7.693   2.950   0.333
  616TIP3    H2 1726   7.732   2.805   0.312
  617TIP3   OH2 1727   6.480   2.514   0.506
  617TIP3    H1 1728   6.507   2.487   0.596
  617TIP3    H2 1729   6.551   2.471   0.454
  618TIP3   OH2 1730   6.670   2.391   0.358
  618TIP3    H1 1731   6.686   2.307   0.407
  618TIP3    H2 1732   6.761   2.426   0.351
  619TIP3   OH2 1733   6.937   2.484   0.359
  619TIP3    H1 1734   6.968   2.394   0.340
  619TIP3    H2 1735   6.977   2.500   0.446
  620TIP3   OH2 1736   6.278   2.277  -0.098
  620TIP3    H1 1737   6.198   2.232  -0.128
  620TIP3    H2 1738   6.259   2.368  -0.128
  621TIP3   OH2 1739   6.957   1.143   1.407
  621TIP3    H1 1740   6.926   1.060   1.446
  621TIP3    H2 1741   7.033   1.112   1.354
  622TIP3   OH2 1742   7.249   1.125   1.485
  622TIP3    H1 1743   7.294   1.054   1.440
  622TIP3    H2 1744   7.209   1.076   1.561
  623TIP3   OH2 1745   7.987   2.733   0.758
  623TIP3    H1 1746   7.906   2.705   0.709
  623TIP3    H2 1747   7.970   2.829   0.761
  624TIP3   OH2 1748   8.340   2.946   0.654
  624TIP3    H1 1749   8.427   2.938   0.696
  624TIP3    H2 1750   8.311   2.853   0.649
  625TIP3   OH2 1751   8.458   2.356   0.863
  625TIP3    H1 1752   8.450   2.259   0.865
  625TIP3    H2 1753   8.381   2.379   0.807
  626TIP3   OH2 1754   8.506   2.633   0.686
  626TIP3    H1 1755   8.412   2.645   0.663
  626TIP3    H2 1756   8.508   2.659   0.779
  627TIP3   OH2 1757   8.349   2.978   0.225
  627TIP3    H1 1758   8.267   3.031   0.229
  627TIP3    H2 1759   8.384   2.990   0.313
  628TIP3   OH2 1760   0.693   3.443   2.370
  628TIP3    H1 1761   0.662   3.352   2.350
  628TIP3    H2 1762   0.611   3.480   2.407
  629TIP3   OH2 1763   0.373   3.787   2.442
  629TIP3    H1 1764   0.370   3.812   2.348
  629TIP3    H2 1765   0.448   3.841   2.473
  630TIP3   OH2 1766   0.569   3.246   2.700
  630TIP3    H1 1767   0.488   3.255   2.754
  630TIP3    H2 1768   0.605   3.337   2.701
  631TIP3   OH2 1769   0.443   3.524   2.453
  631TIP3    H1 1770   0.351   3.498   2.446
  631TIP3    H2 1771   0.433   3.622   2.452
  632TIP3   OH2 1772   1.948   3.185   1.276
  632TIP3    H1 1773   1.943   3.127   1.353
  632TIP3    H2 1774   1.975   3.269   1.317
  633TIP3   OH2 1775   1.591   3.657   1.286
  633TIP3    H1 1776   1.637   3.582   1.243
  633TIP3    H2 1777   1.581   3.626   1.377
  634TIP3   OH2 1778   1.537   3.132   1.660
  634TIP3    H1 1779   1.547   3.123   1.564
  634TIP3    H2 1780   1.625   3.167   1.685
  635TIP3   OH2 1781   2.521   2.434   1.636
  635TIP3    H1 1782   2.545   2.515   1.685
  635TIP3    H2 1783   2.537   2.463   1.545
  636TIP3   OH2 1784   2.586   2.641   1.812
  636TIP3    H1 1785   2.506   2.693   1.790
  636TIP3    H2 1786   2.606   2.675   1.901
  637TIP3   OH2 1787   1.389   3.058   1.990
  637TIP3    H1 1788   1.298   3.086   1.967
  637TIP3    H2 1789   1.439   3.121   1.936
  638TIP3   OH2 1790   1.173   3.238   1.974
  638TIP3    H1 1791   1.155   3.322   1.928
  638TIP3    H2 1792   1.098   3.237   2.037
  639TIP3   OH2 1793   2.015   3.435   1.437
  639TIP3    H1 1794   1.926   3.430   1.479
  639TIP3    H2 1795   2.012   3.525   1.398
  640TIP3   OH2 1796   2.326   2.349   1.813
  640TIP3    H1 1797   2.232   2.367   1.795
  640TIP3    H2 1798   2.370   2.382   1.732
  641TIP3   OH2 1799   1.733   3.479   1.132
  641TIP3    H1 1800   1.810   3.420   1.137
  641TIP3    H2 1801   1.770   3.552   1.076
  642TIP3   OH2 1802   2.241   3.356   1.794
  642TIP3    H1 1803   2.238   3.279   1.733
  642TIP3    H2 1804   2.224   3.431   1.733
  643TIP3   OH2 1805   2.440   2.981   1.628
  643TIP3    H1 1806   2.362   3.040   1.639
  643TIP3    H2 1807   2.470   3.010   1.539
  644TIP3   OH2 1808   2.148   2.872   1.939
  644TIP3    H1 1809   2.135   2.959   1.982
  644TIP3    H2 1810   2.060   2.862   1.895
  645TIP3   OH2 1811   1.776   3.434   1.563
  645TIP3    H1 1812   1.761   3.518   1.610
  645TIP3    H2 1813   1.770   3.367   1.634
  646TIP3   OH2 1814   1.388   3.353   2.110
  646TIP3    H1 1815   1.329   3.417   2.155
  646TIP3    H2 1816   1.321   3.299   2.062
  647TIP3   OH2 1817   1.143   2.935   2.226
  647TIP3    H1 1818   1.148   3.023   2.269
  647TIP3    H2 1819   1.048   2.917   2.228
  648TIP3   OH2 1820   1.184   3.522   2.196
  648TIP3    H1 1821   1.151   3.525   2.104
  648TIP3    H2 1822   1.103   3.499   2.247
  649TIP3   OH2 1823   2.480   3.690   1.831
  649TIP3    H1 1824   2.473   3.595   1.852
  649TIP3    H2 1825   2.398   3.724   1.874
  650TIP3   OH2 1826   1.588   3.484   1.967
  650TIP3    H1 1827   1.589   3.577   1.999
  650TIP3    H2 1828   1.517   3.446   2.023
  651TIP3   OH2 1829   2.371   2.827   2.109
  651TIP3    H1 1830   2.296   2.847   2.050
  651TIP3    H2 1831   2.385   2.732   2.091
  652TIP3   OH2 1832   0.972   3.241   2.154
  652TIP3    H1 1833   1.028   3.234   2.234
  652TIP3    H2 1834   0.914   3.165   2.160
  653TIP3   OH2 1835   2.139   2.599   2.025
  653TIP3    H1 1836   2.091   2.596   2.111
  653TIP3    H2 1837   2.122   2.690   1.994
  654TIP3   OH2 1838   1.851   2.828   2.263
  654TIP3    H1 1839   1.829   2.754   2.324
  654TIP3    H2 1840   1.944   2.841   2.283
  655TIP3   OH2 1841   1.899   2.817   1.854
  655TIP3    H1 1842   1.850   2.775   1.782
  655TIP3    H2 1843   1.827   2.830   1.916
  656TIP3   OH2 1844   2.168   4.046   1.933
  656TIP3    H1 1845   2.167   4.066   1.837
  656TIP3    H2 1846   2.250   4.093   1.961
  657TIP3   OH2 1847   1.128   3.169   2.368
  657TIP3    H1 1848   1.211   3.198   2.412
  657TIP3    H2 1849   1.065   3.180   2.442
  658TIP3   OH2 1850   2.224   3.144   1.630
  658TIP3    H1 1851   2.248   3.191   1.547
  658TIP3    H2 1852   2.136   3.106   1.607
  659TIP3   OH2 1853   1.693   3.212   1.988
  659TIP3    H1 1854   1.726   3.195   2.077
  659TIP3    H2 1855   1.670   3.307   1.992
  660TIP3   OH2 1856   1.610   2.953   2.313
  660TIP3    H1 1857   1.562   2.909   2.240
  660TIP3    H2 1858   1.701   2.930   2.285
  661TIP3   OH2 1859   1.865   3.462   1.894
  661TIP3    H1 1860   1.769   3.477   1.899
  661TIP3    H2 1861   1.896   3.523   1.964
  662TIP3   OH2 1862   2.494   3.398   1.876
  662TIP3    H1 1863   2.396   3.398   1.866
  662TIP3    H2 1864   2.521   3.374   1.784
  663TIP3   OH2 1865   1.998   3.020   1.558
  663TIP3    H1 1866   1.904   2.999   1.553
  663TIP3    H2 1867   2.036   2.932   1.538
  664TIP3   OH2 1868   1.373   3.560   1.770
  664TIP3    H1 1869   1.402   3.637   1.717
  664TIP3    H2 1870   1.454   3.538   1.819
  665TIP3   OH2 1871   1.788   3.201   1.727
  665TIP3    H1 1872   1.767   3.202   1.823
  665TIP3    H2 1873   1.880   3.173   1.728
  666TIP3   OH2 1874   2.004   3.736   1.769
  666TIP3    H1 1875   1.922   3.686   1.754
  666TIP3    H2 1876   1.996   3.806   1.700
  667TIP3   OH2 1877   0.799   3.422   1.940
  667TIP3    H1 1878   0.865   3.351   1.943
  667TIP3    H2 1879   0.843   3.493   1.987
  668TIP3   OH2 1880   1.908   2.432   1.989
  668TIP3    H1 1881   2.002   2.457   1.993
  668TIP3    H2 1882   1.914   2.336   1.975
  669TIP3   OH2 1883   1.737   2.631   2.085
  669TIP3    H1 1884   1.779   2.709   2.128
  669TIP3    H2 1885   1.814   2.577   2.058
  670TIP3   OH2 1886   2.407   2.561   2.029
  670TIP3    H1 1887   2.309   2.557   2.031
  670TIP3    H2 1888   2.423   2.525   1.941
  671TIP3   OH2 1889   2.061   2.746   1.521
  671TIP3    H1 1890   2.032   2.690   1.447
  671TIP3    H2 1891   2.152   2.709   1.531
  672TIP3   OH2 1892   2.029   3.703   1.364
  672TIP3    H1 1893   1.985   3.754   1.292
  672TIP3    H2 1894   2.123   3.726   1.345
  673TIP3   OH2 1895   0.795   3.738   2.345
  673TIP3    H1 1896   0.881   3.736   2.393
  673TIP3    H2 1897   0.775   3.643   2.338
  674TIP3   OH2 1898   1.278   3.704   2.392
  674TIP3    H1 1899   1.374   3.693   2.398
  674TIP3    H2 1900   1.257   3.648   2.314
  675TIP3   OH2 1901   1.917   3.610   2.121
  675TIP3    H1 1902   1.911   3.541   2.190
  675TIP3    H2 1903   1.995   3.661   2.149
  676TIP3   OH2 1904   0.922   3.143   2.549
  676TIP3    H1 1905   0.945   3.049   2.553
  676TIP3    H2 1906   0.831   3.142   2.517
  677TIP3   OH2 1907   1.533   3.227   2.318
  677TIP3    H1 1908   1.495   3.244   2.229
  677TIP3    H2 1909   1.568   3.136   2.310
  678TIP3   OH2 1910   2.025   3.235   1.919
  678TIP3    H1 1911   2.103   3.279   1.879
  678TIP3    H2 1912   1.960   3.308   1.913
  679TIP3   OH2 1913   1.052   2.861   2.549
  679TIP3    H1 1914   1.139   2.824   2.525
  679TIP3    H2 1915   1.075   2.909   2.631
  680TIP3   OH2 1916   1.397   2.766   2.200
  680TIP3    H1 1917   1.344   2.845   2.220
  680TIP3    H2 1918   1.451   2.797   2.124
  681TIP3   OH2 1919   1.894   3.163   2.320
  681TIP3    H1 1920   1.979   3.153   2.274
  681TIP3    H2 1921   1.901   3.097   2.392
  682TIP3   OH2 1922   1.517   2.556   2.325
  682TIP3    H1 1923   1.539   2.489   2.258
  682TIP3    H2 1924   1.486   2.630   2.269
  683TIP3   OH2 1925   1.581   2.882   2.039
  683TIP3    H1 1926   1.619   2.857   1.954
  683TIP3    H2 1927   1.518   2.954   2.014
  684TIP3   OH2 1928   2.137   2.835   2.398
  684TIP3    H1 1929   2.173   2.755   2.355
  684TIP3    H2 1930   2.189   2.905   2.355
  685TIP3   OH2 1931   2.157   3.098   2.113
  685TIP3    H1 1932   2.099   3.150   2.051
  685TIP3    H2 1933   2.245   3.118   2.073
  686TIP3   OH2 1934   1.368   2.687   2.538
  686TIP3    H1 1935   1.326   2.607   2.576
  686TIP3    H2 1936   1.409   2.655   2.456
  687TIP3   OH2 1937   1.776   2.609   2.411
  687TIP3    H1 1938   1.757   2.602   2.506
  687TIP3    H2 1939   1.688   2.590   2.375
  688TIP3   OH2 1940   2.015   2.567   2.265
  688TIP3    H1 1941   1.932   2.563   2.316
  688TIP3    H2 1942   2.080   2.527   2.325
  689TIP3   OH2 1943   2.238   2.501   2.431
  689TIP3    H1 1944   2.248   2.403   2.434
  689TIP3    H2 1945   2.224   2.523   2.524
  690TIP3   OH2 1946   1.277   2.455   2.661
  690TIP3    H1 1947   1.269   2.392   2.588
  690TIP3    H2 1948   1.207   2.426   2.721
  691TIP3   OH2 1949   1.748   2.132   2.457
  691TIP3    H1 1950   1.824   2.069   2.452
  691TIP3    H2 1951   1.703   2.113   2.375
  692TIP3   OH2 1952   1.805   2.341   2.613
  692TIP3    H1 1953   1.787   2.269   2.549
  692TIP3    H2 1954   1.725   2.397   2.604
  693TIP3   OH2 1955   2.283   3.794   1.322
  693TIP3    H1 1956   2.294   3.847   1.403
  693TIP3    H2 1957   2.320   3.857   1.259
  694TIP3   OH2 1958   2.299   3.825   1.607
  694TIP3    H1 1959   2.269   3.732   1.600
  694TIP3    H2 1960   2.382   3.814   1.656
  695TIP3   OH2 1961   2.354   3.497   2.175
  695TIP3    H1 1962   2.280   3.508   2.238
  695TIP3    H2 1963   2.395   3.586   2.178
  696TIP3   OH2 1964   2.349   3.271   1.428
  696TIP3    H1 1965   2.403   3.210   1.375
  696TIP3    H2 1966   2.344   3.350   1.370
  697TIP3   OH2 1967   2.183   3.565   1.629
  697TIP3    H1 1968   2.115   3.618   1.676
  697TIP3    H2 1969   2.132   3.523   1.558
  698TIP3   OH2 1970   2.398   3.158   2.001
  698TIP3    H1 1971   2.475   3.096   1.993
  698TIP3    H2 1972   2.427   3.232   1.946
  699TIP3   OH2 1973   2.587   2.967   2.026
  699TIP3    H1 1974   2.512   2.918   2.064
  699TIP3    H2 1975   2.659   2.902   2.036
  700TIP3   OH2 1976   2.297   2.622   1.551
  700TIP3    H1 1977   2.379   2.649   1.504
  700TIP3    H2 1978   2.312   2.664   1.638
  701TIP3   OH2 1979   2.346   2.771   1.773
  701TIP3    H1 1980   2.270   2.807   1.823
  701TIP3    H2 1981   2.375   2.850   1.722
  702TIP3   OH2 1982   2.784   2.356   2.326
  702TIP3    H1 1983   2.846   2.293   2.283
  702TIP3    H2 1984   2.760   2.415   2.251
  703TIP3   OH2 1985   2.661   2.503   2.134
  703TIP3    H1 1986   2.571   2.541   2.144
  703TIP3    H2 1987   2.640   2.430   2.073
  704TIP3   OH2 1988   1.868   3.662   0.986
  704TIP3    H1 1989   1.909   3.655   0.897
  704TIP3    H2 1990   1.911   3.741   1.021
  705TIP3   OH2 1991   0.966   3.461   2.368
  705TIP3    H1 1992   0.870   3.446   2.359
  705TIP3    H2 1993   0.976   3.468   2.463
  706TIP3   OH2 1994   1.139   3.504   1.915
  706TIP3    H1 1995   1.089   3.572   1.866
  706TIP3    H2 1996   1.227   3.519   1.873
  707TIP3   OH2 1997   1.588   3.748   2.049
  707TIP3    H1 1998   1.630   3.752   2.137
  707TIP3    H2 1999   1.653   3.799   1.996
  708TIP3   OH2 2000   1.766   3.897   1.907
  708TIP3    H1 2001   1.839   3.852   1.863
  708TIP3    H2 2002   1.817   3.957   1.967
  709TIP3   OH2 2003   2.565   2.270   2.010
  709TIP3    H1 2004   2.476   2.267   1.970
  709TIP3    H2 2005   2.592   2.176   1.999
  710TIP3   OH2 2006   0.814   3.769   1.918
  710TIP3    H1 2007   0.722   3.801   1.912
  710TIP3    H2 2008   0.834   3.791   2.010
  711TIP3   OH2 2009   1.065   3.747   1.795
  711TIP3    H1 2010   0.978   3.763   1.837
  711TIP3    H2 2011   1.050   3.774   1.703
  712TIP3   OH2 2012   1.483   3.768   1.593
  712TIP3    H1 2013   1.414   3.787   1.527
  712TIP3    H2 2014   1.496   3.857   1.632
  713TIP3   OH2 2015   1.750   3.705   1.640
  713TIP3    H1 2016   1.656   3.725   1.622
  713TIP3    H2 2017   1.794   3.781   1.599
  714TIP3   OH2 2018   1.949   3.899   1.556
  714TIP3    H1 2019   1.940   3.987   1.513
  714TIP3    H2 2020   1.982   3.844   1.481
  715TIP3   OH2 2021   1.218   3.566   1.531
  715TIP3    H1 2022   1.226   3.493   1.466
  715TIP3    H2 2023   1.268   3.534   1.608
  716TIP3   OH2 2024   1.994   3.632   0.739
  716TIP3    H1 2025   1.983   3.550   0.687
  716TIP3    H2 2026   1.959   3.699   0.679
  717TIP3   OH2 2027   1.461   2.186   2.684
  717TIP3    H1 2028   1.532   2.175   2.618
  717TIP3    H2 2029   1.448   2.093   2.709
  718TIP3   OH2 2030   2.295   2.231   2.443
  718TIP3    H1 2031   2.316   2.193   2.531
  718TIP3    H2 2032   2.381   2.223   2.397
  719TIP3   OH2 2033   2.234   3.777   1.935
  719TIP3    H1 2034   2.155   3.750   1.884
  719TIP3    H2 2035   2.222   3.875   1.934
  720TIP3   OH2 2036   3.502   3.154   0.708
  720TIP3    H1 2037   3.474   3.245   0.685
  720TIP3    H2 2038   3.431   3.103   0.665
  721TIP3   OH2 2039   3.495   3.152   1.080
  721TIP3    H1 2040   3.526   3.115   1.165
  721TIP3    H2 2041   3.459   3.074   1.036
  722TIP3   OH2 2042   2.801   3.045   1.442
  722TIP3    H1 2043   2.830   2.984   1.512
  722TIP3    H2 2044   2.883   3.089   1.417
  723TIP3   OH2 2045   3.741   3.451   0.761
  723TIP3    H1 2046   3.729   3.381   0.826
  723TIP3    H2 2047   3.770   3.526   0.815
  724TIP3   OH2 2048   2.771   3.455   1.176
  724TIP3    H1 2049   2.763   3.357   1.176
  724TIP3    H2 2050   2.866   3.464   1.156
  725TIP3   OH2 2051   2.557   2.955   1.131
  725TIP3    H1 2052   2.595   2.871   1.164
  725TIP3    H2 2053   2.596   2.962   1.044
  726TIP3   OH2 2054   3.390   3.916   0.777
  726TIP3    H1 2055   3.437   3.844   0.729
  726TIP3    H2 2056   3.383   3.879   0.866
  727TIP3   OH2 2057   3.296   3.367   1.141
  727TIP3    H1 2058   3.332   3.294   1.088
  727TIP3    H2 2059   3.379   3.415   1.159
  728TIP3   OH2 2060   4.308   2.696   1.125
  728TIP3    H1 2061   4.337   2.779   1.169
  728TIP3    H2 2062   4.333   2.714   1.033
  729TIP3   OH2 2063   3.707   2.879   1.164
  729TIP3    H1 2064   3.752   2.794   1.183
  729TIP3    H2 2065   3.679   2.865   1.072
  730TIP3   OH2 2066   3.739   2.627   0.751
  730TIP3    H1 2067   3.812   2.611   0.815
  730TIP3    H2 2068   3.789   2.662   0.676
  731TIP3   OH2 2069   2.681   2.727   1.224
  731TIP3    H1 2070   2.766   2.715   1.272
  731TIP3    H2 2071   2.691   2.660   1.155
  732TIP3   OH2 2072   3.119   2.938   1.034
  732TIP3    H1 2073   3.212   2.910   1.041
  732TIP3    H2 2074   3.077   2.858   0.995
  733TIP3   OH2 2075   4.383   2.902   1.297
  733TIP3    H1 2076   4.300   2.951   1.278
  733TIP3    H2 2077   4.399   2.929   1.389
  734TIP3   OH2 2078   3.043   2.521   1.559
  734TIP3    H1 2079   2.983   2.554   1.490
  734TIP3    H2 2080   2.990   2.540   1.640
  735TIP3   OH2 2081   3.392   3.370   0.574
  735TIP3    H1 2082   3.356   3.347   0.487
  735TIP3    H2 2083   3.349   3.456   0.591
  736TIP3   OH2 2084   3.137   3.324   1.373
  736TIP3    H1 2085   3.054   3.368   1.353
  736TIP3    H2 2086   3.195   3.357   1.302
  737TIP3   OH2 2087   3.952   2.630   0.919
  737TIP3    H1 2088   3.952   2.574   0.998
  737TIP3    H2 2089   4.010   2.704   0.946
  738TIP3   OH2 2090   2.913   2.631   1.341
  738TIP3    H1 2091   2.987   2.696   1.347
  738TIP3    H2 2092   2.933   2.584   1.256
  739TIP3   OH2 2093   2.390   3.172   0.659
  739TIP3    H1 2094   2.340   3.237   0.607
  739TIP3    H2 2095   2.426   3.234   0.726
  740TIP3   OH2 2096   3.814   3.694   0.933
  740TIP3    H1 2097   3.723   3.686   0.969
  740TIP3    H2 2098   3.807   3.778   0.885
  741TIP3   OH2 2099   4.103   2.597   1.293
  741TIP3    H1 2100   4.015   2.626   1.262
  741TIP3    H2 2101   4.162   2.627   1.221
  742TIP3   OH2 2102   3.404   2.244   1.274
  742TIP3    H1 2103   3.393   2.148   1.288
  742TIP3    H2 2104   3.325   2.278   1.321
  743TIP3   OH2 2105   3.517   3.742   0.607
  743TIP3    H1 2106   3.566   3.660   0.584
  743TIP3    H2 2107   3.576   3.808   0.564
  744TIP3   OH2 2108   3.655   3.528   0.509
  744TIP3    H1 2109   3.626   3.448   0.463
  744TIP3    H2 2110   3.690   3.490   0.593
  745TIP3   OH2 2111   4.037   3.608   1.275
  745TIP3    H1 2112   4.030   3.531   1.214
  745TIP3    H2 2113   4.023   3.683   1.213
  746TIP3   OH2 2114   3.336   3.018   0.538
  746TIP3    H1 2115   3.252   3.060   0.512
  746TIP3    H2 2116   3.374   2.995   0.451
  747TIP3   OH2 2117   3.295   2.788   0.357
  747TIP3    H1 2118   3.378   2.835   0.337
  747TIP3    H2 2119   3.316   2.699   0.325
  748TIP3   OH2 2120   4.234   3.243   1.118
  748TIP3    H1 2121   4.152   3.297   1.123
  748TIP3    H2 2122   4.264   3.266   1.027
  749TIP3   OH2 2123   3.679   3.087   0.508
  749TIP3    H1 2124   3.625   3.112   0.586
  749TIP3    H2 2125   3.762   3.059   0.551
  750TIP3   OH2 2126   3.914   3.124   1.412
  750TIP3    H1 2127   3.912   3.208   1.463
  750TIP3    H2 2128   3.828   3.130   1.365
  751TIP3   OH2 2129   2.909   3.079   0.919
  751TIP3    H1 2130   2.875   3.016   0.852
  751TIP3    H2 2131   2.987   3.030   0.953
  752TIP3   OH2 2132   3.035   3.481   1.074
  752TIP3    H1 2133   3.017   3.449   0.984
  752TIP3    H2 2134   3.128   3.455   1.086
  753TIP3   OH2 2135   3.053   3.057   1.279
  753TIP3    H1 2136   3.078   3.028   1.189
  753TIP3    H2 2137   3.102   3.140   1.289
  754TIP3   OH2 2138   3.571   3.691   1.050
  754TIP3    H1 2139   3.556   3.772   1.101
  754TIP3    H2 2140   3.557   3.619   1.115
  755TIP3   OH2 2141   3.528   2.941   0.333
  755TIP3    H1 2142   3.584   3.004   0.384
  755TIP3    H2 2143   3.553   2.964   0.240
  756TIP3   OH2 2144   3.258   3.626   0.607
  756TIP3    H1 2145   3.338   3.679   0.624
  756TIP3    H2 2146   3.199   3.688   0.564
  757TIP3   OH2 2147   2.986   3.698   1.672
  757TIP3    H1 2148   2.967   3.739   1.585
  757TIP3    H2 2149   2.942   3.760   1.732
  758TIP3   OH2 2150   4.038   2.186   0.374
  758TIP3    H1 2151   3.957   2.199   0.426
  758TIP3    H2 2152   4.045   2.271   0.327
  759TIP3   OH2 2153   2.784   2.919   0.728
  759TIP3    H1 2154   2.714   2.973   0.690
  759TIP3    H2 2155   2.740   2.837   0.755
  760TIP3   OH2 2156   3.832   3.555  -0.078
  760TIP3    H1 2157   3.843   3.651  -0.094
  760TIP3    H2 2158   3.924   3.523  -0.088
  761TIP3   OH2 2159   2.570   3.314   1.626
  761TIP3    H1 2160   2.500   3.289   1.562
  761TIP3    H2 2161   2.603   3.227   1.657
  762TIP3   OH2 2162   2.410   3.501   1.269
  762TIP3    H1 2163   2.506   3.504   1.258
  762TIP3    H2 2164   2.393   3.585   1.315
  763TIP3   OH2 2165   4.276   3.951   1.317
  763TIP3    H1 2166   4.275   3.855   1.331
  763TIP3    H2 2167   4.194   3.976   1.364
  764TIP3   OH2 2168   3.385   3.743   1.454
  764TIP3    H1 2169   3.398   3.838   1.480
  764TIP3    H2 2170   3.310   3.722   1.512
  765TIP3   OH2 2171   3.139   3.867   0.404
  765TIP3    H1 2172   3.096   3.849   0.318
  765TIP3    H2 2173   3.110   3.957   0.425
  766TIP3   OH2 2174   2.581   3.717   0.785
  766TIP3    H1 2175   2.628   3.708   0.871
  766TIP3    H2 2176   2.508   3.655   0.798
  767TIP3   OH2 2177   3.338   3.766   0.060
  767TIP3    H1 2178   3.397   3.707   0.006
  767TIP3    H2 2179   3.385   3.770   0.145
  768TIP3   OH2 2180   3.398   3.822   0.326
  768TIP3    H1 2181   3.307   3.827   0.364
  768TIP3    H2 2182   3.444   3.772   0.395
  769TIP3   OH2 2183   4.166   3.084   1.594
  769TIP3    H1 2184   4.088   3.097   1.538
  769TIP3    H2 2185   4.182   2.988   1.583
  770TIP3   OH2 2186   2.827   3.457   1.675
  770TIP3    H1 2187   2.780   3.528   1.725
  770TIP3    H2 2188   2.749   3.406   1.643
  771TIP3   OH2 2189   3.161   2.315   1.404
  771TIP3    H1 2190   3.070   2.289   1.377
  771TIP3    H2 2191   3.139   2.399   1.449
  772TIP3   OH2 2192   3.696   2.432   1.596
  772TIP3    H1 2193   3.764   2.405   1.661
  772TIP3    H2 2194   3.612   2.411   1.643
  773TIP3   OH2 2195   3.935   2.858   1.514
  773TIP3    H1 2196   3.888   2.856   1.601
  773TIP3    H2 2197   3.913   2.947   1.480
  774TIP3   OH2 2198   3.600   2.994   0.078
  774TIP3    H1 2199   3.540   2.987   0.003
  774TIP3    H2 2200   3.674   3.047   0.042
  775TIP3   OH2 2201   3.093   2.828   1.420
  775TIP3    H1 2202   3.042   2.848   1.501
  775TIP3    H2 2203   3.079   2.910   1.368
  776TIP3   OH2 2204   2.973   2.734   0.924
  776TIP3    H1 2205   2.940   2.656   0.974
  776TIP3    H2 2206   2.993   2.690   0.839
  777TIP3   OH2 2207   3.472   2.809   0.662
  777TIP3    H1 2208   3.417   2.880   0.622
  777TIP3    H2 2209   3.520   2.775   0.584
  778TIP3   OH2 2210   3.643   3.084   1.751
  778TIP3    H1 2211   3.622   3.010   1.813
  778TIP3    H2 2212   3.737   3.098   1.772
  779TIP3   OH2 2213   3.626   2.833   0.903
  779TIP3    H1 2214   3.569   2.863   0.829
  779TIP3    H2 2215   3.659   2.750   0.862
  780TIP3   OH2 2216   2.916   2.866   1.637
  780TIP3    H1 2217   2.915   2.915   1.720
  780TIP3    H2 2218   2.901   2.775   1.669
  781TIP3   OH2 2219   3.634   3.079   1.328
  781TIP3    H1 2220   3.667   3.008   1.269
  781TIP3    H2 2221   3.609   3.026   1.406
  782TIP3   OH2 2222   3.305   2.541   0.991
  782TIP3    H1 2223   3.215   2.527   1.024
  782TIP3    H2 2224   3.359   2.542   1.072
  783TIP3   OH2 2225   3.040   2.617   0.688
  783TIP3    H1 2226   3.138   2.612   0.686
  783TIP3    H2 2227   3.018   2.643   0.598
  784TIP3   OH2 2228   3.796   2.616   1.202
  784TIP3    H1 2229   3.756   2.627   1.291
  784TIP3    H2 2230   3.734   2.553   1.162
  785TIP3   OH2 2231   3.965   4.304   1.417
  785TIP3    H1 2232   3.965   4.326   1.322
  785TIP3    H2 2233   4.044   4.352   1.448
  786TIP3   OH2 2234   3.389   2.865   1.094
  786TIP3    H1 2235   3.459   2.827   1.039
  786TIP3    H2 2236   3.406   2.823   1.180
  787TIP3   OH2 2237   3.365   2.757   1.390
  787TIP3    H1 2238   3.276   2.798   1.399
  787TIP3    H2 2239   3.424   2.820   1.437
  788TIP3   OH2 2240   3.098   3.167   0.481
  788TIP3    H1 2241   3.037   3.091   0.479
  788TIP3    H2 2242   3.086   3.198   0.574
  789TIP3   OH2 2243   4.003   3.391   1.111
  789TIP3    H1 2244   4.028   3.439   1.029
  789TIP3    H2 2245   3.918   3.350   1.085
  790TIP3   OH2 2246   3.594   2.469   0.322
  790TIP3    H1 2247   3.497   2.476   0.320
  790TIP3    H2 2248   3.617   2.561   0.345
  791TIP3   OH2 2249   3.470   3.470   1.510
  791TIP3    H1 2250   3.552   3.458   1.560
  791TIP3    H2 2251   3.472   3.563   1.484
  792TIP3   OH2 2252   3.637   2.712   0.442
  792TIP3    H1 2253   3.732   2.724   0.461
  792TIP3    H2 2254   3.615   2.792   0.390
  793TIP3   OH2 2255   2.803   3.181   1.157
  793TIP3    H1 2256   2.834   3.150   1.070
  793TIP3    H2 2257   2.821   3.104   1.213
  794TIP3   OH2 2258   3.254   3.312   0.315
  794TIP3    H1 2259   3.205   3.397   0.317
  794TIP3    H2 2260   3.196   3.256   0.372
  795TIP3   OH2 2261   2.667   3.098   1.768
  795TIP3    H1 2262   2.696   3.085   1.860
  795TIP3    H2 2263   2.600   3.028   1.757
  796TIP3   OH2 2264   3.399   3.205   1.788
  796TIP3    H1 2265   3.347   3.141   1.736
  796TIP3    H2 2266   3.490   3.179   1.763
  797TIP3   OH2 2267   3.659   3.718   1.380
  797TIP3    H1 2268   3.564   3.736   1.384
  797TIP3    H2 2269   3.691   3.777   1.452
  798TIP3   OH2 2270   4.073   2.804   0.284
  798TIP3    H1 2271   4.011   2.757   0.223
  798TIP3    H2 2272   4.070   2.892   0.240
  799TIP3   OH2 2273   4.289   3.660   1.363
  799TIP3    H1 2274   4.191   3.655   1.354
  799TIP3    H2 2275   4.315   3.631   1.273
  800TIP3   OH2 2276   3.778   3.622   0.188
  800TIP3    H1 2277   3.744   3.551   0.245
  800TIP3    H2 2278   3.778   3.579   0.100
  801TIP3   OH2 2279   3.767   3.252   1.033
  801TIP3    H1 2280   3.673   3.225   1.042
  801TIP3    H2 2281   3.803   3.174   0.986
  802TIP3   OH2 2282   2.893   3.480   0.783
  802TIP3    H1 2283   2.899   3.561   0.728
  802TIP3    H2 2284   2.798   3.469   0.789
  803TIP3   OH2 2285   3.036   3.248   0.732
  803TIP3    H1 2286   3.000   3.337   0.746
  803TIP3    H2 2287   2.997   3.198   0.806
  804TIP3   OH2 2288   3.164   3.823   1.249
  804TIP3    H1 2289   3.198   3.899   1.198
  804TIP3    H2 2290   3.243   3.797   1.298
  805TIP3   OH2 2291   2.817   3.717   0.635
  805TIP3    H1 2292   2.729   3.725   0.678
  805TIP3    H2 2293   2.846   3.811   0.636
  806TIP3   OH2 2294   3.552   3.459   1.212
  806TIP3    H1 2295   3.551   3.447   1.308
  806TIP3    H2 2296   3.631   3.409   1.186
  807TIP3   OH2 2297   3.525   3.356   0.092
  807TIP3    H1 2298   3.573   3.329   0.173
  807TIP3    H2 2299   3.434   3.329   0.111
  808TIP3   OH2 2300   3.800   3.994   1.259
  808TIP3    H1 2301   3.719   3.940   1.245
  808TIP3    H2 2302   3.789   4.060   1.187
  809TIP3   OH2 2303   3.868   3.833  -0.096
  809TIP3    H1 2304   3.916   3.910  -0.130
  809TIP3    H2 2305   3.788   3.878  -0.060
  810TIP3   OH2 2306   2.886   2.604   1.777
  810TIP3    H1 2307   2.790   2.607   1.791
  810TIP3    H2 2308   2.915   2.543   1.847
  811TIP3   OH2 2309   3.684   3.288   0.315
  811TIP3    H1 2310   3.677   3.219   0.384
  811TIP3    H2 2311   3.781   3.285   0.297
  812TIP3   OH2 2312   2.602   3.696   1.407
  812TIP3    H1 2313   2.667   3.627   1.423
  812TIP3    H2 2314   2.627   3.763   1.472
  813TIP3   OH2 2315   2.891   3.335   0.092
  813TIP3    H1 2316   2.912   3.248   0.057
  813TIP3    H2 2317   2.876   3.318   0.188
  814TIP3   OH2 2318   2.848   3.334   0.366
  814TIP3    H1 2319   2.922   3.308   0.422
  814TIP3    H2 2320   2.852   3.432   0.369
  815TIP3   OH2 2321   3.715   2.673   1.462
  815TIP3    H1 2322   3.801   2.707   1.493
  815TIP3    H2 2323   3.706   2.590   1.513
  816TIP3   OH2 2324   3.589   2.429   0.614
  816TIP3    H1 2325   3.593   2.452   0.520
  816TIP3    H2 2326   3.636   2.505   0.655
  817TIP3   OH2 2327   3.103   3.536   0.313
  817TIP3    H1 2328   3.016   3.568   0.345
  817TIP3    H2 2329   3.123   3.602   0.246
  818TIP3   OH2 2330   3.309   2.599   0.724
  818TIP3    H1 2331   3.372   2.672   0.706
  818TIP3    H2 2332   3.311   2.595   0.823
  819TIP3   OH2 2333   3.559   2.918   1.535
  819TIP3    H1 2334   3.584   2.968   1.616
  819TIP3    H2 2335   3.615   2.838   1.543
  820TIP3   OH2 2336   3.447   2.330   0.834
  820TIP3    H1 2337   3.433   2.410   0.888
  820TIP3    H2 2338   3.499   2.366   0.759
  821TIP3   OH2 2339   2.844   3.607   0.380
  821TIP3    H1 2340   2.816   3.677   0.316
  821TIP3    H2 2341   2.829   3.652   0.466
  822TIP3   OH2 2342   4.203   2.818   1.513
  822TIP3    H1 2343   4.105   2.814   1.519
  822TIP3    H2 2344   4.216   2.779   1.425
  823TIP3   OH2 2345   3.852   3.013   0.903
  823TIP3    H1 2346   3.778   2.951   0.912
  823TIP3    H2 2347   3.925   2.965   0.949
  824TIP3   OH2 2348   2.575   3.290   0.388
  824TIP3    H1 2349   2.653   3.346   0.398
  824TIP3    H2 2350   2.610   3.221   0.332
  825TIP3   OH2 2351   3.821   3.966   0.853
  825TIP3    H1 2352   3.778   4.013   0.778
  825TIP3    H2 2353   3.915   3.985   0.832
  826TIP3   OH2 2354   2.893   2.243   1.389
  826TIP3    H1 2355   2.869   2.212   1.299
  826TIP3    H2 2356   2.895   2.159   1.440
  827TIP3   OH2 2357   2.433   3.440   0.761
  827TIP3    H1 2358   2.365   3.487   0.810
  827TIP3    H2 2359   2.425   3.485   0.674
  828TIP3   OH2 2360   2.577   3.982   1.862
  828TIP3    H1 2361   2.670   4.011   1.866
  828TIP3    H2 2362   2.582   3.891   1.831
  829TIP3   OH2 2363   3.061   3.533   0.011
  829TIP3    H1 2364   2.997   3.470   0.050
  829TIP3    H2 2365   3.141   3.478   0.004
  830TIP3   OH2 2366   3.718   3.864   1.605
  830TIP3    H1 2367   3.709   3.796   1.675
  830TIP3    H2 2368   3.793   3.917   1.637
  831TIP3   OH2 2369   3.506   3.592  -0.073
  831TIP3    H1 2370   3.524   3.509  -0.025
  831TIP3    H2 2371   3.571   3.589  -0.144
  832TIP3   OH2 2372   2.720   3.401   2.039
  832TIP3    H1 2373   2.756   3.315   2.012
  832TIP3    H2 2374   2.638   3.406   1.987
  833TIP3   OH2 2375   3.314   3.474   1.771
  833TIP3    H1 2376   3.359   3.483   1.685
  833TIP3    H2 2377   3.351   3.386   1.797
  834TIP3   OH2 2378   3.223   3.272   0.048
  834TIP3    H1 2379   3.233   3.281   0.145
  834TIP3    H2 2380   3.191   3.181   0.040
  835TIP3   OH2 2381   3.820   3.495   1.409
  835TIP3    H1 2382   3.900   3.531   1.365
  835TIP3    H2 2383   3.758   3.569   1.394
  836TIP3   OH2 2384   2.852   3.128   2.008
  836TIP3    H1 2385   2.923   3.063   2.010
  836TIP3    H2 2386   2.864   3.171   2.095
  837TIP3   OH2 2387   2.951   2.938   0.490
  837TIP3    H1 2388   2.950   2.897   0.578
  837TIP3    H2 2389   2.976   2.866   0.429
  838TIP3   OH2 2390   3.194   3.013   1.673
  838TIP3    H1 2391   3.117   3.069   1.683
  838TIP3    H2 2392   3.233   3.045   1.588
  839TIP3   OH2 2393   3.688   3.417   1.805
  839TIP3    H1 2394   3.775   3.405   1.764
  839TIP3    H2 2395   3.692   3.353   1.878
  840TIP3   OH2 2396   3.825   3.089  -0.064
  840TIP3    H1 2397   3.836   3.045  -0.149
  840TIP3    H2 2398   3.827   3.183  -0.088
  841TIP3   OH2 2399   3.300   2.800   1.806
  841TIP3    H1 2400   3.303   2.721   1.749
  841TIP3    H2 2401   3.263   2.867   1.745
  842TIP3   OH2 2402   3.303   2.592   1.609
  842TIP3    H1 2403   3.331   2.635   1.525
  842TIP3    H2 2404   3.209   2.572   1.589
  843TIP3   OH2 2405   3.327   3.130   1.470
  843TIP3    H1 2406   3.416   3.128   1.431
  843TIP3    H2 2407   3.292   3.215   1.439
  844TIP3   OH2 2408   3.915   3.099   1.864
  844TIP3    H1 2409   3.962   3.015   1.872
  844TIP3    H2 2410   3.984   3.157   1.830
  845TIP3   OH2 2411   3.954   3.350   1.596
  845TIP3    H1 2412   3.897   3.405   1.537
  845TIP3    H2 2413   4.042   3.369   1.557
  846TIP3   OH2 2414   3.171   2.926   2.023
  846TIP3    H1 2415   3.105   2.856   2.041
  846TIP3    H2 2416   3.212   2.893   1.941
  847TIP3   OH2 2417   3.436   2.359   1.674
  847TIP3    H1 2418   3.389   2.442   1.651
  847TIP3    H2 2419   3.366   2.293   1.660
  848TIP3   OH2 2420   3.561   2.866   1.891
  848TIP3    H1 2421   3.555   2.854   1.988
  848TIP3    H2 2422   3.471   2.837   1.865
  849TIP3   OH2 2423   3.802   2.815   1.746
  849TIP3    H1 2424   3.726   2.813   1.807
  849TIP3    H2 2425   3.876   2.783   1.803
  850TIP3   OH2 2426   4.028   2.751   1.898
  850TIP3    H1 2427   4.042   2.656   1.917
  850TIP3    H2 2428   4.026   2.792   1.987
  851TIP3   OH2 2429   3.018   2.703   2.082
  851TIP3    H1 2430   3.028   2.613   2.045
  851TIP3    H2 2431   3.054   2.690   2.172
  852TIP3   OH2 2432   3.529   2.367   1.932
  852TIP3    H1 2433   3.599   2.299   1.926
  852TIP3    H2 2434   3.491   2.362   1.841
  853TIP3   OH2 2435   3.594   2.582   2.090
  853TIP3    H1 2436   3.572   2.512   2.026
  853TIP3    H2 2437   3.518   2.642   2.083
  854TIP3   OH2 2438   2.813   3.808   0.193
  854TIP3    H1 2439   2.906   3.808   0.164
  854TIP3    H2 2440   2.768   3.851   0.121
  855TIP3   OH2 2441   2.209   3.802   0.813
  855TIP3    H1 2442   2.139   3.740   0.784
  855TIP3    H2 2443   2.251   3.750   0.884
  856TIP3   OH2 2444   2.349   3.659   1.003
  856TIP3    H1 2445   2.334   3.589   1.069
  856TIP3    H2 2446   2.396   3.725   1.059
  857TIP3   OH2 2447   4.071   4.062   0.806
  857TIP3    H1 2448   4.102   4.094   0.893
  857TIP3    H2 2449   4.135   4.102   0.745
  858TIP3   OH2 2450   4.103   4.080   1.090
  858TIP3    H1 2451   4.062   3.991   1.084
  858TIP3    H2 2452   4.180   4.058   1.145
  859TIP3   OH2 2453   4.149   3.755   1.661
  859TIP3    H1 2454   4.076   3.763   1.725
  859TIP3    H2 2455   4.190   3.844   1.666
  860TIP3   OH2 2456   3.965   3.268   0.282
  860TIP3    H1 2457   4.033   3.333   0.255
  860TIP3    H2 2458   4.008   3.229   0.362
  861TIP3   OH2 2459   4.092   3.137   0.485
  861TIP3    H1 2460   4.028   3.093   0.545
  861TIP3    H2 2461   4.158   3.174   0.548
  862TIP3   OH2 2462   4.144   3.525   0.918
  862TIP3    H1 2463   4.199   3.463   0.867
  862TIP3    H2 2464   4.137   3.601   0.856
  863TIP3   OH2 2465   3.981   3.827   1.115
  863TIP3    H1 2466   3.909   3.870   1.165
  863TIP3    H2 2467   3.931   3.779   1.045
  864TIP3   OH2 2468   4.027   3.043   0.133
  864TIP3    H1 2469   3.952   3.047   0.071
  864TIP3    H2 2470   4.005   3.120   0.190
  865TIP3   OH2 2471   3.906   2.714   0.093
  865TIP3    H1 2472   3.866   2.753   0.015
  865TIP3    H2 2473   3.879   2.620   0.083
  866TIP3   OH2 2474   3.908   2.990   0.634
  866TIP3    H1 2475   3.917   2.894   0.628
  866TIP3    H2 2476   3.896   3.005   0.730
  867TIP3   OH2 2477   2.534   3.062   1.381
  867TIP3    H1 2478   2.532   3.035   1.287
  867TIP3    H2 2479   2.631   3.066   1.397
  868TIP3   OH2 2480   4.195   3.416   1.488
  868TIP3    H1 2481   4.269   3.350   1.481
  868TIP3    H2 2482   4.225   3.486   1.428
  869TIP3   OH2 2483   4.382   3.224   1.512
  869TIP3    H1 2484   4.308   3.172   1.550
  869TIP3    H2 2485   4.455   3.160   1.523
  870TIP3   OH2 2486   3.840   2.452   0.094
  870TIP3    H1 2487   3.927   2.420   0.125
  870TIP3    H2 2488   3.777   2.406   0.151
  871TIP3   OH2 2489   3.905   2.708   0.530
  871TIP3    H1 2490   3.945   2.619   0.545
  871TIP3    H2 2491   3.963   2.740   0.459
  872TIP3   OH2 2492   4.066   2.886   1.022
  872TIP3    H1 2493   4.153   2.911   0.982
  872TIP3    H2 2494   4.081   2.920   1.113
  873TIP3   OH2 2495   4.134   3.026   1.257
  873TIP3    H1 2496   4.055   3.061   1.303
  873TIP3    H2 2497   4.166   3.106   1.210
  874TIP3   OH2 2498   2.750   2.751   2.051
  874TIP3    H1 2499   2.848   2.747   2.054
  874TIP3    H2 2500   2.727   2.667   2.095
  875TIP3   OH2 2501   4.585   2.615   1.812
  875TIP3    H1 2502   4.643   2.549   1.769
  875TIP3    H2 2503   4.559   2.671   1.737
  876TIP3   OH2 2504   4.013   2.457   0.566
  876TIP3    H1 2505   4.061   2.440   0.649
  876TIP3    H2 2506   3.952   2.380   0.564
  877TIP3   OH2 2507   2.710   2.442   1.405
  877TIP3    H1 2508   2.781   2.374   1.401
  877TIP3    H2 2509   2.763   2.519   1.379
  878TIP3   OH2 2510   2.531   2.723   1.460
  878TIP3    H1 2511   2.576   2.717   1.373
  878TIP3    H2 2512   2.546   2.815   1.483
  879TIP3   OH2 2513   4.458   2.758   1.619
  879TIP3    H1 2514   4.370   2.796   1.638
  879TIP3    H2 2515   4.434   2.686   1.559
  880TIP3   OH2 2516   4.103   2.394   0.184
  880TIP3    H1 2517   4.171   2.333   0.153
  880TIP3    H2 2518   4.154   2.477   0.188
  881TIP3   OH2 2519   3.660   3.924   0.467
  881TIP3    H1 2520   3.706   3.905   0.383
  881TIP3    H2 2521   3.718   3.991   0.507
  882TIP3   OH2 2522   2.723   2.303   1.776
  882TIP3    H1 2523   2.670   2.296   1.857
  882TIP3    H2 2524   2.659   2.344   1.714
  883TIP3   OH2 2525   2.752   3.673   1.844
  883TIP3    H1 2526   2.655   3.684   1.842
  883TIP3    H2 2527   2.774   3.718   1.928
  884TIP3   OH2 2528   2.936   3.762   1.403
  884TIP3    H1 2529   2.884   3.836   1.364
  884TIP3    H2 2530   3.017   3.771   1.349
  885TIP3   OH2 2531   3.392   4.000   1.533
  885TIP3    H1 2532   3.427   4.008   1.625
  885TIP3    H2 2533   3.453   4.059   1.484
  886TIP3   OH2 2534   3.564   4.158   1.392
  886TIP3    H1 2535   3.637   4.107   1.354
  886TIP3    H2 2536   3.613   4.215   1.455
  887TIP3   OH2 2537   4.355   2.520   1.495
  887TIP3    H1 2538   4.264   2.515   1.460
  887TIP3    H2 2539   4.385   2.427   1.482
  888TIP3   OH2 2540   2.839   3.993   1.286
  888TIP3    H1 2541   2.786   4.052   1.345
  888TIP3    H2 2542   2.816   4.030   1.198
  889TIP3   OH2 2543   3.277   4.028   1.075
  889TIP3    H1 2544   3.206   4.047   1.012
  889TIP3    H2 2545   3.287   4.115   1.120
  890TIP3   OH2 2546   3.544   3.964   1.128
  890TIP3    H1 2547   3.450   3.981   1.108
  890TIP3    H2 2548   3.587   4.041   1.087
  891TIP3   OH2 2549   3.754   4.159   1.044
  891TIP3    H1 2550   3.739   4.243   0.996
  891TIP3    H2 2551   3.779   4.098   0.971
  892TIP3   OH2 2552   2.525   3.814   1.160
  892TIP3    H1 2553   2.544   3.791   1.254
  892TIP3    H2 2554   2.600   3.770   1.115
  893TIP3   OH2 2555   2.718   3.681   1.020
  893TIP3    H1 2556   2.735   3.600   1.072
  893TIP3    H2 2557   2.807   3.722   1.017
  894TIP3   OH2 2558   2.982   3.782   1.022
  894TIP3    H1 2559   3.018   3.693   1.008
  894TIP3    H2 2560   3.020   3.803   1.110
  895TIP3   OH2 2561   3.564   2.437   1.118
  895TIP3    H1 2562   3.519   2.366   1.167
  895TIP3    H2 2563   3.629   2.388   1.065
  896TIP3   OH2 2564   4.086   2.321   1.025
  896TIP3    H1 2565   4.123   2.368   0.947
  896TIP3    H2 2566   3.990   2.331   1.011
  897TIP3   OH2 2567   4.180   2.416   0.785
  897TIP3    H1 2568   4.251   2.363   0.743
  897TIP3    H2 2569   4.213   2.507   0.768
  898TIP3   OH2 2570   3.252   2.180   0.998
  898TIP3    H1 2571   3.318   2.230   0.948
  898TIP3    H2 2572   3.267   2.210   1.088
  899TIP3   OH2 2573   3.804   2.321   0.993
  899TIP3    H1 2574   3.799   2.285   0.903
  899TIP3    H2 2575   3.785   2.242   1.048
  900TIP3   OH2 2576   3.834   2.243   0.553
  900TIP3    H1 2577   3.743   2.273   0.544
  900TIP3    H2 2578   3.819   2.157   0.601
  901TIP3   OH2 2579   2.303   3.581   0.559
  901TIP3    H1 2580   2.223   3.546   0.516
  901TIP3    H2 2581   2.296   3.674   0.533
  902TIP3   OH2 2582   3.242   2.356   0.632
  902TIP3    H1 2583   3.279   2.297   0.700
  902TIP3    H2 2584   3.269   2.443   0.669
  903TIP3   OH2 2585   3.079   3.779   0.132
  903TIP3    H1 2586   3.171   3.796   0.103
  903TIP3    H2 2587   3.062   3.700   0.076
  904TIP3   OH2 2588   3.803   3.889   0.232
  904TIP3    H1 2589   3.796   3.791   0.218
  904TIP3    H2 2590   3.758   3.922   0.152
  905TIP3   OH2 2591   3.017   2.423   2.020
  905TIP3    H1 2592   2.985   2.353   2.080
  905TIP3    H2 2593   3.112   2.426   2.046
  906TIP3   OH2 2594   3.265   2.420   2.140
  906TIP3    H1 2595   3.351   2.399   2.100
  906TIP3    H2 2596   3.257   2.350   2.207
  907TIP3   OH2 2597   2.425   3.649   0.223
  907TIP3    H1 2598   2.364   3.662   0.297
  907TIP3    H2 2599   2.470   3.567   0.246
  908TIP3   OH2 2600   4.090   2.481   1.928
  908TIP3    H1 2601   4.111   2.450   2.019
  908TIP3    H2 2602   4.178   2.478   1.885
  909TIP3   OH2 2603   4.031   4.035   1.420
  909TIP3    H1 2604   3.952   4.003   1.373
  909TIP3    H2 2605   4.012   4.131   1.423
  910TIP3   OH2 2606   5.297   3.409   0.188
  910TIP3    H1 2607   5.266   3.499   0.164
  910TIP3    H2 2608   5.221   3.357   0.156
  911TIP3   OH2 2609   5.293   3.408   0.567
  911TIP3    H1 2610   5.324   3.372   0.651
  911TIP3    H2 2611   5.255   3.330   0.524
  912TIP3   OH2 2612   4.594   3.305   0.935
  912TIP3    H1 2613   4.627   3.237   0.997
  912TIP3    H2 2614   4.674   3.358   0.920
  913TIP3   OH2 2615   5.543   3.704   0.248
  913TIP3    H1 2616   5.521   3.637   0.313
  913TIP3    H2 2617   5.565   3.781   0.303
  914TIP3   OH2 2618   4.565   3.711   0.661
  914TIP3    H1 2619   4.556   3.613   0.663
  914TIP3    H2 2620   4.661   3.720   0.653
  915TIP3   OH2 2621   4.272   2.917   0.447
  915TIP3    H1 2622   4.223   3.000   0.457
  915TIP3    H2 2623   4.202   2.861   0.409
  916TIP3   OH2 2624   4.333   3.203   0.613
  916TIP3    H1 2625   4.381   3.126   0.651
  916TIP3    H2 2626   4.391   3.229   0.540
  917TIP3   OH2 2627   5.184   4.171   0.265
  917TIP3    H1 2628   5.233   4.100   0.217
  917TIP3    H2 2629   5.181   4.135   0.354
  918TIP3   OH2 2630   5.094   3.632   0.616
  918TIP3    H1 2631   5.130   3.555   0.568
  918TIP3    H2 2632   5.178   3.676   0.638
  919TIP3   OH2 2633   6.109   2.952   0.615
  919TIP3    H1 2634   6.137   3.036   0.656
  919TIP3    H2 2635   6.122   2.970   0.521
  920TIP3   OH2 2636   5.504   3.135   0.651
  920TIP3    H1 2637   5.552   3.051   0.669
  920TIP3    H2 2638   5.476   3.120   0.559
  921TIP3   OH2 2639   4.840   2.794   0.616
  921TIP3    H1 2640   4.823   2.866   0.552
  921TIP3    H2 2641   4.794   2.720   0.570
  922TIP3   OH2 2642   4.477   2.996   0.721
  922TIP3    H1 2643   4.560   2.975   0.767
  922TIP3    H2 2644   4.489   2.941   0.641
  923TIP3   OH2 2645   4.919   3.194   0.514
  923TIP3    H1 2646   5.013   3.169   0.525
  923TIP3    H2 2647   4.880   3.110   0.481
  924TIP3   OH2 2648   6.182   3.164   0.781
  924TIP3    H1 2649   6.096   3.209   0.765
  924TIP3    H2 2650   6.190   3.178   0.876
  925TIP3   OH2 2651   4.840   2.777   1.048
  925TIP3    H1 2652   4.780   2.813   0.980
  925TIP3    H2 2653   4.789   2.796   1.129
  926TIP3   OH2 2654   5.184   3.626   0.062
  926TIP3    H1 2655   5.154   3.607  -0.029
  926TIP3    H2 2656   5.142   3.712   0.078
  927TIP3   OH2 2657   4.947   3.551   0.846
  927TIP3    H1 2658   4.883   3.616   0.883
  927TIP3    H2 2659   4.989   3.603   0.774
  928TIP3   OH2 2660   4.710   2.892   0.834
  928TIP3    H1 2661   4.773   2.964   0.855
  928TIP3    H2 2662   4.757   2.851   0.758
  929TIP3   OH2 2663   4.773   3.744   0.941
  929TIP3    H1 2664   4.748   3.829   0.900
  929TIP3    H2 2665   4.694   3.730   0.998
  930TIP3   OH2 2666   4.171   3.434   0.181
  930TIP3    H1 2667   4.132   3.456   0.094
  930TIP3    H2 2668   4.199   3.521   0.214
  931TIP3   OH2 2669   5.611   3.950   0.419
  931TIP3    H1 2670   5.521   3.941   0.457
  931TIP3    H2 2671   5.602   4.036   0.372
  932TIP3   OH2 2672   5.895   2.856   0.780
  932TIP3    H1 2673   5.806   2.877   0.746
  932TIP3    H2 2674   5.951   2.882   0.704
  933TIP3   OH2 2675   5.200   2.496   0.762
  933TIP3    H1 2676   5.187   2.401   0.778
  933TIP3    H2 2677   5.121   2.533   0.807
  934TIP3   OH2 2678   5.310   3.998   0.096
  934TIP3    H1 2679   5.360   3.916   0.072
  934TIP3    H2 2680   5.368   4.065   0.053
  935TIP3   OH2 2681   5.452   3.788  -0.003
  935TIP3    H1 2682   5.438   3.710  -0.061
  935TIP3    H2 2683   5.487   3.745   0.078
  936TIP3   OH2 2684   5.836   3.866   0.760
  936TIP3    H1 2685   5.824   3.788   0.702
  936TIP3    H2 2686   5.818   3.940   0.699
  937TIP3   OH2 2687   5.128   3.260   0.015
  937TIP3    H1 2688   5.046   3.310  -0.005
  937TIP3    H2 2689   5.168   3.252  -0.073
  938TIP3   OH2 2690   5.080   3.032  -0.239
  938TIP3    H1 2691   5.161   3.078  -0.212
  938TIP3    H2 2692   5.115   2.965  -0.299
  939TIP3   OH2 2693   6.031   3.502   0.603
  939TIP3    H1 2694   5.948   3.554   0.612
  939TIP3    H2 2695   6.054   3.520   0.510
  940TIP3   OH2 2696   5.473   3.333  -0.004
  940TIP3    H1 2697   5.416   3.364   0.070
  940TIP3    H2 2698   5.551   3.303   0.044
  941TIP3   OH2 2699   5.709   3.382   0.898
  941TIP3    H1 2700   5.705   3.466   0.947
  941TIP3    H2 2701   5.622   3.383   0.853
  942TIP3   OH2 2702   4.706   3.340   0.407
  942TIP3    H1 2703   4.664   3.282   0.339
  942TIP3    H2 2704   4.783   3.286   0.434
  943TIP3   OH2 2705   4.835   3.749   0.555
  943TIP3    H1 2706   4.815   3.706   0.471
  943TIP3    H2 2707   4.926   3.717   0.573
  944TIP3   OH2 2708   4.842   3.310   0.760
  944TIP3    H1 2709   4.875   3.289   0.671
  944TIP3    H2 2710   4.886   3.396   0.780
  945TIP3   OH2 2711   5.368   3.948   0.537
  945TIP3    H1 2712   5.354   4.027   0.591
  945TIP3    H2 2713   5.355   3.874   0.600
  946TIP3   OH2 2714   4.980   3.867   1.084
  946TIP3    H1 2715   4.920   3.930   1.130
  946TIP3    H2 2716   4.913   3.814   1.035
  947TIP3   OH2 2717   5.320   3.205  -0.190
  947TIP3    H1 2718   5.376   3.254  -0.125
  947TIP3    H2 2719   5.341   3.253  -0.271
  948TIP3   OH2 2720   4.735   3.425   1.184
  948TIP3    H1 2721   4.738   3.511   1.230
  948TIP3    H2 2722   4.639   3.406   1.189
  949TIP3   OH2 2723   5.053   3.879   0.097
  949TIP3    H1 2724   5.129   3.936   0.119
  949TIP3    H2 2725   4.988   3.939   0.060
  950TIP3   OH2 2726   4.775   4.037   1.170
  950TIP3    H1 2727   4.740   4.033   1.079
  950TIP3    H2 2728   4.695   4.015   1.223
  951TIP3   OH2 2729   5.807   2.442  -0.125
  951TIP3    H1 2730   5.729   2.462  -0.068
  951TIP3    H2 2731   5.816   2.525  -0.175
  952TIP3   OH2 2732   4.571   3.182   0.214
  952TIP3    H1 2733   4.508   3.228   0.154
  952TIP3    H2 2734   4.530   3.096   0.223
  953TIP3   OH2 2735   4.353   3.566   1.118
  953TIP3    H1 2736   4.291   3.542   1.046
  953TIP3    H2 2737   4.391   3.479   1.144
  954TIP3   OH2 2738   4.208   3.757   0.754
  954TIP3    H1 2739   4.303   3.749   0.740
  954TIP3    H2 2740   4.202   3.838   0.806
  955TIP3   OH2 2741   6.074   4.208   0.805
  955TIP3    H1 2742   6.071   4.111   0.819
  955TIP3    H2 2743   5.990   4.234   0.850
  956TIP3   OH2 2744   5.179   3.997   0.940
  956TIP3    H1 2745   5.179   4.089   0.973
  956TIP3    H2 2746   5.108   3.958   0.995
  957TIP3   OH2 2747   4.909   4.130  -0.094
  957TIP3    H1 2748   4.899   4.113  -0.188
  957TIP3    H2 2749   4.903   4.227  -0.090
  958TIP3   OH2 2750   4.375   3.976   0.276
  958TIP3    H1 2751   4.424   3.965   0.360
  958TIP3    H2 2752   4.319   3.897   0.278
  959TIP3   OH2 2753   5.166   4.045  -0.154
  959TIP3    H1 2754   5.076   4.057  -0.119
  959TIP3    H2 2755   5.211   4.001  -0.080
  960TIP3   OH2 2756   5.963   3.342   1.079
  960TIP3    H1 2757   5.884   3.356   1.026
  960TIP3    H2 2758   5.978   3.246   1.068
  961TIP3   OH2 2759   4.559   3.749   1.109
  961TIP3    H1 2760   4.610   3.731   1.191
  961TIP3    H2 2761   4.485   3.685   1.116
  962TIP3   OH2 2762   4.958   2.571   0.889
  962TIP3    H1 2763   4.868   2.541   0.864
  962TIP3    H2 2764   4.935   2.656   0.932
  963TIP3   OH2 2765   5.492   2.688   1.084
  963TIP3    H1 2766   5.559   2.660   1.149
  963TIP3    H2 2767   5.407   2.667   1.129
  964TIP3   OH2 2768   5.736   3.118   1.005
  964TIP3    H1 2769   5.684   3.113   1.089
  964TIP3    H2 2770   5.707   3.203   0.967
  965TIP3   OH2 2771   5.116   2.637  -0.132
  965TIP3    H1 2772   5.076   2.630  -0.044
  965TIP3    H2 2773   5.078   2.562  -0.178
  966TIP3   OH2 2774   4.889   3.087   0.908
  966TIP3    H1 2775   4.839   3.109   0.989
  966TIP3    H2 2776   4.874   3.168   0.854
  967TIP3   OH2 2777   4.774   2.974   0.424
  967TIP3    H1 2778   4.681   2.947   0.439
  967TIP3    H2 2779   4.789   2.934   0.335
  968TIP3   OH2 2780   5.260   3.059   0.152
  968TIP3    H1 2781   5.210   3.129   0.105
  968TIP3    H2 2782   5.321   3.028   0.083
  969TIP3   OH2 2783   5.439   3.341   1.239
  969TIP3    H1 2784   5.417   3.266   1.300
  969TIP3    H2 2785   5.534   3.352   1.259
  970TIP3   OH2 2786   5.422   3.087   0.391
  970TIP3    H1 2787   5.361   3.103   0.317
  970TIP3    H2 2788   5.484   3.026   0.344
  971TIP3   OH2 2789   4.707   3.118   1.118
  971TIP3    H1 2790   4.738   3.180   1.186
  971TIP3    H2 2791   4.698   3.035   1.169
  972TIP3   OH2 2792   4.763   2.570  -0.167
  972TIP3    H1 2793   4.760   2.583  -0.071
  972TIP3    H2 2794   4.687   2.622  -0.197
  973TIP3   OH2 2795   4.302   2.640   0.698
  973TIP3    H1 2796   4.378   2.671   0.751
  973TIP3    H2 2797   4.343   2.607   0.617
  974TIP3   OH2 2798   4.274   2.622   0.216
  974TIP3    H1 2799   4.325   2.659   0.141
  974TIP3    H2 2800   4.217   2.698   0.238
  975TIP3   OH2 2801   5.435   3.336   0.815
  975TIP3    H1 2802   5.466   3.263   0.755
  975TIP3    H2 2803   5.405   3.284   0.892
  976TIP3   OH2 2804   5.097   2.798   0.485
  976TIP3    H1 2805   5.018   2.795   0.541
  976TIP3    H2 2806   5.169   2.794   0.550
  977TIP3   OH2 2807   4.535   2.850   0.494
  977TIP3    H1 2808   4.441   2.856   0.467
  977TIP3    H2 2809   4.560   2.760   0.469
  978TIP3   OH2 2810   4.808   2.850   0.183
  978TIP3    H1 2811   4.904   2.862   0.165
  978TIP3    H2 2812   4.765   2.872   0.097
  979TIP3   OH2 2813   5.599   2.877   0.697
  979TIP3    H1 2814   5.547   2.882   0.779
  979TIP3    H2 2815   5.547   2.814   0.644
  980TIP3   OH2 2816   4.648   2.877  -0.037
  980TIP3    H1 2817   4.558   2.854  -0.065
  980TIP3    H2 2818   4.689   2.915  -0.117
  981TIP3   OH2 2819   5.761   4.560   0.904
  981TIP3    H1 2820   5.759   4.584   0.809
  981TIP3    H2 2821   5.838   4.610   0.935
  982TIP3   OH2 2822   4.719   3.670   1.327
  982TIP3    H1 2823   4.800   3.701   1.374
  982TIP3    H2 2824   4.655   3.671   1.401
  983TIP3   OH2 2825   5.186   3.123   0.580
  983TIP3    H1 2826   5.257   3.087   0.524
  983TIP3    H2 2827   5.202   3.079   0.665
  984TIP3   OH2 2828   4.709   2.613   0.457
  984TIP3    H1 2829   4.678   2.531   0.501
  984TIP3    H2 2830   4.764   2.579   0.385
  985TIP3   OH2 2831   5.161   3.015   0.877
  985TIP3    H1 2832   5.072   3.055   0.886
  985TIP3    H2 2833   5.219   3.078   0.923
  986TIP3   OH2 2834   4.893   3.411  -0.032
  986TIP3    H1 2835   4.821   3.345  -0.042
  986TIP3    H2 2836   4.878   3.443   0.061
  987TIP3   OH2 2837   5.799   3.647   0.597
  987TIP3    H1 2838   5.822   3.695   0.514
  987TIP3    H2 2839   5.713   3.606   0.574
  988TIP3   OH2 2840   5.374   2.718  -0.185
  988TIP3    H1 2841   5.278   2.698  -0.180
  988TIP3    H2 2842   5.378   2.813  -0.161
  989TIP3   OH2 2843   5.299   3.730   0.963
  989TIP3    H1 2844   5.317   3.705   1.055
  989TIP3    H2 2845   5.259   3.818   0.971
  990TIP3   OH2 2846   5.421   2.965  -0.082
  990TIP3    H1 2847   5.501   2.970  -0.024
  990TIP3    H2 2848   5.418   3.052  -0.124
  991TIP3   OH2 2849   4.589   3.432   0.644
  991TIP3    H1 2850   4.627   3.406   0.557
  991TIP3    H2 2851   4.630   3.368   0.703
  992TIP3   OH2 2852   5.046   3.570  -0.193
  992TIP3    H1 2853   4.997   3.656  -0.190
  992TIP3    H2 2854   4.987   3.512  -0.141
  993TIP3   OH2 2855   4.467   3.356   1.257
  993TIP3    H1 2856   4.492   3.341   1.350
  993TIP3    H2 2857   4.402   3.286   1.241
  994TIP3   OH2 2858   5.194   3.466   1.276
  994TIP3    H1 2859   5.137   3.409   1.222
  994TIP3    H2 2860   5.283   3.434   1.249
  995TIP3   OH2 2861   5.459   3.990   0.858
  995TIP3    H1 2862   5.363   3.987   0.869
  995TIP3    H2 2863   5.486   4.041   0.937
  996TIP3   OH2 2864   5.858   3.121  -0.219
  996TIP3    H1 2865   5.845   3.026  -0.230
  996TIP3    H2 2866   5.860   3.151  -0.311
  997TIP3   OH2 2867   6.086   3.917   0.850
  997TIP3    H1 2868   5.988   3.912   0.842
  997TIP3    H2 2869   6.112   3.888   0.760
  998TIP3   OH2 2870   5.564   3.508   0.519
  998TIP3    H1 2871   5.470   3.484   0.531
  998TIP3    H2 2872   5.597   3.428   0.473
  999TIP3   OH2 2873   4.689   3.737   0.270
  999TIP3    H1 2874   4.693   3.817   0.215
  999TIP3    H2 2875   4.595   3.720   0.272
 1000TIP3   OH2 2876   4.257   3.042  -0.025
 1000TIP3    H1 2877   4.302   3.127  -0.009
 1000TIP3    H2 2878   4.178   3.050   0.032
 1001TIP3   OH2 2879   4.831   3.504   0.215
 1001TIP3    H1 2880   4.797   3.594   0.233
 1001TIP3    H2 2881   4.794   3.454   0.290
 1002TIP3   OH2 2882   4.959   4.081   0.738
 1002TIP3    H1 2883   4.999   4.153   0.686
 1002TIP3    H2 2884   5.036   4.047   0.786
 1003TIP3   OH2 2885   4.611   3.975   0.123
 1003TIP3    H1 2886   4.524   3.984   0.166
 1003TIP3    H2 2887   4.642   4.068   0.123
 1004TIP3   OH2 2888   5.351   3.716   0.694
 1004TIP3    H1 2889   5.342   3.713   0.792
 1004TIP3    H2 2890   5.429   3.660   0.680
 1005TIP3   OH2 2891   5.598   4.250   0.746
 1005TIP3    H1 2892   5.520   4.193   0.738
 1005TIP3    H2 2893   5.582   4.315   0.674
 1006TIP3   OH2 2894   4.684   2.861   1.266
 1006TIP3    H1 2895   4.587   2.864   1.279
 1006TIP3    H2 2896   4.711   2.798   1.334
 1007TIP3   OH2 2897   5.471   3.559  -0.171
 1007TIP3    H1 2898   5.467   3.480  -0.115
 1007TIP3    H2 2899   5.566   3.559  -0.195
 1008TIP3   OH2 2900   4.397   3.946   0.898
 1008TIP3    H1 2901   4.449   3.868   0.923
 1008TIP3    H2 2902   4.431   4.011   0.961
 1009TIP3   OH2 2903   4.668   3.569  -0.428
 1009TIP3    H1 2904   4.719   3.488  -0.441
 1009TIP3    H2 2905   4.655   3.569  -0.332
 1010TIP3   OH2 2906   4.636   3.592  -0.148
 1010TIP3    H1 2907   4.710   3.565  -0.091
 1010TIP3    H2 2908   4.642   3.690  -0.142
 1011TIP3   OH2 2909   4.373   3.289   0.053
 1011TIP3    H1 2910   4.307   3.336   0.109
 1011TIP3    H2 2911   4.390   3.356  -0.015
 1012TIP3   OH2 2912   5.508   2.931   0.955
 1012TIP3    H1 2913   5.597   2.960   0.981
 1012TIP3    H2 2914   5.499   2.846   1.003
 1013TIP3   OH2 2915   5.401   2.696   0.109
 1013TIP3    H1 2916   5.386   2.708   0.014
 1013TIP3    H2 2917   5.459   2.773   0.128
 1014TIP3   OH2 2918   4.899   3.799  -0.208
 1014TIP3    H1 2919   4.811   3.826  -0.175
 1014TIP3    H2 2920   4.894   3.831  -0.299
 1015TIP3   OH2 2921   5.086   2.853   0.211
 1015TIP3    H1 2922   5.153   2.921   0.190
 1015TIP3    H2 2923   5.095   2.846   0.308
 1016TIP3   OH2 2924   5.356   3.174   1.020
 1016TIP3    H1 2925   5.378   3.225   1.100
 1016TIP3    H2 2926   5.411   3.095   1.028
 1017TIP3   OH2 2927   5.238   2.586   0.311
 1017TIP3    H1 2928   5.234   2.658   0.376
 1017TIP3    H2 2929   5.297   2.627   0.243
 1018TIP3   OH2 2930   4.640   3.863  -0.131
 1018TIP3    H1 2931   4.613   3.934  -0.194
 1018TIP3    H2 2932   4.628   3.909  -0.045
 1019TIP3   OH2 2933   4.745   2.581   0.109
 1019TIP3    H1 2934   4.743   2.672   0.142
 1019TIP3    H2 2935   4.841   2.562   0.117
 1020TIP3   OH2 2936   6.001   3.072   0.995
 1020TIP3    H1 2937   5.904   3.074   1.007
 1020TIP3    H2 2938   6.005   3.027   0.909
 1021TIP3   OH2 2939   5.642   3.273   0.390
 1021TIP3    H1 2940   5.570   3.207   0.392
 1021TIP3    H2 2941   5.714   3.225   0.437
 1022TIP3   OH2 2942   4.362   3.508  -0.140
 1022TIP3    H1 2943   4.437   3.570  -0.131
 1022TIP3    H2 2944   4.404   3.445  -0.203
 1023TIP3   OH2 2945   4.319   2.778  -0.012
 1023TIP3    H1 2946   4.305   2.875  -0.022
 1023TIP3    H2 2947   4.240   2.744  -0.056
 1024TIP3   OH2 2948   5.614   4.219   0.339
 1024TIP3    H1 2949   5.570   4.268   0.266
 1024TIP3    H2 2950   5.707   4.243   0.320
 1025TIP3   OH2 2951   4.692   2.493   0.867
 1025TIP3    H1 2952   4.662   2.460   0.780
 1025TIP3    H2 2953   4.682   2.413   0.924
 1026TIP3   OH2 2954   4.237   3.717   0.251
 1026TIP3    H1 2955   4.156   3.744   0.296
 1026TIP3    H2 2956   4.219   3.751   0.161
 1027TIP3   OH2 2957   4.387   4.249   1.318
 1027TIP3    H1 2958   4.474   4.248   1.364
 1027TIP3    H2 2959   4.367   4.154   1.316
 1028TIP3   OH2 2960   4.872   4.219   1.361
 1028TIP3    H1 2961   4.967   4.199   1.370
 1028TIP3    H2 2962   4.848   4.162   1.286
 1029TIP3   OH2 2963   5.510   4.123   1.094
 1029TIP3    H1 2964   5.501   4.053   1.163
 1029TIP3    H2 2965   5.588   4.173   1.125
 1030TIP3   OH2 2966   4.519   3.657   1.518
 1030TIP3    H1 2967   4.537   3.561   1.521
 1030TIP3    H2 2968   4.431   3.659   1.474
 1031TIP3   OH2 2969   4.502   3.319  -0.274
 1031TIP3    H1 2970   4.566   3.277  -0.215
 1031TIP3    H2 2971   4.540   3.303  -0.361
 1032TIP3   OH2 2972   5.128   3.741   1.291
 1032TIP3    H1 2973   5.086   3.756   1.204
 1032TIP3    H2 2974   5.159   3.648   1.285
 1033TIP3   OH2 2975   5.045   3.528  -0.467
 1033TIP3    H1 2976   5.047   3.555  -0.373
 1033TIP3    H2 2977   5.042   3.432  -0.458
 1034TIP3   OH2 2978   5.621   3.748   0.897
 1034TIP3    H1 2979   5.694   3.796   0.853
 1034TIP3    H2 2980   5.548   3.811   0.885
 1035TIP3   OH2 2981   4.637   3.389   1.499
 1035TIP3    H1 2982   4.713   3.333   1.478
 1035TIP3    H2 2983   4.662   3.423   1.587
 1036TIP3   OH2 2984   4.704   3.210  -0.067
 1036TIP3    H1 2985   4.682   3.166   0.017
 1036TIP3    H2 2986   4.742   3.136  -0.120
 1037TIP3   OH2 2987   4.972   3.276   1.161
 1037TIP3    H1 2988   4.896   3.338   1.165
 1037TIP3    H2 2989   5.021   3.309   1.082
 1038TIP3   OH2 2990   4.801   3.003  -0.230
 1038TIP3    H1 2991   4.791   2.985  -0.324
 1038TIP3    H2 2992   4.899   3.018  -0.225
 1039TIP3   OH2 2993   5.490   3.679   1.296
 1039TIP3    H1 2994   5.571   3.659   1.247
 1039TIP3    H2 2995   5.489   3.610   1.364
 1040TIP3   OH2 2996   5.096   3.063   1.290
 1040TIP3    H1 2997   5.097   2.983   1.234
 1040TIP3    H2 2998   5.054   3.129   1.230
 1041TIP3   OH2 2999   5.099   2.850   1.096
 1041TIP3    H1 3000   5.127   2.892   1.012
 1041TIP3    H2 3001   5.005   2.827   1.076
 1042TIP3   OH2 3002   5.129   3.389   0.969
 1042TIP3    H1 3003   5.210   3.391   0.916
 1042TIP3    H2 3004   5.073   3.456   0.924
 1043TIP3   OH2 3005   5.712   3.356   1.352
 1043TIP3    H1 3006   5.758   3.271   1.356
 1043TIP3    H2 3007   5.780   3.414   1.315
 1044TIP3   OH2 3008   5.751   3.607   1.087
 1044TIP3    H1 3009   5.693   3.659   1.026
 1044TIP3    H2 3010   5.838   3.626   1.045
 1045TIP3   OH2 3011   4.972   3.180   1.517
 1045TIP3    H1 3012   4.904   3.111   1.529
 1045TIP3    H2 3013   5.009   3.155   1.429
 1046TIP3   OH2 3014   5.232   2.616   1.160
 1046TIP3    H1 3015   5.184   2.699   1.138
 1046TIP3    H2 3016   5.163   2.548   1.148
 1047TIP3   OH2 3017   5.357   3.122   1.377
 1047TIP3    H1 3018   5.347   3.110   1.473
 1047TIP3    H2 3019   5.267   3.096   1.348
 1048TIP3   OH2 3020   5.600   3.073   1.234
 1048TIP3    H1 3021   5.522   3.070   1.293
 1048TIP3    H2 3022   5.671   3.038   1.292
 1049TIP3   OH2 3023   5.830   3.009   1.385
 1049TIP3    H1 3024   5.840   2.914   1.404
 1049TIP3    H2 3025   5.824   3.049   1.475
 1050TIP3   OH2 3026   4.813   2.960   1.569
 1050TIP3    H1 3027   4.822   2.870   1.532
 1050TIP3    H2 3028   4.849   2.945   1.659
 1051TIP3   OH2 3029   5.326   2.625   1.418
 1051TIP3    H1 3030   5.395   2.555   1.412
 1051TIP3    H2 3031   5.287   2.619   1.328
 1052TIP3   OH2 3032   5.391   2.839   1.578
 1052TIP3    H1 3033   5.369   2.768   1.513
 1052TIP3    H2 3034   5.314   2.899   1.570
 1053TIP3   OH2 3035   4.593   4.067  -0.307
 1053TIP3    H1 3036   4.679   4.081  -0.349
 1053TIP3    H2 3037   4.535   4.081  -0.383
 1054TIP3   OH2 3038   4.099   3.448  -0.092
 1054TIP3    H1 3039   4.188   3.483  -0.113
 1054TIP3    H2 3040   4.097   3.370  -0.149
 1055TIP3   OH2 3041   4.004   4.064   0.306
 1055TIP3    H1 3042   3.936   4.000   0.273
 1055TIP3    H2 3043   4.049   4.008   0.373
 1056TIP3   OH2 3044   4.140   3.920   0.495
 1056TIP3    H1 3045   4.132   3.841   0.550
 1056TIP3    H2 3046   4.193   3.978   0.553
 1057TIP3   OH2 3047   5.860   4.322   0.296
 1057TIP3    H1 3048   5.889   4.354   0.384
 1057TIP3    H2 3049   5.932   4.353   0.239
 1058TIP3   OH2 3050   5.901   4.335   0.575
 1058TIP3    H1 3051   5.857   4.247   0.572
 1058TIP3    H2 3052   5.975   4.314   0.634
 1059TIP3   OH2 3053   5.946   4.012   1.148
 1059TIP3    H1 3054   5.872   4.019   1.211
 1059TIP3    H2 3055   5.986   4.101   1.153
 1060TIP3   OH2 3056   5.742   3.543  -0.205
 1060TIP3    H1 3057   5.809   3.595  -0.253
 1060TIP3    H2 3058   5.781   3.455  -0.206
 1061TIP3   OH2 3059   5.947   3.779   0.404
 1061TIP3    H1 3060   5.999   3.722   0.345
 1061TIP3    H2 3061   5.930   3.857   0.348
 1062TIP3   OH2 3062   5.776   4.084   0.601
 1062TIP3    H1 3063   5.706   4.127   0.653
 1062TIP3    H2 3064   5.724   4.036   0.532
 1063TIP3   OH2 3065   5.753   3.233   0.148
 1063TIP3    H1 3066   5.708   3.145   0.132
 1063TIP3    H2 3067   5.697   3.262   0.224
 1064TIP3   OH2 3068   4.331   3.322   0.866
 1064TIP3    H1 3069   4.330   3.293   0.772
 1064TIP3    H2 3070   4.428   3.325   0.883
 1065TIP3   OH2 3071   5.992   3.672   0.976
 1065TIP3    H1 3072   6.065   3.607   0.968
 1065TIP3    H2 3073   6.020   3.743   0.915
 1066TIP3   OH2 3074   6.179   3.481   0.997
 1066TIP3    H1 3075   6.104   3.430   1.034
 1066TIP3    H2 3076   6.251   3.416   1.010
 1067TIP3   OH2 3077   5.621   2.706  -0.412
 1067TIP3    H1 3078   5.706   2.675  -0.375
 1067TIP3    H2 3079   5.558   2.665  -0.352
 1068TIP3   OH2 3080   5.861   3.166   0.510
 1068TIP3    H1 3081   5.952   3.182   0.477
 1068TIP3    H2 3082   5.873   3.184   0.605
 1069TIP3   OH2 3083   5.934   3.285   0.751
 1069TIP3    H1 3084   5.852   3.316   0.795
 1069TIP3    H2 3085   5.962   3.366   0.702
 1070TIP3   OH2 3086   4.546   3.010   1.541
 1070TIP3    H1 3087   4.644   3.003   1.541
 1070TIP3    H2 3088   4.523   2.925   1.583
 1071TIP3   OH2 3089   6.384   2.873   1.299
 1071TIP3    H1 3090   6.440   2.806   1.254
 1071TIP3    H2 3091   6.355   2.929   1.224
 1072TIP3   OH2 3092   5.840   2.691   0.039
 1072TIP3    H1 3093   5.841   2.718   0.132
 1072TIP3    H2 3094   5.757   2.639   0.038
 1073TIP3   OH2 3095   4.508   2.701   0.875
 1073TIP3    H1 3096   4.570   2.626   0.883
 1073TIP3    H2 3097   4.571   2.775   0.867
 1074TIP3   OH2 3098   4.313   2.976   0.946
 1074TIP3    H1 3099   4.361   2.965   0.861
 1074TIP3    H2 3100   4.345   3.063   0.973
 1075TIP3   OH2 3101   6.255   3.015   1.106
 1075TIP3    H1 3102   6.167   3.053   1.126
 1075TIP3    H2 3103   6.228   2.943   1.045
 1076TIP3   OH2 3104   5.867   2.644  -0.296
 1076TIP3    H1 3105   5.938   2.603  -0.349
 1076TIP3    H2 3106   5.896   2.737  -0.296
 1077TIP3   OH2 3107   4.295   2.480   0.446
 1077TIP3    H1 3108   4.201   2.478   0.472
 1077TIP3    H2 3109   4.294   2.537   0.366
 1078TIP3   OH2 3110   5.456   4.181  -0.039
 1078TIP3    H1 3111   5.494   4.152  -0.123
 1078TIP3    H2 3112   5.515   4.253  -0.012
 1079TIP3   OH2 3113   4.515   2.560   1.262
 1079TIP3    H1 3114   4.463   2.554   1.344
 1079TIP3    H2 3115   4.448   2.596   1.201
 1080TIP3   OH2 3116   4.555   3.985   1.338
 1080TIP3    H1 3117   4.464   3.955   1.320
 1080TIP3    H2 3118   4.564   3.966   1.433
 1081TIP3   OH2 3119   4.731   4.015   0.885
 1081TIP3    H1 3120   4.684   4.091   0.846
 1081TIP3    H2 3121   4.818   4.029   0.841
 1082TIP3   OH2 3122   5.180   4.263   1.023
 1082TIP3    H1 3123   5.222   4.264   1.112
 1082TIP3    H2 3124   5.246   4.313   0.971
 1083TIP3   OH2 3125   5.358   4.412   0.880
 1083TIP3    H1 3126   5.430   4.362   0.839
 1083TIP3    H2 3127   5.409   4.470   0.941
 1084TIP3   OH2 3128   6.151   2.777   0.981
 1084TIP3    H1 3129   6.060   2.774   0.948
 1084TIP3    H2 3130   6.180   2.684   0.969
 1085TIP3   OH2 3131   4.410   4.275   0.906
 1085TIP3    H1 3132   4.322   4.311   0.884
 1085TIP3    H2 3133   4.418   4.305   0.998
 1086TIP3   OH2 3134   4.647   4.253   0.765
 1086TIP3    H1 3135   4.560   4.266   0.810
 1086TIP3    H2 3136   4.626   4.286   0.675
 1087TIP3   OH2 3137   5.072   4.283   0.563
 1087TIP3    H1 3138   5.003   4.305   0.497
 1087TIP3    H2 3139   5.086   4.370   0.606
 1088TIP3   OH2 3140   5.340   4.223   0.614
 1088TIP3    H1 3141   5.246   4.239   0.594
 1088TIP3    H2 3142   5.383   4.300   0.573
 1089TIP3   OH2 3143   5.550   4.415   0.531
 1089TIP3    H1 3144   5.534   4.500   0.484
 1089TIP3    H2 3145   5.573   4.355   0.457
 1090TIP3   OH2 3146   4.321   4.069   0.655
 1090TIP3    H1 3147   4.349   4.044   0.745
 1090TIP3    H2 3148   4.393   4.025   0.603
 1091TIP3   OH2 3149   4.513   3.940   0.509
 1091TIP3    H1 3150   4.530   3.855   0.556
 1091TIP3    H2 3151   4.604   3.977   0.504
 1092TIP3   OH2 3152   4.779   4.037   0.511
 1092TIP3    H1 3153   4.811   3.946   0.496
 1092TIP3    H2 3154   4.823   4.056   0.596
 1093TIP3   OH2 3155   5.349   2.690   0.594
 1093TIP3    H1 3156   5.313   2.619   0.650
 1093TIP3    H2 3157   5.428   2.648   0.555
 1094TIP3   OH2 3158   5.880   2.571   0.509
 1094TIP3    H1 3159   5.921   2.625   0.438
 1094TIP3    H2 3160   5.788   2.600   0.506
 1095TIP3   OH2 3161   5.988   2.687   0.286
 1095TIP3    H1 3162   6.047   2.630   0.232
 1095TIP3    H2 3163   6.011   2.776   0.255
 1096TIP3   OH2 3164   4.605   2.400   0.619
 1096TIP3    H1 3165   4.513   2.366   0.618
 1096TIP3    H2 3166   4.655   2.316   0.616
 1097TIP3   OH2 3167   4.371   2.267   0.258
 1097TIP3    H1 3168   4.422   2.320   0.191
 1097TIP3    H2 3169   4.358   2.334   0.328
 1098TIP3   OH2 3170   5.046   2.434   0.497
 1098TIP3    H1 3171   5.105   2.483   0.437
 1098TIP3    H2 3172   5.071   2.471   0.583
 1099TIP3   OH2 3173   5.590   2.580   0.488
 1099TIP3    H1 3174   5.595   2.555   0.395
 1099TIP3    H2 3175   5.577   2.493   0.533
 1100TIP3   OH2 3176   5.617   2.506   0.057
 1100TIP3    H1 3177   5.528   2.546   0.056
 1100TIP3    H2 3178   5.601   2.421   0.103
 1101TIP3   OH2 3179   4.109   3.836   0.044
 1101TIP3    H1 3180   4.025   3.800   0.011
 1101TIP3    H2 3181   4.092   3.931   0.034
 1102TIP3   OH2 3182   4.512   2.417   0.071
 1102TIP3    H1 3183   4.543   2.373  -0.010
 1102TIP3    H2 3184   4.584   2.482   0.086
 1103TIP3   OH2 3185   5.021   2.601   0.130
 1103TIP3    H1 3186   5.086   2.558   0.188
 1103TIP3    H2 3187   5.042   2.695   0.152
 1104TIP3   OH2 3188   4.813   2.681   1.509
 1104TIP3    H1 3189   4.781   2.610   1.566
 1104TIP3    H2 3190   4.908   2.683   1.533
 1105TIP3   OH2 3191   5.062   2.679   1.627
 1105TIP3    H1 3192   5.146   2.654   1.586
 1105TIP3    H2 3193   5.051   2.607   1.693
 1106TIP3   OH2 3194   4.224   3.901  -0.291
 1106TIP3    H1 3195   4.177   3.900  -0.206
 1106TIP3    H2 3196   4.274   3.819  -0.289
 1107TIP3   OH2 3197   5.886   2.738   1.416
 1107TIP3    H1 3198   5.906   2.706   1.506
 1107TIP3    H2 3199   5.973   2.733   1.372
 1108TIP3   OH2 3200   5.828   4.292   0.906
 1108TIP3    H1 3201   5.749   4.260   0.860
 1108TIP3    H2 3202   5.808   4.388   0.909
 1109TIP3   OH2 3203   7.087   3.649   0.061
 1109TIP3    H1 3204   7.127   3.636   0.149
 1109TIP3    H2 3205   7.044   3.562   0.050
 1110TIP3   OH2 3206   6.387   3.562   0.430
 1110TIP3    H1 3207   6.424   3.494   0.490
 1110TIP3    H2 3208   6.467   3.610   0.406
 1111TIP3   OH2 3209   6.356   3.957   0.157
 1111TIP3    H1 3210   6.348   3.859   0.154
 1111TIP3    H2 3211   6.451   3.967   0.164
 1112TIP3   OH2 3212   6.013   3.222  -0.019
 1112TIP3    H1 3213   6.007   3.265  -0.107
 1112TIP3    H2 3214   5.983   3.134  -0.048
 1113TIP3   OH2 3215   6.886   3.896   0.097
 1113TIP3    H1 3216   6.909   3.811   0.056
 1113TIP3    H2 3217   6.975   3.925   0.127
 1114TIP3   OH2 3218   7.314   3.392   0.141
 1114TIP3    H1 3219   7.354   3.307   0.167
 1114TIP3    H2 3220   7.266   3.365   0.062
 1115TIP3   OH2 3221   6.627   3.046   0.113
 1115TIP3    H1 3222   6.602   3.125   0.058
 1115TIP3    H2 3223   6.584   2.976   0.060
 1116TIP3   OH2 3224   6.266   3.240   0.206
 1116TIP3    H1 3225   6.354   3.231   0.247
 1116TIP3    H2 3226   6.285   3.210   0.115
 1117TIP3   OH2 3227   6.735   3.454   0.031
 1117TIP3    H1 3228   6.828   3.432   0.013
 1117TIP3    H2 3229   6.690   3.384  -0.021
 1118TIP3   OH2 3230   7.958   3.422   0.261
 1118TIP3    H1 3231   7.875   3.474   0.254
 1118TIP3    H2 3232   7.981   3.432   0.353
 1119TIP3   OH2 3233   6.638   3.034   0.535
 1119TIP3    H1 3234   6.577   3.071   0.468
 1119TIP3    H2 3235   6.585   3.051   0.617
 1120TIP3   OH2 3236   6.746   3.811   0.333
 1120TIP3    H1 3237   6.679   3.869   0.375
 1120TIP3    H2 3238   6.787   3.871   0.269
 1121TIP3   OH2 3239   6.504   3.152   0.326
 1121TIP3    H1 3240   6.568   3.224   0.344
 1121TIP3    H2 3241   6.550   3.108   0.251
 1122TIP3   OH2 3242   6.569   3.999   0.424
 1122TIP3    H1 3243   6.542   4.087   0.391
 1122TIP3    H2 3244   6.492   3.982   0.484
 1123TIP3   OH2 3245   7.693   3.116   0.258
 1123TIP3    H1 3246   7.599   3.139   0.245
 1123TIP3    H2 3247   7.728   3.134   0.169
 1124TIP3   OH2 3248   7.001   2.754   0.258
 1124TIP3    H1 3249   6.978   2.659   0.267
 1124TIP3    H2 3250   6.919   2.794   0.294
 1125TIP3   OH2 3251   7.622   4.138   0.247
 1125TIP3    H1 3252   7.626   4.074   0.175
 1125TIP3    H2 3253   7.599   4.219   0.198
 1126TIP3   OH2 3254   7.501   3.636   0.390
 1126TIP3    H1 3255   7.499   3.720   0.439
 1126TIP3    H2 3256   7.415   3.643   0.342
 1127TIP3   OH2 3257   6.482   3.545  -0.071
 1127TIP3    H1 3258   6.462   3.593  -0.154
 1127TIP3    H2 3259   6.578   3.528  -0.077
 1128TIP3   OH2 3260   6.640   4.010   0.022
 1128TIP3    H1 3261   6.594   3.931  -0.010
 1128TIP3    H2 3262   6.724   3.972   0.055
 1129TIP3   OH2 3263   6.630   3.569   0.258
 1129TIP3    H1 3264   6.663   3.538   0.171
 1129TIP3    H2 3265   6.679   3.653   0.271
 1130TIP3   OH2 3266   6.776   4.124   0.567
 1130TIP3    H1 3267   6.719   4.186   0.617
 1130TIP3    H2 3268   6.708   4.071   0.522
 1131TIP3   OH2 3269   6.532   3.682   0.671
 1131TIP3    H1 3270   6.534   3.768   0.719
 1131TIP3    H2 3271   6.437   3.663   0.675
 1132TIP3   OH2 3272   6.572   4.292   0.657
 1132TIP3    H1 3273   6.535   4.288   0.567
 1132TIP3    H2 3274   6.493   4.272   0.713
 1133TIP3   OH2 3275   6.151   3.822   0.605
 1133TIP3    H1 3276   6.084   3.798   0.537
 1133TIP3    H2 3277   6.187   3.735   0.632
 1134TIP3   OH2 3278   6.006   4.012   0.241
 1134TIP3    H1 3279   6.102   4.009   0.226
 1134TIP3    H2 3280   5.997   4.091   0.295
 1135TIP3   OH2 3281   7.873   4.452   0.299
 1135TIP3    H1 3282   7.886   4.358   0.319
 1135TIP3    H2 3283   7.793   4.472   0.351
 1136TIP3   OH2 3284   6.972   4.255   0.423
 1136TIP3    H1 3285   6.973   4.345   0.462
 1136TIP3    H2 3286   6.903   4.212   0.479
 1137TIP3   OH2 3287   7.756   3.596   0.570
 1137TIP3    H1 3288   7.679   3.610   0.513
 1137TIP3    H2 3289   7.772   3.500   0.558
 1138TIP3   OH2 3290   6.358   4.004   0.594
 1138TIP3    H1 3291   6.406   3.988   0.678
 1138TIP3    H2 3292   6.283   3.941   0.602
 1139TIP3   OH2 3293   6.755   2.828   0.375
 1139TIP3    H1 3294   6.665   2.796   0.351
 1139TIP3    H2 3295   6.730   2.912   0.418
 1140TIP3   OH2 3296   7.286   2.944   0.570
 1140TIP3    H1 3297   7.352   2.918   0.637
 1140TIP3    H2 3298   7.201   2.924   0.615
 1141TIP3   OH2 3299   7.532   3.375   0.491
 1141TIP3    H1 3300   7.483   3.368   0.576
 1141TIP3    H2 3301   7.502   3.461   0.457
 1142TIP3   OH2 3302   6.690   3.344   0.398
 1142TIP3    H1 3303   6.637   3.362   0.479
 1142TIP3    H2 3304   6.670   3.424   0.345
 1143TIP3   OH2 3305   6.539   3.236  -0.046
 1143TIP3    H1 3306   6.455   3.196  -0.074
 1143TIP3    H2 3307   6.589   3.249  -0.130
 1144TIP3   OH2 3308   7.235   3.596   0.723
 1144TIP3    H1 3309   7.211   3.524   0.786
 1144TIP3    H2 3310   7.327   3.612   0.748
 1145TIP3   OH2 3311   6.506   3.373   0.605
 1145TIP3    H1 3312   6.528   3.437   0.674
 1145TIP3    H2 3313   6.493   3.291   0.655
 1146TIP3   OH2 3314   6.106   2.924   0.165
 1146TIP3    H1 3315   6.179   2.927   0.231
 1146TIP3    H2 3316   6.133   2.854   0.103
 1147TIP3   OH2 3317   4.345   1.062   9.109
 1147TIP3    H1 3318   4.354   1.158   9.091
 1147TIP3    H2 3319   4.248   1.052   9.119
 1148TIP3   OH2 3320   7.229   3.596   0.294
 1148TIP3    H1 3321   7.264   3.519   0.243
 1148TIP3    H2 3322   7.201   3.549   0.376
 1149TIP3   OH2 3323   6.881   2.977   0.031
 1149TIP3    H1 3324   6.798   3.020   0.056
 1149TIP3    H2 3325   6.945   3.048   0.038
 1150TIP3   OH2 3326   6.307   3.085  -0.042
 1150TIP3    H1 3327   6.215   3.061  -0.022
 1150TIP3    H2 3328   6.350   2.997  -0.046
 1151TIP3   OH2 3329   7.384   3.127   0.178
 1151TIP3    H1 3330   7.351   3.142   0.269
 1151TIP3    H2 3331   7.318   3.061   0.147
 1152TIP3   OH2 3332   7.560   4.805   0.383
 1152TIP3    H1 3333   7.514   4.851   0.310
 1152TIP3    H2 3334   7.618   4.875   0.415
 1153TIP3   OH2 3335   6.517   3.927   0.815
 1153TIP3    H1 3336   6.596   3.957   0.864
 1153TIP3    H2 3337   6.452   3.927   0.887
 1154TIP3   OH2 3338   7.011   3.380   0.066
 1154TIP3    H1 3339   7.013   3.305   0.006
 1154TIP3    H2 3340   7.000   3.338   0.154
 1155TIP3   OH2 3341   6.505   2.869  -0.056
 1155TIP3    H1 3342   6.470   2.788  -0.011
 1155TIP3    H2 3343   6.579   2.834  -0.107
 1156TIP3   OH2 3344   6.958   3.279   0.352
 1156TIP3    H1 3345   6.867   3.311   0.370
 1156TIP3    H2 3346   7.013   3.337   0.408
 1157TIP3   OH2 3347   7.095   3.987   0.449
 1157TIP3    H1 3348   7.115   3.957   0.539
 1157TIP3    H2 3349   7.055   4.074   0.464
 1158TIP3   OH2 3350   6.378   3.680   0.139
 1158TIP3    H1 3351   6.400   3.643   0.051
 1158TIP3    H2 3352   6.427   3.618   0.195
 1159TIP3   OH2 3353   6.265   3.611   0.743
 1159TIP3    H1 3354   6.288   3.598   0.837
 1159TIP3    H2 3355   6.196   3.544   0.729
 1160TIP3   OH2 3356   6.990   3.724   0.762
 1160TIP3    H1 3357   6.931   3.664   0.714
 1160TIP3    H2 3358   7.078   3.691   0.734
 1161TIP3   OH2 3359   7.251   4.236   0.347
 1161TIP3    H1 3360   7.155   4.242   0.363
 1161TIP3    H2 3361   7.284   4.291   0.421
 1162TIP3   OH2 3362   7.874   4.180   0.361
 1162TIP3    H1 3363   7.777   4.186   0.354
 1162TIP3    H2 3364   7.896   4.150   0.270
 1163TIP3   OH2 3365   6.755   4.317   0.232
 1163TIP3    H1 3366   6.786   4.387   0.171
 1163TIP3    H2 3367   6.836   4.298   0.283
 1164TIP3   OH2 3368   7.135   3.980   0.177
 1164TIP3    H1 3369   7.131   3.978   0.276
 1164TIP3    H2 3370   7.230   3.966   0.162
 1165TIP3   OH2 3371   6.479   3.117   0.752
 1165TIP3    H1 3372   6.382   3.123   0.765
 1165TIP3    H2 3373   6.505   3.054   0.821
 1166TIP3   OH2 3374   6.194   4.201   0.393
 1166TIP3    H1 3375   6.246   4.123   0.417
 1166TIP3    H2 3376   6.224   4.265   0.459
 1167TIP3   OH2 3377   7.314   3.182   0.434
 1167TIP3    H1 3378   7.392   3.218   0.478
 1167TIP3    H2 3379   7.297   3.100   0.485
 1168TIP3   OH2 3380   7.157   3.435   0.504
 1168TIP3    H1 3381   7.172   3.488   0.585
 1168TIP3    H2 3382   7.209   3.355   0.522
 1169TIP3   OH2 3383   7.798   3.330   0.486
 1169TIP3    H1 3384   7.700   3.327   0.493
 1169TIP3    H2 3385   7.810   3.294   0.396
 1170TIP3   OH2 3386   6.491   2.748   0.352
 1170TIP3    H1 3387   6.457   2.716   0.266
 1170TIP3    H2 3388   6.479   2.670   0.410
 1171TIP3   OH2 3389   6.184   4.505   0.804
 1171TIP3    H1 3390   6.270   4.505   0.852
 1171TIP3    H2 3391   6.162   4.411   0.804
 1172TIP3   OH2 3392   6.669   4.478   0.846
 1172TIP3    H1 3393   6.763   4.455   0.859
 1172TIP3    H2 3394   6.645   4.417   0.773
 1173TIP3   OH2 3395   7.315   4.377   0.574
 1173TIP3    H1 3396   7.298   4.309   0.644
 1173TIP3    H2 3397   7.386   4.430   0.614
 1174TIP3   OH2 3398   6.316   3.914   1.004
 1174TIP3    H1 3399   6.333   3.818   1.008
 1174TIP3    H2 3400   6.228   3.917   0.962
 1175TIP3   OH2 3401   6.926   3.999   0.776
 1175TIP3    H1 3402   6.881   4.010   0.691
 1175TIP3    H2 3403   6.956   3.905   0.772
 1176TIP3   OH2 3404   7.417   4.005   0.383
 1176TIP3    H1 3405   7.486   4.057   0.338
 1176TIP3    H2 3406   7.342   4.067   0.379
 1177TIP3   OH2 3407   6.434   3.647   0.985
 1177TIP3    H1 3408   6.507   3.586   0.968
 1177TIP3    H2 3409   6.458   3.681   1.074
 1178TIP3   OH2 3410   6.770   3.534   0.651
 1178TIP3    H1 3411   6.692   3.593   0.656
 1178TIP3    H2 3412   6.814   3.566   0.569
 1179TIP3   OH2 3413   7.284   3.934   0.780
 1179TIP3    H1 3414   7.371   3.917   0.741
 1179TIP3    H2 3415   7.281   3.869   0.853
 1180TIP3   OH2 3416   6.895   3.321   0.775
 1180TIP3    H1 3417   6.892   3.240   0.720
 1180TIP3    H2 3418   6.849   3.386   0.718
 1181TIP3   OH2 3419   6.896   3.107   0.579
 1181TIP3    H1 3420   6.921   3.146   0.493
 1181TIP3    H2 3421   6.802   3.084   0.563
 1182TIP3   OH2 3422   6.926   3.645   0.455
 1182TIP3    H1 3423   7.004   3.648   0.399
 1182TIP3    H2 3424   6.868   3.713   0.413
 1183TIP3   OH2 3425   7.507   3.611   0.837
 1183TIP3    H1 3426   7.556   3.528   0.847
 1183TIP3    H2 3427   7.576   3.671   0.805
 1184TIP3   OH2 3428   7.553   3.865   0.569
 1184TIP3    H1 3429   7.491   3.917   0.513
 1184TIP3    H2 3430   7.637   3.881   0.519
 1185TIP3   OH2 3431   6.770   3.436   1.002
 1185TIP3    H1 3432   6.701   3.368   1.017
 1185TIP3    H2 3433   6.805   3.410   0.915
 1186TIP3   OH2 3434   7.028   2.872   0.646
 1186TIP3    H1 3435   6.979   2.955   0.624
 1186TIP3    H2 3436   6.957   2.805   0.634
 1187TIP3   OH2 3437   7.155   3.378   0.864
 1187TIP3    H1 3438   7.143   3.368   0.960
 1187TIP3    H2 3439   7.064   3.352   0.834
 1188TIP3   OH2 3440   7.394   3.322   0.717
 1188TIP3    H1 3441   7.317   3.327   0.778
 1188TIP3    H2 3442   7.465   3.293   0.777
 1189TIP3   OH2 3443   7.628   3.265   0.870
 1189TIP3    H1 3444   7.635   3.170   0.891
 1189TIP3    H2 3445   7.619   3.306   0.959
 1190TIP3   OH2 3446   6.611   3.216   1.055
 1190TIP3    H1 3447   6.617   3.125   1.019
 1190TIP3    H2 3448   6.645   3.202   1.145
 1191TIP3   OH2 3449   7.125   2.882   0.903
 1191TIP3    H1 3450   7.191   2.810   0.897
 1191TIP3    H2 3451   7.083   2.875   0.815
 1192TIP3   OH2 3452   7.188   3.096   1.063
 1192TIP3    H1 3453   7.165   3.026   0.999
 1192TIP3    H2 3454   7.111   3.156   1.058
 1193TIP3   OH2 3455   5.928   4.179   0.001
 1193TIP3    H1 3456   5.916   4.099   0.054
 1193TIP3    H2 3457   5.977   4.236   0.062
 1194TIP3   OH2 3458   7.741   4.264   0.640
 1194TIP3    H1 3459   7.666   4.275   0.702
 1194TIP3    H2 3460   7.780   4.354   0.640
 1195TIP3   OH2 3461   6.135   3.571   0.335
 1195TIP3    H1 3462   6.164   3.573   0.243
 1195TIP3    H2 3463   6.224   3.574   0.378
 1196TIP3   OH2 3464   7.788   3.929   0.443
 1196TIP3    H1 3465   7.865   3.868   0.454
 1196TIP3    H2 3466   7.830   4.015   0.424
 1197TIP3   OH2 3467   7.970   3.739   0.498
 1197TIP3    H1 3468   7.894   3.684   0.528
 1197TIP3    H2 3469   8.043   3.673   0.508
 1198TIP3   OH2 3470   7.730   3.573   0.239
 1198TIP3    H1 3471   7.648   3.577   0.292
 1198TIP3    H2 3472   7.697   3.606   0.154
 1199TIP3   OH2 3473   6.344   3.268   1.030
 1199TIP3    H1 3474   6.442   3.259   1.030
 1199TIP3    H2 3475   6.319   3.183   1.071
 1200TIP3   OH2 3476   8.184   3.133   0.787
 1200TIP3    H1 3477   8.235   3.064   0.740
 1200TIP3    H2 3478   8.150   3.188   0.713
 1201TIP3   OH2 3479   6.305   2.954   0.357
 1201TIP3    H1 3480   6.369   2.881   0.369
 1201TIP3    H2 3481   6.365   3.031   0.353
 1202TIP3   OH2 3482   6.106   3.240   0.423
 1202TIP3    H1 3483   6.168   3.225   0.348
 1202TIP3    H2 3484   6.148   3.317   0.465
 1203TIP3   OH2 3485   8.051   3.275   0.598
 1203TIP3    H1 3486   7.961   3.310   0.613
 1203TIP3    H2 3487   8.030   3.206   0.532
 1204TIP3   OH2 3488   6.088   2.752  -0.066
 1204TIP3    H1 3489   5.999   2.725  -0.032
 1204TIP3    H2 3490   6.063   2.795  -0.149
 1205TIP3   OH2 3491   6.312   2.815   0.749
 1205TIP3    H1 3492   6.261   2.808   0.831
 1205TIP3    H2 3493   6.246   2.854   0.689
 1206TIP3   OH2 3494   6.352   4.239   0.824
 1206TIP3    H1 3495   6.260   4.212   0.808
 1206TIP3    H2 3496   6.360   4.223   0.919
 1207TIP3   OH2 3497   6.524   4.270   0.374
 1207TIP3    H1 3498   6.470   4.338   0.331
 1207TIP3    H2 3499   6.610   4.286   0.331
 1208TIP3   OH2 3500   6.973   4.516   0.511
 1208TIP3    H1 3501   7.011   4.514   0.602
 1208TIP3    H2 3502   7.041   4.569   0.465
 1209TIP3   OH2 3503   7.154   4.657   0.366
 1209TIP3    H1 3504   7.233   4.606   0.344
 1209TIP3    H2 3505   7.194   4.726   0.424
 1210TIP3   OH2 3506   7.947   3.035   0.478
 1210TIP3    H1 3507   7.858   3.036   0.438
 1210TIP3    H2 3508   7.974   2.942   0.461
 1211TIP3   OH2 3509   6.211   4.530   0.398
 1211TIP3    H1 3510   6.123   4.563   0.369
 1211TIP3    H2 3511   6.214   4.565   0.488
 1212TIP3   OH2 3512   6.435   4.526   0.243
 1212TIP3    H1 3513   6.356   4.533   0.301
 1212TIP3    H2 3514   6.393   4.525   0.156
 1213TIP3   OH2 3515   6.103   4.327   0.164
 1213TIP3    H1 3516   6.133   4.300   0.254
 1213TIP3    H2 3517   6.175   4.284   0.111
 1214TIP3   OH2 3518   6.303   4.211   0.031
 1214TIP3    H1 3519   6.317   4.117   0.053
 1214TIP3    H2 3520   6.395   4.244   0.022
 1215TIP3   OH2 3521   6.566   4.284   0.029
 1215TIP3    H1 3522   6.591   4.191   0.018
 1215TIP3    H2 3523   6.622   4.308   0.105
 1216TIP3   OH2 3524   7.168   2.961   0.107
 1216TIP3    H1 3525   7.094   2.908   0.143
 1216TIP3    H2 3526   7.223   2.891   0.066
 1217TIP3   OH2 3527   7.668   2.862   0.035
 1217TIP3    H1 3528   7.710   2.930  -0.020
 1217TIP3    H2 3529   7.575   2.872   0.011
 1218TIP3   OH2 3530   6.398   2.662   0.102
 1218TIP3    H1 3531   6.306   2.628   0.101
 1218TIP3    H2 3532   6.447   2.577   0.104
 1219TIP3   OH2 3533   6.200   2.517  -0.213
 1219TIP3    H1 3534   6.173   2.550  -0.301
 1219TIP3    H2 3535   6.168   2.588  -0.154
 1220TIP3   OH2 3536   6.853   2.685  -0.015
 1220TIP3    H1 3537   6.881   2.758  -0.072
 1220TIP3    H2 3538   6.853   2.731   0.070
 1221TIP3   OH2 3539   7.366   2.812  -0.009
 1221TIP3    H1 3540   7.331   2.764  -0.087
 1221TIP3    H2 3541   7.376   2.736   0.053
 1222TIP3   OH2 3542   6.609   2.939   0.996
 1222TIP3    H1 3543   6.576   2.868   1.053
 1222TIP3    H2 3544   6.704   2.939   1.022
 1223TIP3   OH2 3545   6.858   2.935   1.114
 1223TIP3    H1 3546   6.943   2.907   1.075
 1223TIP3    H2 3547   6.844   2.865   1.182
 1224TIP3   OH2 3548   7.682   2.993   0.902
 1224TIP3    H1 3549   7.702   2.964   0.993
 1224TIP3    H2 3550   7.770   2.989   0.860
 1225TIP3   OH2 3551   7.632   4.540   0.413
 1225TIP3    H1 3552   7.589   4.495   0.337
 1225TIP3    H2 3553   7.606   4.633   0.399
 1226TIP3   OH2 3554   8.359   4.121   0.337
 1226TIP3    H1 3555   8.390   4.206   0.373
 1226TIP3    H2 3556   8.285   4.103   0.398
 1227TIP3   OH2 3557   8.070   3.823   0.247
 1227TIP3    H1 3558   8.119   3.847   0.328
 1227TIP3    H2 3559   8.019   3.748   0.281
 1228TIP3   OH2 3560   8.216   3.282   0.265
 1228TIP3    H1 3561   8.194   3.376   0.254
 1228TIP3    H2 3562   8.290   3.283   0.328
 1229TIP3   OH2 3563   8.119   4.172   0.484
 1229TIP3    H1 3564   8.119   4.077   0.507
 1229TIP3    H2 3565   8.026   4.184   0.455
 1230TIP3   OH2 3566   8.228   3.895   0.475
 1230TIP3    H1 3567   8.298   3.831   0.460
 1230TIP3    H2 3568   8.250   3.928   0.564
 1231TIP3   OH2 3569   8.552   3.701   0.469
 1231TIP3    H1 3570   8.486   3.632   0.490
 1231TIP3    H2 3571   8.581   3.673   0.381
 1232TIP3   OH2 3572   8.406   3.481   0.552
 1232TIP3    H1 3573   8.418   3.402   0.496
 1232TIP3    H2 3574   8.437   3.450   0.639
 1233TIP3   OH2 3575   8.139   3.528   0.518
 1233TIP3    H1 3576   8.237   3.519   0.517
 1233TIP3    H2 3577   8.114   3.441   0.555
 1234TIP3   OH2 3578   8.066   3.063   0.222
 1234TIP3    H1 3579   8.043   3.069   0.316
 1234TIP3    H2 3580   8.098   3.155   0.207
 1235TIP3   OH2 3581   8.378   3.191   0.474
 1235TIP3    H1 3582   8.346   3.120   0.531
 1235TIP3    H2 3583   8.472   3.196   0.502
 1236TIP3   OH2 3584   8.613   3.197   0.597
 1236TIP3    H1 3585   8.710   3.201   0.583
 1236TIP3    H2 3586   8.609   3.123   0.661
 1237TIP3   OH2 3587   0.432   4.177   1.977
 1237TIP3    H1 3588   0.364   4.226   1.926
 1237TIP3    H2 3589   0.451   4.241   2.048
 1238TIP3   OH2 3590  -0.131   4.991   1.633
 1238TIP3    H1 3591  -0.224   4.967   1.629
 1238TIP3    H2 3592  -0.117   5.044   1.552
 1239TIP3   OH2 3593   0.083   4.913   1.937
 1239TIP3    H1 3594   0.076   4.835   1.879
 1239TIP3    H2 3595   0.074   4.986   1.872
 1240TIP3   OH2 3596   0.278   4.544   1.783
 1240TIP3    H1 3597   0.196   4.597   1.788
 1240TIP3    H2 3598   0.305   4.562   1.691
 1241TIP3   OH2 3599  -0.026   4.427   2.088
 1241TIP3    H1 3600  -0.049   4.513   2.128
 1241TIP3    H2 3601  -0.100   4.412   2.026
 1242TIP3   OH2 3602   0.319   5.253   1.978
 1242TIP3    H1 3603   0.321   5.156   1.990
 1242TIP3    H2 3604   0.238   5.276   2.029
 1243TIP3   OH2 3605  -0.556   5.028   2.128
 1243TIP3    H1 3606  -0.547   5.122   2.157
 1243TIP3    H2 3607  -0.652   5.020   2.129
 1244TIP3   OH2 3608   0.210   4.383   2.259
 1244TIP3    H1 3609   0.135   4.401   2.201
 1244TIP3    H2 3610   0.223   4.287   2.248
 1245TIP3   OH2 3611  -0.022   4.157   2.171
 1245TIP3    H1 3612  -0.056   4.163   2.263
 1245TIP3    H2 3613  -0.035   4.249   2.140
 1246TIP3   OH2 3614  -0.312   4.405   2.429
 1246TIP3    H1 3615  -0.339   4.321   2.472
 1246TIP3    H2 3616  -0.216   4.397   2.432
 1247TIP3   OH2 3617   0.003   5.603   2.101
 1247TIP3    H1 3618  -0.001   5.619   2.004
 1247TIP3    H2 3619   0.090   5.643   2.123
 1248TIP3   OH2 3620   0.050   4.697   1.774
 1248TIP3    H1 3621   0.085   4.744   1.694
 1248TIP3    H2 3622  -0.035   4.665   1.743
 1249TIP3   OH2 3623  -0.433   4.785   2.129
 1249TIP3    H1 3624  -0.430   4.753   2.220
 1249TIP3    H2 3625  -0.484   4.868   2.139
 1250TIP3   OH2 3626  -0.553   4.523   2.482
 1250TIP3    H1 3627  -0.610   4.497   2.406
 1250TIP3    H2 3628  -0.467   4.488   2.451
 1251TIP3   OH2 3629  -0.298   5.092   2.019
 1251TIP3    H1 3630  -0.379   5.042   2.037
 1251TIP3    H2 3631  -0.268   5.109   2.111
 1252TIP3   OH2 3632   0.334   4.963   2.026
 1252TIP3    H1 3633   0.236   4.958   2.018
 1252TIP3    H2 3634   0.360   4.933   1.936
 1253TIP3   OH2 3635  -0.322   4.806   1.866
 1253TIP3    H1 3636  -0.362   4.805   1.955
 1253TIP3    H2 3637  -0.343   4.716   1.837
 1254TIP3   OH2 3638  -0.142   5.294   1.932
 1254TIP3    H1 3639  -0.200   5.219   1.959
 1254TIP3    H2 3640  -0.193   5.333   1.859
 1255TIP3   OH2 3641   0.245   4.107   2.180
 1255TIP3    H1 3642   0.148   4.108   2.172
 1255TIP3    H2 3643   0.274   4.114   2.087
 1256TIP3   OH2 3644  -0.233   5.166   2.272
 1256TIP3    H1 3645  -0.242   5.094   2.339
 1256TIP3    H2 3646  -0.156   5.216   2.307
 1257TIP3   OH2 3647  -0.611   4.793   2.455
 1257TIP3    H1 3648  -0.672   4.766   2.386
 1257TIP3    H2 3649  -0.576   4.706   2.482
 1258TIP3   OH2 3650  -0.120   4.790   2.080
 1258TIP3    H1 3651  -0.051   4.840   2.032
 1258TIP3    H2 3652  -0.200   4.832   2.047
 1259TIP3   OH2 3653  -0.261   4.720   2.475
 1259TIP3    H1 3654  -0.181   4.701   2.424
 1259TIP3    H2 3655  -0.263   4.646   2.537
 1260TIP3   OH2 3656  -0.031   4.414   2.541
 1260TIP3    H1 3657  -0.012   4.322   2.516
 1260TIP3    H2 3658   0.038   4.462   2.494
 1261TIP3   OH2 3659   0.003   4.653   2.271
 1261TIP3    H1 3660  -0.053   4.708   2.210
 1261TIP3    H2 3661   0.090   4.668   2.228
 1262TIP3   OH2 3662  -0.416   4.185   2.563
 1262TIP3    H1 3663  -0.398   4.167   2.657
 1262TIP3    H2 3664  -0.513   4.194   2.566
 1263TIP3   OH2 3665  -0.102   4.164   2.432
 1263TIP3    H1 3666  -0.182   4.120   2.465
 1263TIP3    H2 3667  -0.032   4.109   2.473
 1264TIP3   OH2 3668   0.097   4.045   2.572
 1264TIP3    H1 3669   0.094   3.949   2.593
 1264TIP3    H2 3670   0.085   4.088   2.659
 1265TIP3   OH2 3671   0.146   5.431   1.481
 1265TIP3    H1 3672   0.180   5.378   1.555
 1265TIP3    H2 3673   0.188   5.385   1.405
 1266TIP3   OH2 3674   0.159   5.387   1.770
 1266TIP3    H1 3675   0.109   5.304   1.757
 1266TIP3    H2 3676   0.234   5.351   1.819
 1267TIP3   OH2 3677   0.193   5.058   2.323
 1267TIP3    H1 3678   0.121   5.064   2.389
 1267TIP3    H2 3679   0.235   5.145   2.330
 1268TIP3   OH2 3680   0.187   4.822   1.579
 1268TIP3    H1 3681   0.248   4.760   1.533
 1268TIP3    H2 3682   0.193   4.901   1.520
 1269TIP3   OH2 3683   0.038   5.139   1.782
 1269TIP3    H1 3684  -0.032   5.172   1.840
 1269TIP3    H2 3685  -0.014   5.085   1.717
 1270TIP3   OH2 3686   0.240   4.717   2.152
 1270TIP3    H1 3687   0.313   4.651   2.145
 1270TIP3    H2 3688   0.271   4.787   2.091
 1271TIP3   OH2 3689   0.426   4.526   2.179
 1271TIP3    H1 3690   0.352   4.472   2.215
 1271TIP3    H2 3691   0.499   4.462   2.189
 1272TIP3   OH2 3692   0.190   4.328   1.937
 1272TIP3    H1 3693   0.114   4.371   1.979
 1272TIP3    H2 3694   0.221   4.397   1.874
 1273TIP3   OH2 3695   0.627   3.913   2.477
 1273TIP3    H1 3696   0.688   3.851   2.431
 1273TIP3    H2 3697   0.601   3.972   2.403
 1274TIP3   OH2 3698   0.502   4.059   2.287
 1274TIP3    H1 3699   0.414   4.097   2.305
 1274TIP3    H2 3700   0.479   3.996   2.217
 1275TIP3   OH2 3701  -0.553   5.285   2.208
 1275TIP3    H1 3702  -0.532   5.323   2.296
 1275TIP3    H2 3703  -0.517   5.353   2.148
 1276TIP3   OH2 3704  -0.371   5.434   2.053
 1276TIP3    H1 3705  -0.284   5.393   2.043
 1276TIP3    H2 3706  -0.349   5.505   2.116
 1277TIP3   OH2 3707   0.396   3.815   2.153
 1277TIP3    H1 3708   0.309   3.838   2.116
 1277TIP3    H2 3709   0.399   3.720   2.135
 1278TIP3   OH2 3710   0.133   3.767   2.592
 1278TIP3    H1 3711   0.164   3.747   2.683
 1278TIP3    H2 3712   0.217   3.777   2.544
 1279TIP3   OH2 3713   0.081   5.338   2.092
 1279TIP3    H1 3714   0.005   5.306   2.038
 1279TIP3    H2 3715   0.057   5.433   2.098
 1280TIP3   OH2 3716   1.361   4.727   0.873
 1280TIP3    H1 3717   1.327   4.815   0.846
 1280TIP3    H2 3718   1.289   4.671   0.838
 1281TIP3   OH2 3719   1.336   4.709   1.231
 1281TIP3    H1 3720   1.370   4.677   1.317
 1281TIP3    H2 3721   1.304   4.628   1.191
 1282TIP3   OH2 3722   0.639   4.611   1.601
 1282TIP3    H1 3723   0.668   4.534   1.655
 1282TIP3    H2 3724   0.722   4.661   1.595
 1283TIP3   OH2 3725   1.583   5.009   0.910
 1283TIP3    H1 3726   1.567   4.937   0.972
 1283TIP3    H2 3727   1.608   5.082   0.969
 1284TIP3   OH2 3728   0.606   5.010   1.331
 1284TIP3    H1 3729   0.598   4.912   1.333
 1284TIP3    H2 3730   0.702   5.017   1.313
 1285TIP3   OH2 3731   1.223   5.474   0.916
 1285TIP3    H1 3732   1.281   5.399   0.890
 1285TIP3    H2 3733   1.210   5.459   1.011
 1286TIP3   OH2 3734   1.143   4.929   1.279
 1286TIP3    H1 3735   1.185   4.853   1.235
 1286TIP3    H2 3736   1.225   4.978   1.303
 1287TIP3   OH2 3737   2.140   4.259   1.274
 1287TIP3    H1 3738   2.173   4.341   1.317
 1287TIP3    H2 3739   2.168   4.274   1.182
 1288TIP3   OH2 3740   1.550   4.437   1.314
 1288TIP3    H1 3741   1.594   4.351   1.333
 1288TIP3    H2 3742   1.520   4.422   1.223
 1289TIP3   OH2 3743   1.568   4.179   0.921
 1289TIP3    H1 3744   1.653   4.169   0.969
 1289TIP3    H2 3745   1.600   4.202   0.833
 1290TIP3   OH2 3746   0.973   4.487   1.176
 1290TIP3    H1 3747   1.069   4.475   1.195
 1290TIP3    H2 3748   0.949   4.396   1.155
 1291TIP3   OH2 3749   2.216   4.464   1.437
 1291TIP3    H1 3750   2.130   4.511   1.435
 1291TIP3    H2 3751   2.243   4.477   1.529
 1292TIP3   OH2 3752   0.878   4.067   1.716
 1292TIP3    H1 3753   0.822   4.112   1.649
 1292TIP3    H2 3754   0.831   4.096   1.797
 1293TIP3   OH2 3755   1.238   4.931   0.730
 1293TIP3    H1 3756   1.203   4.911   0.641
 1293TIP3    H2 3757   1.200   5.019   0.744
 1294TIP3   OH2 3758   0.991   4.852   1.509
 1294TIP3    H1 3759   0.927   4.916   1.546
 1294TIP3    H2 3760   1.032   4.903   1.436
 1295TIP3   OH2 3761   1.795   4.189   1.069
 1295TIP3    H1 3762   1.794   4.132   1.147
 1295TIP3    H2 3763   1.854   4.261   1.096
 1296TIP3   OH2 3764   0.757   4.192   1.515
 1296TIP3    H1 3765   0.820   4.266   1.506
 1296TIP3    H2 3766   0.772   4.135   1.439
 1297TIP3   OH2 3767   0.816   5.040   1.607
 1297TIP3    H1 3768   0.794   5.125   1.565
 1297TIP3    H2 3769   0.737   5.030   1.664
 1298TIP3   OH2 3770   1.658   5.252   1.082
 1298TIP3    H1 3771   1.569   5.242   1.123
 1298TIP3    H2 3772   1.646   5.337   1.036
 1299TIP3   OH2 3773   1.943   4.154   1.445
 1299TIP3    H1 3774   1.856   4.183   1.413
 1299TIP3    H2 3775   2.003   4.185   1.374
 1300TIP3   OH2 3776   1.266   3.816   1.426
 1300TIP3    H1 3777   1.246   3.721   1.441
 1300TIP3    H2 3778   1.183   3.856   1.462
 1301TIP3   OH2 3779   1.369   5.298   0.765
 1301TIP3    H1 3780   1.418   5.216   0.738
 1301TIP3    H2 3781   1.428   5.366   0.724
 1302TIP3   OH2 3782   1.498   5.084   0.658
 1302TIP3    H1 3783   1.470   5.004   0.610
 1302TIP3    H2 3784   1.533   5.046   0.742
 1303TIP3   OH2 3785   1.882   5.168   1.423
 1303TIP3    H1 3786   1.869   5.089   1.366
 1303TIP3    H2 3787   1.863   5.241   1.360
 1304TIP3   OH2 3788   1.194   4.596   0.705
 1304TIP3    H1 3789   1.108   4.632   0.677
 1304TIP3    H2 3790   1.249   4.616   0.627
 1305TIP3   OH2 3791   2.077   4.807   1.271
 1305TIP3    H1 3792   1.992   4.856   1.276
 1305TIP3    H2 3793   2.102   4.825   1.178
 1306TIP3   OH2 3794   1.524   4.651   0.665
 1306TIP3    H1 3795   1.476   4.678   0.746
 1306TIP3    H2 3796   1.605   4.611   0.704
 1307TIP3   OH2 3797   1.753   4.684   1.563
 1307TIP3    H1 3798   1.749   4.767   1.613
 1307TIP3    H2 3799   1.666   4.686   1.517
 1308TIP3   OH2 3800   0.778   4.640   1.063
 1308TIP3    H1 3801   0.728   4.558   1.041
 1308TIP3    H2 3802   0.857   4.600   1.105
 1309TIP3   OH2 3803   0.863   5.015   1.227
 1309TIP3    H1 3804   0.877   4.975   1.140
 1309TIP3    H2 3805   0.956   5.030   1.253
 1310TIP3   OH2 3806   0.884   4.616   1.419
 1310TIP3    H1 3807   0.928   4.595   1.335
 1310TIP3    H2 3808   0.928   4.699   1.446
 1311TIP3   OH2 3809   1.418   5.248   1.201
 1311TIP3    H1 3810   1.395   5.326   1.254
 1311TIP3    H2 3811   1.400   5.174   1.263
 1312TIP3   OH2 3812   1.022   5.166   1.748
 1312TIP3    H1 3813   0.964   5.231   1.793
 1312TIP3    H2 3814   0.956   5.114   1.699
 1313TIP3   OH2 3815   1.355   4.529   0.487
 1313TIP3    H1 3816   1.430   4.556   0.545
 1313TIP3    H2 3817   1.394   4.537   0.399
 1314TIP3   OH2 3818   0.780   4.727   1.849
 1314TIP3    H1 3819   0.783   4.813   1.894
 1314TIP3    H2 3820   0.684   4.708   1.851
 1315TIP3   OH2 3821   1.102   5.195   0.735
 1315TIP3    H1 3822   1.179   5.236   0.778
 1315TIP3    H2 3823   1.029   5.254   0.760
 1316TIP3   OH2 3824   0.820   5.344   1.838
 1316TIP3    H1 3825   0.791   5.336   1.744
 1316TIP3    H2 3826   0.739   5.318   1.886
 1317TIP3   OH2 3827   1.681   5.112   0.084
 1317TIP3    H1 3828   1.687   5.205   0.057
 1317TIP3    H2 3829   1.770   5.078   0.064
 1318TIP3   OH2 3830   0.398   4.867   1.782
 1318TIP3    H1 3831   0.340   4.841   1.708
 1318TIP3    H2 3832   0.436   4.781   1.810
 1319TIP3   OH2 3833   0.256   5.039   1.417
 1319TIP3    H1 3834   0.350   5.045   1.394
 1319TIP3    H2 3835   0.240   5.128   1.449
 1320TIP3   OH2 3836   2.117   5.510   1.466
 1320TIP3    H1 3837   2.117   5.413   1.480
 1320TIP3    H2 3838   2.035   5.534   1.514
 1321TIP3   OH2 3839   1.242   5.291   1.622
 1321TIP3    H1 3840   1.225   5.387   1.631
 1321TIP3    H2 3841   1.157   5.255   1.656
 1322TIP3   OH2 3842   1.257   5.369   0.512
 1322TIP3    H1 3843   1.186   5.392   0.572
 1322TIP3    H2 3844   1.311   5.311   0.567
 1323TIP3   OH2 3845   2.010   4.646   1.741
 1323TIP3    H1 3846   1.928   4.656   1.689
 1323TIP3    H2 3847   2.026   4.550   1.732
 1324TIP3   OH2 3848   0.602   5.052   1.777
 1324TIP3    H1 3849   0.656   5.029   1.856
 1324TIP3    H2 3850   0.530   4.986   1.781
 1325TIP3   OH2 3851   1.028   3.901   1.543
 1325TIP3    H1 3852   0.954   3.846   1.513
 1325TIP3    H2 3853   0.980   3.970   1.594
 1326TIP3   OH2 3854   1.538   3.991   1.747
 1326TIP3    H1 3855   1.605   3.963   1.812
 1326TIP3    H2 3856   1.453   3.970   1.792
 1327TIP3   OH2 3857   1.776   4.417   1.665
 1327TIP3    H1 3858   1.728   4.413   1.751
 1327TIP3    H2 3859   1.751   4.505   1.630
 1328TIP3   OH2 3860   0.941   4.395   1.569
 1328TIP3    H1 3861   0.884   4.407   1.648
 1328TIP3    H2 3862   0.919   4.476   1.518
 1329TIP3   OH2 3863   1.298   4.374   0.827
 1329TIP3    H1 3864   1.257   4.450   0.783
 1329TIP3    H2 3865   1.369   4.351   0.762
 1330TIP3   OH2 3866   1.483   4.641   1.901
 1330TIP3    H1 3867   1.462   4.568   1.962
 1330TIP3    H2 3868   1.577   4.655   1.922
 1331TIP3   OH2 3869   1.467   4.394   1.055
 1331TIP3    H1 3870   1.406   4.418   0.982
 1331TIP3    H2 3871   1.500   4.308   1.019
 1332TIP3   OH2 3872   0.760   4.424   1.776
 1332TIP3    H1 3873   0.783   4.480   1.852
 1332TIP3    H2 3874   0.733   4.341   1.818
 1333TIP3   OH2 3875   1.478   4.638   1.478
 1333TIP3    H1 3876   1.510   4.565   1.419
 1333TIP3    H2 3877   1.449   4.586   1.555
 1334TIP3   OH2 3878   1.158   4.131   1.168
 1334TIP3    H1 3879   1.084   4.090   1.214
 1334TIP3    H2 3880   1.233   4.108   1.225
 1335TIP3   OH2 3881   1.639   4.174   1.352
 1335TIP3    H1 3882   1.598   4.184   1.441
 1335TIP3    H2 3883   1.578   4.112   1.310
 1336TIP3   OH2 3884   1.805   5.863   1.567
 1336TIP3    H1 3885   1.804   5.883   1.472
 1336TIP3    H2 3886   1.884   5.910   1.597
 1337TIP3   OH2 3887   0.764   4.973   1.992
 1337TIP3    H1 3888   0.846   5.001   2.038
 1337TIP3    H2 3889   0.702   4.971   2.067
 1338TIP3   OH2 3890   1.232   4.431   1.247
 1338TIP3    H1 3891   1.294   4.382   1.190
 1338TIP3    H2 3892   1.245   4.385   1.332
 1339TIP3   OH2 3893   1.206   4.317   1.540
 1339TIP3    H1 3894   1.118   4.358   1.552
 1339TIP3    H2 3895   1.266   4.378   1.587
 1340TIP3   OH2 3896   0.950   4.702   0.644
 1340TIP3    H1 3897   0.882   4.634   0.647
 1340TIP3    H2 3898   0.937   4.748   0.730
 1341TIP3   OH2 3899   1.843   4.949   1.261
 1341TIP3    H1 3900   1.866   4.997   1.179
 1341TIP3    H2 3901   1.758   4.906   1.238
 1342TIP3   OH2 3902   1.346   5.031   1.627
 1342TIP3    H1 3903   1.362   5.007   1.719
 1342TIP3    H2 3904   1.309   5.121   1.635
 1343TIP3   OH2 3905   1.494   4.314   0.649
 1343TIP3    H1 3906   1.588   4.288   0.641
 1343TIP3    H2 3907   1.463   4.307   0.557
 1344TIP3   OH2 3908   0.629   4.727   1.313
 1344TIP3    H1 3909   0.673   4.713   1.228
 1344TIP3    H2 3910   0.682   4.671   1.373
 1345TIP3   OH2 3911   1.096   4.888   0.494
 1345TIP3    H1 3912   1.046   4.966   0.465
 1345TIP3    H2 3913   1.030   4.833   0.540
 1346TIP3   OH2 3914   0.510   4.659   1.921
 1346TIP3    H1 3915   0.536   4.641   2.013
 1346TIP3    H2 3916   0.448   4.587   1.901
 1347TIP3   OH2 3917   1.239   4.768   1.940
 1347TIP3    H1 3918   1.181   4.710   1.888
 1347TIP3    H2 3919   1.328   4.736   1.912
 1348TIP3   OH2 3920   1.508   5.293   1.522
 1348TIP3    H1 3921   1.412   5.285   1.535
 1348TIP3    H2 3922   1.532   5.344   1.603
 1349TIP3   OH2 3923   1.917   4.354   0.427
 1349TIP3    H1 3924   1.858   4.295   0.378
 1349TIP3    H2 3925   1.903   4.439   0.381
 1350TIP3   OH2 3926   2.132   5.221   1.511
 1350TIP3    H1 3927   2.034   5.214   1.505
 1350TIP3    H2 3928   2.156   5.189   1.422
 1351TIP3   OH2 3929   1.621   5.180   0.344
 1351TIP3    H1 3930   1.578   5.111   0.396
 1351TIP3    H2 3931   1.623   5.138   0.255
 1352TIP3   OH2 3932   1.610   4.810   1.182
 1352TIP3    H1 3933   1.516   4.785   1.192
 1352TIP3    H2 3934   1.644   4.730   1.135
 1353TIP3   OH2 3935   0.723   5.045   0.904
 1353TIP3    H1 3936   0.754   5.127   0.944
 1353TIP3    H2 3937   0.640   5.029   0.952
 1354TIP3   OH2 3938   0.878   4.814   0.874
 1354TIP3    H1 3939   0.832   4.899   0.884
 1354TIP3    H2 3940   0.843   4.762   0.949
 1355TIP3   OH2 3941   1.397   5.017   1.358
 1355TIP3    H1 3942   1.386   5.015   1.456
 1355TIP3    H2 3943   1.474   4.961   1.346
 1356TIP3   OH2 3944   1.357   4.904   0.252
 1356TIP3    H1 3945   1.407   4.882   0.333
 1356TIP3    H2 3946   1.274   4.855   0.262
 1357TIP3   OH2 3947   1.644   5.553   1.412
 1357TIP3    H1 3948   1.566   5.494   1.404
 1357TIP3    H2 3949   1.627   5.615   1.338
 1358TIP3   OH2 3950   1.706   5.391   0.058
 1358TIP3    H1 3951   1.749   5.462   0.009
 1358TIP3    H2 3952   1.612   5.412   0.046
 1359TIP3   OH2 3953   0.728   4.159   1.932
 1359TIP3    H1 3954   0.631   4.163   1.940
 1359TIP3    H2 3955   0.753   4.099   2.004
 1360TIP3   OH2 3956   1.526   4.846   0.469
 1360TIP3    H1 3957   1.520   4.778   0.539
 1360TIP3    H2 3958   1.621   4.842   0.448
 1361TIP3   OH2 3959   0.437   5.247   1.571
 1361TIP3    H1 3960   0.488   5.167   1.590
 1361TIP3    H2 3961   0.486   5.313   1.621
 1362TIP3   OH2 3962   1.558   4.229   1.611
 1362TIP3    H1 3963   1.642   4.264   1.644
 1362TIP3    H2 3964   1.547   4.147   1.663
 1363TIP3   OH2 3965   1.209   4.123   0.881
 1363TIP3    H1 3966   1.239   4.212   0.854
 1363TIP3    H2 3967   1.165   4.145   0.965
 1364TIP3   OH2 3968   1.401   4.475   1.684
 1364TIP3    H1 3969   1.422   4.528   1.763
 1364TIP3    H2 3970   1.459   4.397   1.695
 1365TIP3   OH2 3971   1.326   3.897   0.997
 1365TIP3    H1 3972   1.308   3.939   1.082
 1365TIP3    H2 3973   1.333   3.975   0.941
 1366TIP3   OH2 3974   2.044   4.379   1.662
 1366TIP3    H1 3975   1.946   4.375   1.668
 1366TIP3    H2 3976   2.057   4.333   1.578
 1367TIP3   OH2 3977   1.693   4.571   1.051
 1367TIP3    H1 3978   1.618   4.510   1.061
 1367TIP3    H2 3979   1.766   4.523   1.098
 1368TIP3   OH2 3980   1.662   5.525   1.004
 1368TIP3    H1 3981   1.619   5.573   0.930
 1368TIP3    H2 3982   1.756   5.542   0.981
 1369TIP3   OH2 3983   0.433   5.554   1.981
 1369TIP3    H1 3984   0.519   5.545   2.026
 1369TIP3    H2 3985   0.408   5.459   1.975
 1370TIP3   OH2 3986   0.920   5.529   2.016
 1370TIP3    H1 3987   1.010   5.497   2.034
 1370TIP3    H2 3988   0.893   5.466   1.947
 1371TIP3   OH2 3989   1.554   5.428   1.760
 1371TIP3    H1 3990   1.542   5.354   1.825
 1371TIP3    H2 3991   1.634   5.472   1.793
 1372TIP3   OH2 3992   0.563   4.959   2.182
 1372TIP3    H1 3993   0.582   4.863   2.185
 1372TIP3    H2 3994   0.476   4.960   2.137
 1373TIP3   OH2 3995   1.171   5.043   1.955
 1373TIP3    H1 3996   1.131   5.059   1.867
 1373TIP3    H2 3997   1.204   4.951   1.949
 1374TIP3   OH2 3998   1.666   5.049   1.560
 1374TIP3    H1 3999   1.737   5.098   1.515
 1374TIP3    H2 4000   1.592   5.110   1.549
 1375TIP3   OH2 4001   0.682   4.689   2.162
 1375TIP3    H1 4002   0.760   4.637   2.140
 1375TIP3    H2 4003   0.707   4.724   2.251
 1376TIP3   OH2 4004   1.022   4.580   1.828
 1376TIP3    H1 4005   0.943   4.638   1.829
 1376TIP3    H2 4006   1.067   4.610   1.746
 1377TIP3   OH2 4007   1.534   4.980   1.959
 1377TIP3    H1 4008   1.616   4.959   1.912
 1377TIP3    H2 4009   1.533   4.913   2.030
 1378TIP3   OH2 4010   1.687   4.652   0.069
 1378TIP3    H1 4011   1.647   4.630  -0.017
 1378TIP3    H2 4012   1.654   4.742   0.080
 1379TIP3   OH2 4013   1.140   4.364   1.953
 1379TIP3    H1 4014   1.141   4.285   1.896
 1379TIP3    H2 4015   1.099   4.431   1.895
 1380TIP3   OH2 4016   1.139   4.151   1.759
 1380TIP3    H1 4017   1.169   4.192   1.675
 1380TIP3    H2 4018   1.047   4.127   1.738
 1381TIP3   OH2 4019   1.174   4.688   1.629
 1381TIP3    H1 4020   1.256   4.695   1.579
 1381TIP3    H2 4021   1.119   4.758   1.587
 1382TIP3   OH2 4022   1.756   4.656   2.014
 1382TIP3    H1 4023   1.804   4.571   2.022
 1382TIP3    H2 4024   1.825   4.714   1.981
 1383TIP3   OH2 4025   1.796   4.908   1.750
 1383TIP3    H1 4026   1.738   4.961   1.690
 1383TIP3    H2 4027   1.883   4.926   1.708
 1384TIP3   OH2 4028   1.015   4.482   2.179
 1384TIP3    H1 4029   0.948   4.412   2.191
 1384TIP3    H2 4030   1.053   4.457   2.092
 1385TIP3   OH2 4031   1.281   3.922   1.826
 1385TIP3    H1 4032   1.231   4.003   1.801
 1385TIP3    H2 4033   1.213   3.853   1.812
 1386TIP3   OH2 4034   1.402   4.422   2.041
 1386TIP3    H1 4035   1.394   4.414   2.137
 1386TIP3    H2 4036   1.312   4.397   2.013
 1387TIP3   OH2 4037   1.643   4.371   1.896
 1387TIP3    H1 4038   1.567   4.372   1.957
 1387TIP3    H2 4039   1.716   4.340   1.953
 1388TIP3   OH2 4040   1.868   4.309   2.048
 1388TIP3    H1 4041   1.883   4.214   2.067
 1388TIP3    H2 4042   1.868   4.350   2.137
 1389TIP3   OH2 4043   0.856   4.261   2.233
 1389TIP3    H1 4044   0.870   4.173   2.193
 1389TIP3    H2 4045   0.893   4.248   2.323
 1390TIP3   OH2 4046   1.369   3.922   2.085
 1390TIP3    H1 4047   1.440   3.855   2.076
 1390TIP3    H2 4048   1.332   3.921   1.994
 1391TIP3   OH2 4049   1.434   4.139   2.243
 1391TIP3    H1 4050   1.412   4.070   2.177
 1391TIP3    H2 4051   1.359   4.201   2.234
 1392TIP3   OH2 4052   1.915   5.616   0.956
 1392TIP3    H1 4053   1.938   5.645   1.046
 1392TIP3    H2 4054   1.974   5.669   0.901
 1393TIP3   OH2 4055   1.947   5.636   1.237
 1393TIP3    H1 4056   1.899   5.550   1.234
 1393TIP3    H2 4057   2.018   5.612   1.299
 1394TIP3   OH2 4058   1.990   5.314   1.811
 1394TIP3    H1 4059   1.917   5.319   1.875
 1394TIP3    H2 4060   2.030   5.402   1.818
 1395TIP3   OH2 4061   1.808   4.822   0.431
 1395TIP3    H1 4062   1.876   4.888   0.406
 1395TIP3    H2 4063   1.847   4.784   0.512
 1396TIP3   OH2 4064   1.933   4.696   0.638
 1396TIP3    H1 4065   1.868   4.649   0.695
 1396TIP3    H2 4066   1.995   4.732   0.703
 1397TIP3   OH2 4067   1.989   5.086   1.070
 1397TIP3    H1 4068   2.041   5.021   1.019
 1397TIP3    H2 4069   1.972   5.155   1.004
 1398TIP3   OH2 4070   1.821   5.388   1.263
 1398TIP3    H1 4071   1.749   5.426   1.317
 1398TIP3    H2 4072   1.770   5.337   1.195
 1399TIP3   OH2 4073   1.865   4.595   0.280
 1399TIP3    H1 4074   1.799   4.608   0.209
 1399TIP3    H2 4075   1.843   4.671   0.339
 1400TIP3   OH2 4076   1.752   4.544   0.783
 1400TIP3    H1 4077   1.759   4.447   0.778
 1400TIP3    H2 4078   1.737   4.559   0.879
 1401TIP3   OH2 4079   0.380   4.628   1.526
 1401TIP3    H1 4080   0.388   4.590   1.437
 1401TIP3    H2 4081   0.475   4.632   1.552
 1402TIP3   OH2 4082   2.037   4.973   1.639
 1402TIP3    H1 4083   2.110   4.907   1.631
 1402TIP3    H2 4084   2.065   5.042   1.577
 1403TIP3   OH2 4085   2.227   4.783   1.659
 1403TIP3    H1 4086   2.151   4.733   1.696
 1403TIP3    H2 4087   2.299   4.718   1.675
 1404TIP3   OH2 4088   1.766   4.252   0.675
 1404TIP3    H1 4089   1.804   4.163   0.688
 1404TIP3    H2 4090   1.826   4.287   0.608
 1405TIP3   OH2 4091   1.907   4.447   1.172
 1405TIP3    H1 4092   1.994   4.470   1.134
 1405TIP3    H2 4093   1.921   4.477   1.264
 1406TIP3   OH2 4094   1.970   4.587   1.409
 1406TIP3    H1 4095   1.891   4.621   1.455
 1406TIP3    H2 4096   2.003   4.667   1.362
 1407TIP3   OH2 4097   0.589   4.311   2.203
 1407TIP3    H1 4098   0.687   4.306   2.203
 1407TIP3    H2 4099   0.567   4.227   2.247
 1408TIP3   OH2 4100   2.415   4.173   1.965
 1408TIP3    H1 4101   2.479   4.105   1.932
 1408TIP3    H2 4102   2.405   4.229   1.886
 1409TIP3   OH2 4103   0.439   4.309   1.638
 1409TIP3    H1 4104   0.391   4.243   1.585
 1409TIP3    H2 4105   0.393   4.390   1.617
 1410TIP3   OH2 4106   2.300   4.326   1.765
 1410TIP3    H1 4107   2.208   4.352   1.779
 1410TIP3    H2 4108   2.286   4.245   1.712
 1411TIP3   OH2 4109   1.520   5.481   0.631
 1411TIP3    H1 4110   1.557   5.462   0.542
 1411TIP3    H2 4111   1.577   5.551   0.664
 1412TIP3   OH2 4112   0.553   3.878   1.922
 1412TIP3    H1 4113   0.514   3.853   2.008
 1412TIP3    H2 4114   0.492   3.947   1.893
 1413TIP3   OH2 4115   0.596   5.297   2.007
 1413TIP3    H1 4116   0.511   5.257   1.983
 1413TIP3    H2 4117   0.612   5.261   2.095
 1414TIP3   OH2 4118   0.763   5.309   1.568
 1414TIP3    H1 4119   0.703   5.369   1.521
 1414TIP3    H2 4120   0.838   5.325   1.506
 1415TIP3   OH2 4121   1.221   5.572   1.691
 1415TIP3    H1 4122   1.269   5.562   1.775
 1415TIP3    H2 4123   1.289   5.614   1.635
 1416TIP3   OH2 4124   1.402   5.715   1.542
 1416TIP3    H1 4125   1.468   5.659   1.499
 1416TIP3    H2 4126   1.458   5.769   1.603
 1417TIP3   OH2 4127   2.191   4.079   1.660
 1417TIP3    H1 4128   2.108   4.079   1.608
 1417TIP3    H2 4129   2.229   3.993   1.632
 1418TIP3   OH2 4130   0.469   5.557   1.587
 1418TIP3    H1 4131   0.404   5.614   1.545
 1418TIP3    H2 4132   0.470   5.586   1.678
 1419TIP3   OH2 4133   1.156   5.612   1.196
 1419TIP3    H1 4134   1.066   5.605   1.159
 1419TIP3    H2 4135   1.143   5.686   1.257
 1420TIP3   OH2 4136   1.396   5.525   1.282
 1420TIP3    H1 4137   1.300   5.535   1.260
 1420TIP3    H2 4138   1.431   5.600   1.233
 1421TIP3   OH2 4139   1.604   5.721   1.195
 1421TIP3    H1 4140   1.581   5.802   1.144
 1421TIP3    H2 4141   1.621   5.657   1.123
 1422TIP3   OH2 4142   0.363   5.362   1.323
 1422TIP3    H1 4143   0.405   5.340   1.409
 1422TIP3    H2 4144   0.434   5.332   1.262
 1423TIP3   OH2 4145   0.568   5.244   1.181
 1423TIP3    H1 4146   0.582   5.161   1.229
 1423TIP3    H2 4147   0.653   5.290   1.191
 1424TIP3   OH2 4148   1.394   3.996   1.260
 1424TIP3    H1 4149   1.357   3.928   1.320
 1424TIP3    H2 4150   1.467   3.949   1.217
 1425TIP3   OH2 4151   1.928   3.873   1.178
 1425TIP3    H1 4152   1.970   3.924   1.104
 1425TIP3    H2 4153   1.833   3.893   1.165
 1426TIP3   OH2 4154   2.037   3.976   0.953
 1426TIP3    H1 4155   2.092   3.929   0.888
 1426TIP3    H2 4156   2.047   4.068   0.923
 1427TIP3   OH2 4157   1.647   3.884   1.149
 1427TIP3    H1 4158   1.633   3.855   1.058
 1427TIP3    H2 4159   1.630   3.801   1.199
 1428TIP3   OH2 4160   1.641   5.446   0.380
 1428TIP3    H1 4161   1.642   5.347   0.378
 1428TIP3    H2 4162   1.589   5.461   0.300
 1429TIP3   OH2 4163   0.857   3.978   2.170
 1429TIP3    H1 4164   0.826   3.909   2.231
 1429TIP3    H2 4165   0.952   3.983   2.195
 1430TIP3   OH2 4166   1.105   3.978   2.290
 1430TIP3    H1 4167   1.191   3.961   2.247
 1430TIP3    H2 4168   1.099   3.905   2.354
 1431TIP3   OH2 4169   1.931   4.039   2.078
 1431TIP3    H1 4170   1.953   4.009   2.169
 1431TIP3    H2 4171   2.019   4.038   2.034
 1432TIP3   OH2 4172   1.873   5.594   1.569
 1432TIP3    H1 4173   1.794   5.559   1.524
 1432TIP3    H2 4174   1.850   5.689   1.573
 1433TIP3   OH2 4175   3.138   4.967   0.338
 1433TIP3    H1 4176   3.108   5.057   0.317
 1433TIP3    H2 4177   3.062   4.915   0.306
 1434TIP3   OH2 4178   3.137   4.966   0.716
 1434TIP3    H1 4179   3.157   4.931   0.804
 1434TIP3    H2 4180   3.095   4.889   0.674
 1435TIP3   OH2 4181   2.438   4.861   1.079
 1435TIP3    H1 4182   2.472   4.798   1.145
 1435TIP3    H2 4183   2.513   4.923   1.076
 1436TIP3   OH2 4184   3.377   5.267   0.398
 1436TIP3    H1 4185   3.365   5.192   0.456
 1436TIP3    H2 4186   3.408   5.336   0.459
 1437TIP3   OH2 4187   2.406   5.272   0.807
 1437TIP3    H1 4188   2.395   5.175   0.812
 1437TIP3    H2 4189   2.503   5.278   0.807
 1438TIP3   OH2 4190   2.116   4.483   0.596
 1438TIP3    H1 4191   2.057   4.560   0.605
 1438TIP3    H2 4192   2.053   4.415   0.568
 1439TIP3   OH2 4193   2.176   4.765   0.763
 1439TIP3    H1 4194   2.220   4.686   0.802
 1439TIP3    H2 4195   2.227   4.776   0.682
 1440TIP3   OH2 4196   3.023   5.727   0.414
 1440TIP3    H1 4197   3.073   5.657   0.367
 1440TIP3    H2 4198   3.016   5.690   0.503
 1441TIP3   OH2 4199   2.934   5.190   0.765
 1441TIP3    H1 4200   2.967   5.112   0.718
 1441TIP3    H2 4201   3.019   5.232   0.788
 1442TIP3   OH2 4202   3.944   4.511   0.762
 1442TIP3    H1 4203   3.975   4.593   0.806
 1442TIP3    H2 4204   3.970   4.529   0.670
 1443TIP3   OH2 4205   3.346   4.694   0.801
 1443TIP3    H1 4206   3.389   4.608   0.819
 1443TIP3    H2 4207   3.315   4.680   0.710
 1444TIP3   OH2 4208   2.686   4.352   0.764
 1444TIP3    H1 4209   2.660   4.424   0.702
 1444TIP3    H2 4210   2.639   4.277   0.722
 1445TIP3   OH2 4211   3.376   4.443   0.388
 1445TIP3    H1 4212   3.449   4.426   0.452
 1445TIP3    H2 4213   3.428   4.477   0.313
 1446TIP3   OH2 4214   2.315   4.556   0.868
 1446TIP3    H1 4215   2.399   4.534   0.914
 1446TIP3    H2 4216   2.323   4.496   0.791
 1447TIP3   OH2 4217   2.760   4.753   0.660
 1447TIP3    H1 4218   2.852   4.724   0.676
 1447TIP3    H2 4219   2.718   4.669   0.631
 1448TIP3   OH2 4220   4.020   4.717   0.933
 1448TIP3    H1 4221   3.937   4.765   0.916
 1448TIP3    H2 4222   4.035   4.739   1.026
 1449TIP3   OH2 4223   2.694   4.342   1.178
 1449TIP3    H1 4224   2.604   4.365   1.151
 1449TIP3    H2 4225   2.679   4.303   1.268
 1450TIP3   OH2 4226   3.033   5.189   0.208
 1450TIP3    H1 4227   2.987   5.160   0.128
 1450TIP3    H2 4228   2.984   5.271   0.229
 1451TIP3   OH2 4229   2.790   5.101   1.006
 1451TIP3    H1 4230   2.726   5.165   1.042
 1451TIP3    H2 4231   2.836   5.153   0.938
 1452TIP3   OH2 4232   3.589   4.445   0.557
 1452TIP3    H1 4233   3.590   4.387   0.634
 1452TIP3    H2 4234   3.647   4.517   0.584
 1453TIP3   OH2 4235   2.546   4.460   0.975
 1453TIP3    H1 4236   2.618   4.518   1.006
 1453TIP3    H2 4237   2.595   4.409   0.906
 1454TIP3   OH2 4238   2.616   5.301   1.091
 1454TIP3    H1 4239   2.587   5.387   1.053
 1454TIP3    H2 4240   2.538   5.283   1.149
 1455TIP3   OH2 4241   2.014   4.990   0.329
 1455TIP3    H1 4242   1.969   5.011   0.245
 1455TIP3    H2 4243   2.037   5.078   0.364
 1456TIP3   OH2 4244   3.452   5.496   0.574
 1456TIP3    H1 4245   3.360   5.493   0.610
 1456TIP3    H2 4246   3.446   5.575   0.516
 1457TIP3   OH2 4247   3.739   4.413   0.931
 1457TIP3    H1 4248   3.652   4.441   0.899
 1457TIP3    H2 4249   3.799   4.442   0.858
 1458TIP3   OH2 4250   3.041   4.058   0.914
 1458TIP3    H1 4251   3.026   3.962   0.928
 1458TIP3    H2 4252   2.962   4.094   0.960
 1459TIP3   OH2 4253   3.159   5.560   0.243
 1459TIP3    H1 4254   3.202   5.474   0.223
 1459TIP3    H2 4255   3.226   5.621   0.205
 1460TIP3   OH2 4256   3.295   5.343   0.144
 1460TIP3    H1 4257   3.261   5.263   0.102
 1460TIP3    H2 4258   3.329   5.307   0.229
 1461TIP3   OH2 4259   3.674   5.426   0.909
 1461TIP3    H1 4260   3.667   5.345   0.852
 1461TIP3    H2 4261   3.666   5.497   0.843
 1462TIP3   OH2 4262   2.969   4.819   0.168
 1462TIP3    H1 4263   2.887   4.866   0.143
 1462TIP3    H2 4264   3.014   4.810   0.082
 1463TIP3   OH2 4265   2.920   4.593  -0.099
 1463TIP3    H1 4266   2.996   4.645  -0.068
 1463TIP3    H2 4267   2.964   4.515  -0.137
 1464TIP3   OH2 4268   3.870   5.058   0.754
 1464TIP3    H1 4269   3.789   5.112   0.760
 1464TIP3    H2 4270   3.900   5.079   0.664
 1465TIP3   OH2 4271   3.315   4.899   0.140
 1465TIP3    H1 4272   3.260   4.923   0.218
 1465TIP3    H2 4273   3.397   4.869   0.184
 1466TIP3   OH2 4274   3.554   4.938   1.052
 1466TIP3    H1 4275   3.552   5.024   1.098
 1466TIP3    H2 4276   3.468   4.940   1.005
 1467TIP3   OH2 4277   2.549   4.899   0.552
 1467TIP3    H1 4278   2.505   4.839   0.488
 1467TIP3    H2 4279   2.623   4.843   0.583
 1468TIP3   OH2 4280   2.681   5.316   0.700
 1468TIP3    H1 4281   2.654   5.261   0.625
 1468TIP3    H2 4282   2.768   5.277   0.723
 1469TIP3   OH2 4283   2.690   4.864   0.911
 1469TIP3    H1 4284   2.718   4.850   0.819
 1469TIP3    H2 4285   2.730   4.951   0.935
 1470TIP3   OH2 4286   3.209   5.506   0.688
 1470TIP3    H1 4287   3.192   5.584   0.743
 1470TIP3    H2 4288   3.195   5.431   0.749
 1471TIP3   OH2 4289   2.821   5.425   1.234
 1471TIP3    H1 4290   2.760   5.485   1.281
 1471TIP3    H2 4291   2.756   5.369   1.186
 1472TIP3   OH2 4292   3.154   4.756  -0.034
 1472TIP3    H1 4293   3.214   4.814   0.018
 1472TIP3    H2 4294   3.180   4.780  -0.127
 1473TIP3   OH2 4295   2.564   4.990   1.326
 1473TIP3    H1 4296   2.573   5.070   1.380
 1473TIP3    H2 4297   2.470   4.967   1.343
 1474TIP3   OH2 4298   2.896   5.440   0.246
 1474TIP3    H1 4299   2.972   5.497   0.265
 1474TIP3    H2 4300   2.839   5.496   0.193
 1475TIP3   OH2 4301   2.617   5.595   1.322
 1475TIP3    H1 4302   2.581   5.589   1.231
 1475TIP3    H2 4303   2.538   5.572   1.376
 1476TIP3   OH2 4304   3.676   4.003   0.013
 1476TIP3    H1 4305   3.592   4.015   0.063
 1476TIP3    H2 4306   3.680   4.086  -0.039
 1477TIP3   OH2 4307   2.415   4.740   0.360
 1477TIP3    H1 4308   2.346   4.783   0.304
 1477TIP3    H2 4309   2.373   4.655   0.378
 1478TIP3   OH2 4310   2.197   5.122   1.267
 1478TIP3    H1 4311   2.129   5.100   1.200
 1478TIP3    H2 4312   2.231   5.034   1.292
 1479TIP3   OH2 4313   2.048   5.320   0.895
 1479TIP3    H1 4314   2.144   5.309   0.895
 1479TIP3    H2 4315   2.036   5.395   0.955
 1480TIP3   OH2 4316   3.911   5.763   0.954
 1480TIP3    H1 4317   3.913   5.666   0.969
 1480TIP3    H2 4318   3.829   5.787   1.003
 1481TIP3   OH2 4319   3.023   5.551   1.092
 1481TIP3    H1 4320   3.020   5.644   1.124
 1481TIP3    H2 4321   2.949   5.512   1.144
 1482TIP3   OH2 4322   2.773   5.682   0.043
 1482TIP3    H1 4323   2.735   5.661  -0.045
 1482TIP3    H2 4324   2.753   5.777   0.053
 1483TIP3   OH2 4325   2.227   5.563   0.416
 1483TIP3    H1 4326   2.259   5.541   0.507
 1483TIP3    H2 4327   2.156   5.496   0.410
 1484TIP3   OH2 4328   2.977   5.589  -0.301
 1484TIP3    H1 4329   3.022   5.516  -0.346
 1484TIP3    H2 4330   3.014   5.586  -0.211
 1485TIP3   OH2 4331   3.032   5.622  -0.032
 1485TIP3    H1 4332   2.940   5.633   0.000
 1485TIP3    H2 4333   3.070   5.569   0.040
 1486TIP3   OH2 4334   3.802   4.899   1.230
 1486TIP3    H1 4335   3.725   4.910   1.173
 1486TIP3    H2 4336   3.821   4.804   1.221
 1487TIP3   OH2 4337   2.400   5.307   1.259
 1487TIP3    H1 4338   2.451   5.289   1.341
 1487TIP3    H2 4339   2.327   5.242   1.265
 1488TIP3   OH2 4340   2.802   4.132   1.039
 1488TIP3    H1 4341   2.712   4.100   1.016
 1488TIP3    H2 4342   2.776   4.217   1.081
 1489TIP3   OH2 4343   3.329   4.251   1.234
 1489TIP3    H1 4344   3.396   4.222   1.299
 1489TIP3    H2 4345   3.245   4.228   1.279
 1490TIP3   OH2 4346   3.571   4.671   1.152
 1490TIP3    H1 4347   3.527   4.671   1.240
 1490TIP3    H2 4348   3.553   4.761   1.118
 1491TIP3   OH2 4349   3.230   4.807  -0.290
 1491TIP3    H1 4350   3.199   4.798  -0.380
 1491TIP3    H2 4351   3.313   4.857  -0.304
 1492TIP3   OH2 4352   2.957   4.198   0.016
 1492TIP3    H1 4353   2.919   4.189   0.106
 1492TIP3    H2 4354   2.919   4.120  -0.027
 1493TIP3   OH2 4355   2.742   4.649   1.066
 1493TIP3    H1 4356   2.679   4.662   1.140
 1493TIP3    H2 4357   2.718   4.725   1.008
 1494TIP3   OH2 4358   2.612   4.534   0.573
 1494TIP3    H1 4359   2.521   4.503   0.591
 1494TIP3    H2 4360   2.627   4.491   0.486
 1495TIP3   OH2 4361   3.107   4.620   0.302
 1495TIP3    H1 4362   3.052   4.689   0.259
 1495TIP3    H2 4363   3.160   4.587   0.226
 1496TIP3   OH2 4364   3.247   4.909   1.390
 1496TIP3    H1 4365   3.246   4.836   1.457
 1496TIP3    H2 4366   3.339   4.940   1.400
 1497TIP3   OH2 4367   3.266   4.649   0.539
 1497TIP3    H1 4368   3.205   4.675   0.468
 1497TIP3    H2 4369   3.298   4.565   0.499
 1498TIP3   OH2 4370   2.563   4.682   1.271
 1498TIP3    H1 4371   2.556   4.748   1.341
 1498TIP3    H2 4372   2.521   4.604   1.312
 1499TIP3   OH2 4373   2.602   4.144  -0.020
 1499TIP3    H1 4374   2.603   4.138   0.077
 1499TIP3    H2 4375   2.514   4.178  -0.036
 1500TIP3   OH2 4376   2.135   4.215   0.854
 1500TIP3    H1 4377   2.217   4.229   0.905
 1500TIP3    H2 4378   2.166   4.174   0.771
 1501TIP3   OH2 4379   2.149   4.198   0.377
 1501TIP3    H1 4380   2.179   4.228   0.289
 1501TIP3    H2 4381   2.072   4.255   0.392
 1502TIP3   OH2 4382   3.288   4.894   0.970
 1502TIP3    H1 4383   3.314   4.826   0.904
 1502TIP3    H2 4384   3.244   4.838   1.036
 1503TIP3   OH2 4385   2.941   4.359   0.635
 1503TIP3    H1 4386   2.856   4.353   0.684
 1503TIP3    H2 4387   3.006   4.352   0.707
 1504TIP3   OH2 4388   2.377   4.407   0.641
 1504TIP3    H1 4389   2.282   4.415   0.616
 1504TIP3    H2 4390   2.396   4.313   0.623
 1505TIP3   OH2 4391   2.650   4.409   0.334
 1505TIP3    H1 4392   2.745   4.421   0.311
 1505TIP3    H2 4393   2.604   4.429   0.250
 1506TIP3   OH2 4394   3.431   4.432   0.842
 1506TIP3    H1 4395   3.388   4.439   0.930
 1506TIP3    H2 4396   3.373   4.368   0.798
 1507TIP3   OH2 4397   2.488   4.440   0.117
 1507TIP3    H1 4398   2.398   4.409   0.099
 1507TIP3    H2 4399   2.521   4.470   0.031
 1508TIP3   OH2 4400   3.598   6.121   1.056
 1508TIP3    H1 4401   3.594   6.142   0.960
 1508TIP3    H2 4402   3.683   6.165   1.078
 1509TIP3   OH2 4403   2.561   5.232   1.478
 1509TIP3    H1 4404   2.639   5.261   1.530
 1509TIP3    H2 4405   2.495   5.225   1.549
 1510TIP3   OH2 4406   3.028   4.686   0.733
 1510TIP3    H1 4407   3.094   4.637   0.682
 1510TIP3    H2 4408   3.031   4.639   0.819
 1511TIP3   OH2 4409   2.556   4.168   0.610
 1511TIP3    H1 4410   2.514   4.092   0.656
 1511TIP3    H2 4411   2.599   4.126   0.535
 1512TIP3   OH2 4412   3.003   4.583   1.002
 1512TIP3    H1 4413   2.909   4.602   1.023
 1512TIP3    H2 4414   3.050   4.624   1.076
 1513TIP3   OH2 4415   2.738   4.972   0.116
 1513TIP3    H1 4416   2.667   4.905   0.107
 1513TIP3    H2 4417   2.722   5.004   0.208
 1514TIP3   OH2 4418   3.639   5.207   0.748
 1514TIP3    H1 4419   3.665   5.253   0.665
 1514TIP3    H2 4420   3.555   5.164   0.723
 1515TIP3   OH2 4421   3.212   4.283  -0.031
 1515TIP3    H1 4422   3.117   4.258  -0.027
 1515TIP3    H2 4423   3.212   4.377  -0.005
 1516TIP3   OH2 4424   3.133   5.281   1.129
 1516TIP3    H1 4425   3.184   5.293   1.210
 1516TIP3    H2 4426   3.093   5.369   1.115
 1517TIP3   OH2 4427   3.266   4.530   0.084
 1517TIP3    H1 4428   3.363   4.530   0.098
 1517TIP3    H2 4429   3.251   4.607   0.027
 1518TIP3   OH2 4430   2.436   4.997   0.794
 1518TIP3    H1 4431   2.470   4.962   0.709
 1518TIP3    H2 4432   2.461   4.926   0.855
 1519TIP3   OH2 4433   2.883   5.121  -0.068
 1519TIP3    H1 4434   2.841   5.209  -0.054
 1519TIP3    H2 4435   2.830   5.065  -0.007
 1520TIP3   OH2 4436   2.310   4.908   1.405
 1520TIP3    H1 4437   2.326   4.893   1.500
 1520TIP3    H2 4438   2.237   4.845   1.387
 1521TIP3   OH2 4439   3.299   5.550   1.009
 1521TIP3    H1 4440   3.202   5.547   1.021
 1521TIP3    H2 4441   3.326   5.600   1.089
 1522TIP3   OH2 4442   3.709   4.614  -0.077
 1522TIP3    H1 4443   3.651   4.569  -0.143
 1522TIP3    H2 4444   3.707   4.704  -0.118
 1523TIP3   OH2 4445   3.925   5.475   1.000
 1523TIP3    H1 4446   3.827   5.469   0.991
 1523TIP3    H2 4447   3.952   5.445   0.910
 1524TIP3   OH2 4448   3.417   5.433  -0.183
 1524TIP3    H1 4449   3.382   5.373  -0.115
 1524TIP3    H2 4450   3.409   5.379  -0.263
 1525TIP3   OH2 4451   3.404   5.067   0.668
 1525TIP3    H1 4452   3.311   5.038   0.679
 1525TIP3    H2 4453   3.441   4.988   0.623
 1526TIP3   OH2 4454   2.529   5.293   0.421
 1526TIP3    H1 4455   2.532   5.366   0.358
 1526TIP3    H2 4456   2.435   5.272   0.426
 1527TIP3   OH2 4457   2.094   4.603   0.121
 1527TIP3    H1 4458   2.140   4.686   0.143
 1527TIP3    H2 4459   2.016   4.606   0.179
 1528TIP3   OH2 4460   2.675   5.063   0.364
 1528TIP3    H1 4461   2.637   5.151   0.385
 1528TIP3    H2 4462   2.638   5.009   0.436
 1529TIP3   OH2 4463   2.799   5.640   0.887
 1529TIP3    H1 4464   2.840   5.713   0.836
 1529TIP3    H2 4465   2.875   5.605   0.935
 1530TIP3   OH2 4466   2.440   5.544   0.256
 1530TIP3    H1 4467   2.371   5.528   0.324
 1530TIP3    H2 4468   2.502   5.604   0.300
 1531TIP3   OH2 4469   3.194   5.276   0.848
 1531TIP3    H1 4470   3.185   5.262   0.945
 1531TIP3    H2 4471   3.268   5.217   0.826
 1532TIP3   OH2 4472   3.155   5.147  -0.266
 1532TIP3    H1 4473   3.211   5.131  -0.187
 1532TIP3    H2 4474   3.067   5.141  -0.228
 1533TIP3   OH2 4475   3.434   5.812   0.904
 1533TIP3    H1 4476   3.359   5.750   0.891
 1533TIP3    H2 4477   3.421   5.874   0.829
 1534TIP3   OH2 4478   3.322   5.105  -0.047
 1534TIP3    H1 4479   3.312   5.034   0.020
 1534TIP3    H2 4480   3.418   5.099  -0.064
 1535TIP3   OH2 4481   2.243   5.504   1.046
 1535TIP3    H1 4482   2.289   5.424   1.076
 1535TIP3    H2 4483   2.266   5.565   1.117
 1536TIP3   OH2 4484   2.526   5.151  -0.273
 1536TIP3    H1 4485   2.571   5.071  -0.303
 1536TIP3    H2 4486   2.503   5.131  -0.181
 1537TIP3   OH2 4487   2.477   5.149   0.004
 1537TIP3    H1 4488   2.548   5.123   0.063
 1537TIP3    H2 4489   2.484   5.247   0.005
 1538TIP3   OH2 4490   2.215   4.849   0.203
 1538TIP3    H1 4491   2.147   4.891   0.260
 1538TIP3    H2 4492   2.228   4.918   0.136
 1539TIP3   OH2 4493   3.343   4.497   1.107
 1539TIP3    H1 4494   3.434   4.522   1.130
 1539TIP3    H2 4495   3.334   4.410   1.151
 1540TIP3   OH2 4496   3.231   4.239   0.255
 1540TIP3    H1 4497   3.225   4.257   0.160
 1540TIP3    H2 4498   3.275   4.319   0.289
 1541TIP3   OH2 4499   2.749   5.355  -0.040
 1541TIP3    H1 4500   2.659   5.385  -0.016
 1541TIP3    H2 4501   2.749   5.373  -0.136
 1542TIP3   OH2 4502   2.931   4.411   0.361
 1542TIP3    H1 4503   2.998   4.481   0.344
 1542TIP3    H2 4504   2.934   4.405   0.459
 1543TIP3   OH2 4505   3.187   4.743   1.189
 1543TIP3    H1 4506   3.256   4.762   1.256
 1543TIP3    H2 4507   3.223   4.656   1.159
 1544TIP3   OH2 4508   3.077   4.143   0.467
 1544TIP3    H1 4509   3.070   4.221   0.525
 1544TIP3    H2 4510   3.134   4.179   0.395
 1545TIP3   OH2 4511   2.484   5.421   0.013
 1545TIP3    H1 4512   2.459   5.491  -0.051
 1545TIP3    H2 4513   2.466   5.466   0.098
 1546TIP3   OH2 4514   2.592   4.135   0.258
 1546TIP3    H1 4515   2.582   4.224   0.296
 1546TIP3    H2 4516   2.688   4.122   0.268
 1547TIP3   OH2 4517   3.840   4.634   1.148
 1547TIP3    H1 4518   3.742   4.629   1.156
 1547TIP3    H2 4519   3.852   4.589   1.063
 1548TIP3   OH2 4520   3.490   4.828   0.540
 1548TIP3    H1 4521   3.415   4.766   0.549
 1548TIP3    H2 4522   3.562   4.780   0.586
 1549TIP3   OH2 4523   2.204   5.065   0.009
 1549TIP3    H1 4524   2.277   5.129   0.020
 1549TIP3    H2 4525   2.247   5.004  -0.054
 1550TIP3   OH2 4526   2.169   4.340   0.131
 1550TIP3    H1 4527   2.142   4.434   0.122
 1550TIP3    H2 4528   2.094   4.293   0.094
 1551TIP3   OH2 4529   3.469   5.747   0.461
 1551TIP3    H1 4530   3.402   5.814   0.437
 1551TIP3    H2 4531   3.532   5.795   0.517
 1552TIP3   OH2 4532   2.538   4.053   1.016
 1552TIP3    H1 4533   2.504   4.019   0.931
 1552TIP3    H2 4534   2.523   3.976   1.076
 1553TIP3   OH2 4535   2.089   5.285   0.403
 1553TIP3    H1 4536   2.011   5.302   0.457
 1553TIP3    H2 4537   2.056   5.312   0.314
 1554TIP3   OH2 4538   2.228   5.807   1.467
 1554TIP3    H1 4539   2.314   5.804   1.514
 1554TIP3    H2 4540   2.204   5.712   1.466
 1555TIP3   OH2 4541   2.717   5.780   1.508
 1555TIP3    H1 4542   2.809   5.752   1.519
 1555TIP3    H2 4543   2.688   5.720   1.436
 1556TIP3   OH2 4544   2.713   5.345  -0.313
 1556TIP3    H1 4545   2.636   5.285  -0.307
 1556TIP3    H2 4546   2.748   5.319  -0.400
 1557TIP3   OH2 4547   3.352   5.681   1.247
 1557TIP3    H1 4548   3.342   5.608   1.313
 1557TIP3    H2 4549   3.433   5.724   1.277
 1558TIP3   OH2 4550   2.361   5.216   1.667
 1558TIP3    H1 4551   2.378   5.120   1.674
 1558TIP3    H2 4552   2.272   5.218   1.625
 1559TIP3   OH2 4553   2.346   4.881  -0.127
 1559TIP3    H1 4554   2.401   4.836  -0.062
 1559TIP3    H2 4555   2.385   4.857  -0.211
 1560TIP3   OH2 4556   2.970   5.312   1.444
 1560TIP3    H1 4557   2.927   5.322   1.357
 1560TIP3    H2 4558   3.035   5.243   1.430
 1561TIP3   OH2 4559   2.810   5.039  -0.328
 1561TIP3    H1 4560   2.835   5.086  -0.247
 1561TIP3    H2 4561   2.851   4.953  -0.314
 1562TIP3   OH2 4562   3.459   5.311   1.048
 1562TIP3    H1 4563   3.536   5.350   1.003
 1562TIP3    H2 4564   3.391   5.378   1.028
 1563TIP3   OH2 4565   2.481   4.952   1.647
 1563TIP3    H1 4566   2.542   4.878   1.637
 1563TIP3    H2 4567   2.504   4.983   1.738
 1564TIP3   OH2 4568   2.549   4.770   0.085
 1564TIP3    H1 4569   2.519   4.731   0.169
 1564TIP3    H2 4570   2.581   4.691   0.036
 1565TIP3   OH2 4571   2.643   4.565  -0.083
 1565TIP3    H1 4572   2.639   4.517  -0.167
 1565TIP3    H2 4573   2.740   4.579  -0.076
 1566TIP3   OH2 4574   3.321   5.226   1.439
 1566TIP3    H1 4575   3.410   5.222   1.401
 1566TIP3    H2 4576   3.330   5.171   1.519
 1567TIP3   OH2 4577   3.471   4.916  -0.371
 1567TIP3    H1 4578   3.483   4.874  -0.459
 1567TIP3    H2 4579   3.478   5.009  -0.399
 1568TIP3   OH2 4580   2.934   4.626   1.424
 1568TIP3    H1 4581   2.951   4.530   1.413
 1568TIP3    H2 4582   2.859   4.633   1.363
 1569TIP3   OH2 4583   2.948   4.415   1.241
 1569TIP3    H1 4584   2.964   4.433   1.148
 1569TIP3    H2 4585   2.854   4.386   1.238
 1570TIP3   OH2 4586   3.551   4.915   1.499
 1570TIP3    H1 4587   3.592   4.829   1.514
 1570TIP3    H2 4588   3.626   4.967   1.466
 1571TIP3   OH2 4589   3.591   5.165   1.234
 1571TIP3    H1 4590   3.535   5.220   1.174
 1571TIP3    H2 4591   3.680   5.182   1.196
 1572TIP3   OH2 4592   2.810   4.743   1.651
 1572TIP3    H1 4593   2.742   4.677   1.679
 1572TIP3    H2 4594   2.849   4.698   1.574
 1573TIP3   OH2 4595   3.068   4.170   1.302
 1573TIP3    H1 4596   3.019   4.255   1.291
 1573TIP3    H2 4597   2.993   4.107   1.304
 1574TIP3   OH2 4598   3.187   4.695   1.535
 1574TIP3    H1 4599   3.193   4.665   1.628
 1574TIP3    H2 4600   3.103   4.651   1.510
 1575TIP3   OH2 4601   3.438   4.639   1.387
 1575TIP3    H1 4602   3.366   4.616   1.449
 1575TIP3    H2 4603   3.515   4.602   1.436
 1576TIP3   OH2 4604   3.665   4.566   1.532
 1576TIP3    H1 4605   3.679   4.471   1.552
 1576TIP3    H2 4606   3.662   4.606   1.621
 1577TIP3   OH2 4607   2.667   4.511   1.705
 1577TIP3    H1 4608   2.678   4.426   1.657
 1577TIP3    H2 4609   2.702   4.485   1.794
 1578TIP3   OH2 4610   3.194   4.198   1.548
 1578TIP3    H1 4611   3.243   4.113   1.553
 1578TIP3    H2 4612   3.128   4.178   1.479
 1579TIP3   OH2 4613   3.242   4.411   1.710
 1579TIP3    H1 4614   3.222   4.332   1.655
 1579TIP3    H2 4615   3.153   4.450   1.723
 1580TIP3   OH2 4616   2.451   5.629  -0.161
 1580TIP3    H1 4617   2.543   5.630  -0.195
 1580TIP3    H2 4618   2.401   5.653  -0.240
 1581TIP3   OH2 4619   1.940   5.006   0.058
 1581TIP3    H1 4620   2.031   5.036   0.034
 1581TIP3    H2 4621   1.931   4.925   0.007
 1582TIP3   OH2 4622   1.836   5.623   0.462
 1582TIP3    H1 4623   1.774   5.556   0.426
 1582TIP3    H2 4624   1.889   5.569   0.523
 1583TIP3   OH2 4625   1.985   5.481   0.644
 1583TIP3    H1 4626   1.970   5.401   0.696
 1583TIP3    H2 4627   2.030   5.536   0.712
 1584TIP3   OH2 4628   3.695   5.902   0.419
 1584TIP3    H1 4629   3.721   5.922   0.511
 1584TIP3    H2 4630   3.781   5.921   0.376
 1585TIP3   OH2 4631   3.732   5.890   0.712
 1585TIP3    H1 4632   3.700   5.798   0.723
 1585TIP3    H2 4633   3.816   5.884   0.761
 1586TIP3   OH2 4634   3.782   5.573   1.295
 1586TIP3    H1 4635   3.714   5.578   1.364
 1586TIP3    H2 4636   3.827   5.659   1.303
 1587TIP3   OH2 4637   3.601   5.086  -0.073
 1587TIP3    H1 4638   3.680   5.137  -0.099
 1587TIP3    H2 4639   3.636   5.041   0.008
 1588TIP3   OH2 4640   3.727   4.953   0.124
 1588TIP3    H1 4641   3.666   4.906   0.185
 1588TIP3    H2 4642   3.797   4.986   0.185
 1589TIP3   OH2 4643   3.779   5.339   0.552
 1589TIP3    H1 4644   3.838   5.276   0.506
 1589TIP3    H2 4645   3.777   5.414   0.490
 1590TIP3   OH2 4646   3.612   5.644   0.745
 1590TIP3    H1 4647   3.544   5.671   0.808
 1590TIP3    H2 4648   3.564   5.584   0.684
 1591TIP3   OH2 4649   3.673   4.854  -0.208
 1591TIP3    H1 4650   3.596   4.856  -0.268
 1591TIP3    H2 4651   3.651   4.932  -0.153
 1592TIP3   OH2 4652   3.549   4.537  -0.283
 1592TIP3    H1 4653   3.477   4.571  -0.336
 1592TIP3    H2 4654   3.523   4.442  -0.275
 1593TIP3   OH2 4655   3.545   4.804   0.270
 1593TIP3    H1 4656   3.553   4.708   0.264
 1593TIP3    H2 4657   3.532   4.818   0.366
 1594TIP3   OH2 4658   2.172   4.882   1.014
 1594TIP3    H1 4659   2.170   4.850   0.921
 1594TIP3    H2 4660   2.269   4.881   1.032
 1595TIP3   OH2 4661   3.832   5.230   1.124
 1595TIP3    H1 4662   3.905   5.163   1.119
 1595TIP3    H2 4663   3.866   5.300   1.066
 1596TIP3   OH2 4664   4.018   5.039   1.150
 1596TIP3    H1 4665   3.945   4.985   1.187
 1596TIP3    H2 4666   4.092   4.976   1.161
 1597TIP3   OH2 4667   3.481   4.279  -0.261
 1597TIP3    H1 4668   3.566   4.237  -0.237
 1597TIP3    H2 4669   3.416   4.211  -0.237
 1598TIP3   OH2 4670   3.541   4.522   0.166
 1598TIP3    H1 4671   3.580   4.433   0.182
 1598TIP3    H2 4672   3.600   4.552   0.095
 1599TIP3   OH2 4673   3.703   4.701   0.659
 1599TIP3    H1 4674   3.789   4.726   0.619
 1599TIP3    H2 4675   3.718   4.734   0.750
 1600TIP3   OH2 4676   3.771   4.840   0.894
 1600TIP3    H1 4677   3.693   4.875   0.941
 1600TIP3    H2 4678   3.804   4.920   0.847
 1601TIP3   OH2 4679   2.398   4.576   1.699
 1601TIP3    H1 4680   2.493   4.555   1.694
 1601TIP3    H2 4681   2.364   4.490   1.733
 1602TIP3   OH2 4682   4.221   4.428   1.449
 1602TIP3    H1 4683   4.280   4.363   1.406
 1602TIP3    H2 4684   4.197   4.486   1.374
 1603TIP3   OH2 4685   3.649   4.272   0.203
 1603TIP3    H1 4686   3.697   4.255   0.287
 1603TIP3    H2 4687   3.589   4.195   0.200
 1604TIP3   OH2 4688   2.352   4.260   1.024
 1604TIP3    H1 4689   2.413   4.184   1.035
 1604TIP3    H2 4690   2.415   4.333   1.014
 1605TIP3   OH2 4691   2.153   4.536   1.094
 1605TIP3    H1 4692   2.199   4.520   1.010
 1605TIP3    H2 4693   2.188   4.622   1.120
 1606TIP3   OH2 4694   4.096   4.574   1.255
 1606TIP3    H1 4695   4.008   4.609   1.276
 1606TIP3    H2 4696   4.071   4.500   1.196
 1607TIP3   OH2 4697   3.740   4.208  -0.180
 1607TIP3    H1 4698   3.797   4.144  -0.224
 1607TIP3    H2 4699   3.798   4.286  -0.176
 1608TIP3   OH2 4700   2.173   4.077   0.618
 1608TIP3    H1 4701   2.084   4.035   0.620
 1608TIP3    H2 4702   2.172   4.117   0.528
 1609TIP3   OH2 4703   3.332   5.734   0.114
 1609TIP3    H1 4704   3.357   5.706   0.024
 1609TIP3    H2 4705   3.311   5.827   0.098
 1610TIP3   OH2 4706   2.311   4.073   1.394
 1610TIP3    H1 4707   2.332   4.115   1.478
 1610TIP3    H2 4708   2.261   4.143   1.348
 1611TIP3   OH2 4709   2.396   5.544   1.491
 1611TIP3    H1 4710   2.306   5.513   1.470
 1611TIP3    H2 4711   2.404   5.520   1.584
 1612TIP3   OH2 4712   2.573   5.573   1.037
 1612TIP3    H1 4713   2.522   5.647   0.998
 1612TIP3    H2 4714   2.658   5.589   0.991
 1613TIP3   OH2 4715   3.021   5.818   1.172
 1613TIP3    H1 4716   3.062   5.819   1.262
 1613TIP3    H2 4717   3.087   5.868   1.121
 1614TIP3   OH2 4718   3.201   5.968   1.029
 1614TIP3    H1 4719   3.273   5.916   0.990
 1614TIP3    H2 4720   3.251   6.027   1.088
 1615TIP3   OH2 4721   3.992   4.334   1.132
 1615TIP3    H1 4722   3.901   4.327   1.099
 1615TIP3    H2 4723   4.024   4.242   1.119
 1616TIP3   OH2 4724   2.254   5.838   1.055
 1616TIP3    H1 4725   2.163   5.869   1.035
 1616TIP3    H2 4726   2.259   5.859   1.148
 1617TIP3   OH2 4727   2.488   5.812   0.914
 1617TIP3    H1 4728   2.403   5.825   0.962
 1617TIP3    H2 4729   2.466   5.846   0.826
 1618TIP3   OH2 4730   2.913   5.841   0.712
 1618TIP3    H1 4731   2.848   5.864   0.644
 1618TIP3    H2 4732   2.925   5.928   0.756
 1619TIP3   OH2 4733   3.181   5.785   0.759
 1619TIP3    H1 4734   3.085   5.794   0.742
 1619TIP3    H2 4735   3.214   5.872   0.732
 1620TIP3   OH2 4736   3.388   5.981   0.686
 1620TIP3    H1 4737   3.372   6.071   0.651
 1620TIP3    H2 4738   3.402   5.933   0.604
 1621TIP3   OH2 4739   2.169   5.630   0.808
 1621TIP3    H1 4740   2.192   5.600   0.899
 1621TIP3    H2 4741   2.235   5.579   0.757
 1622TIP3   OH2 4742   2.354   5.498   0.653
 1622TIP3    H1 4743   2.365   5.413   0.702
 1622TIP3    H2 4744   2.446   5.532   0.657
 1623TIP3   OH2 4745   2.623   5.594   0.657
 1623TIP3    H1 4746   2.653   5.501   0.648
 1623TIP3    H2 4747   2.661   5.614   0.745
 1624TIP3   OH2 4748   3.198   4.250   0.752
 1624TIP3    H1 4749   3.153   4.181   0.804
 1624TIP3    H2 4750   3.266   4.199   0.704
 1625TIP3   OH2 4751   3.723   4.134   0.660
 1625TIP3    H1 4752   3.759   4.182   0.582
 1625TIP3    H2 4753   3.627   4.145   0.648
 1626TIP3   OH2 4754   3.817   4.232   0.421
 1626TIP3    H1 4755   3.889   4.179   0.380
 1626TIP3    H2 4756   3.850   4.323   0.405
 1627TIP3   OH2 4757   2.450   3.960   0.769
 1627TIP3    H1 4758   2.356   3.934   0.761
 1627TIP3    H2 4759   2.495   3.873   0.762
 1628TIP3   OH2 4760   2.244   3.823   0.421
 1628TIP3    H1 4761   2.254   3.879   0.342
 1628TIP3    H2 4762   2.188   3.878   0.476
 1629TIP3   OH2 4763   2.890   3.989   0.645
 1629TIP3    H1 4764   2.951   4.041   0.591
 1629TIP3    H2 4765   2.902   4.028   0.733
 1630TIP3   OH2 4766   3.442   4.136   0.630
 1630TIP3    H1 4767   3.435   4.100   0.541
 1630TIP3    H2 4768   3.425   4.056   0.685
 1631TIP3   OH2 4769   3.470   4.057   0.195
 1631TIP3    H1 4770   3.379   4.092   0.192
 1631TIP3    H2 4771   3.455   3.972   0.242
 1632TIP3   OH2 4772   1.955   5.384   0.195
 1632TIP3    H1 4773   1.867   5.348   0.169
 1632TIP3    H2 4774   1.942   5.477   0.170
 1633TIP3   OH2 4775   2.356   3.997   0.175
 1633TIP3    H1 4776   2.391   3.909   0.159
 1633TIP3    H2 4777   2.429   4.043   0.220
 1634TIP3   OH2 4778   2.866   4.160   0.277
 1634TIP3    H1 4779   2.924   4.113   0.339
 1634TIP3    H2 4780   2.886   4.253   0.303
 1635TIP3   OH2 4781   2.715   5.605  -0.231
 1635TIP3    H1 4782   2.806   5.619  -0.263
 1635TIP3    H2 4783   2.698   5.520  -0.278
 1636TIP3   OH2 4784   3.437   5.700  -0.140
 1636TIP3    H1 4785   3.428   5.602  -0.155
 1636TIP3    H2 4786   3.375   5.735  -0.205
 1637TIP3   OH2 4787   2.040   5.457  -0.144
 1637TIP3    H1 4788   2.013   5.460  -0.052
 1637TIP3    H2 4789   2.106   5.387  -0.146
 1638TIP3   OH2 4790   3.727   4.297   1.565
 1638TIP3    H1 4791   3.747   4.266   1.657
 1638TIP3    H2 4792   3.816   4.291   1.523
 1639TIP3   OH2 4793   3.665   5.850   1.062
 1639TIP3    H1 4794   3.587   5.819   1.012
 1639TIP3    H2 4795   3.650   5.947   1.057
 1640TIP3   OH2 4796   4.911   5.224   0.210
 1640TIP3    H1 4797   4.959   5.196   0.290
 1640TIP3    H2 4798   4.890   5.139   0.168
 1641TIP3   OH2 4799   4.230   5.120   0.574
 1641TIP3    H1 4800   4.263   5.052   0.635
 1641TIP3    H2 4801   4.310   5.171   0.558
 1642TIP3   OH2 4802   4.200   5.522   0.301
 1642TIP3    H1 4803   4.195   5.424   0.301
 1642TIP3    H2 4804   4.296   5.534   0.290
 1643TIP3   OH2 4805   3.909   4.733   0.081
 1643TIP3    H1 4806   3.859   4.815   0.093
 1643TIP3    H2 4807   3.840   4.674   0.049
 1644TIP3   OH2 4808   3.969   5.016   0.248
 1644TIP3    H1 4809   4.017   4.940   0.288
 1644TIP3    H2 4810   4.033   5.046   0.182
 1645TIP3   OH2 4811   4.732   5.446   0.251
 1645TIP3    H1 4812   4.771   5.364   0.215
 1645TIP3    H2 4813   4.816   5.491   0.274
 1646TIP3   OH2 4814   5.740   4.764   0.255
 1646TIP3    H1 4815   5.765   4.845   0.304
 1646TIP3    H2 4816   5.783   4.781   0.168
 1647TIP3   OH2 4817   5.138   4.948   0.296
 1647TIP3    H1 4818   5.185   4.863   0.307
 1647TIP3    H2 4819   5.117   4.946   0.201
 1648TIP3   OH2 4820   4.477   4.608   0.253
 1648TIP3    H1 4821   4.460   4.680   0.189
 1648TIP3    H2 4822   4.432   4.534   0.207
 1649TIP3   OH2 4823   5.125   4.685  -0.059
 1649TIP3    H1 4824   5.194   4.662   0.006
 1649TIP3    H2 4825   5.186   4.688  -0.136
 1650TIP3   OH2 4826   4.114   4.811   0.357
 1650TIP3    H1 4827   4.197   4.791   0.404
 1650TIP3    H2 4828   4.126   4.755   0.278
 1651TIP3   OH2 4829   4.555   5.008   0.151
 1651TIP3    H1 4830   4.649   4.983   0.165
 1651TIP3    H2 4831   4.517   4.924   0.117
 1652TIP3   OH2 4832   5.812   4.969   0.422
 1652TIP3    H1 4833   5.730   5.020   0.406
 1652TIP3    H2 4834   5.839   5.004   0.509
 1653TIP3   OH2 4835   4.477   4.591   0.684
 1653TIP3    H1 4836   4.417   4.628   0.617
 1653TIP3    H2 4837   4.426   4.609   0.766
 1654TIP3   OH2 4838   4.583   5.366   0.482
 1654TIP3    H1 4839   4.520   5.431   0.520
 1654TIP3    H2 4840   4.626   5.418   0.411
 1655TIP3   OH2 4841   5.394   4.709   0.062
 1655TIP3    H1 4842   5.389   4.657   0.142
 1655TIP3    H2 4843   5.439   4.791   0.093
 1656TIP3   OH2 4844   4.346   4.707   0.470
 1656TIP3    H1 4845   4.410   4.779   0.493
 1656TIP3    H2 4846   4.395   4.665   0.396
 1657TIP3   OH2 4847   4.409   5.558   0.579
 1657TIP3    H1 4848   4.385   5.643   0.536
 1657TIP3    H2 4849   4.331   5.546   0.636
 1658TIP3   OH2 4850   3.805   5.241  -0.179
 1658TIP3    H1 4851   3.734   5.268  -0.239
 1658TIP3    H2 4852   3.814   5.318  -0.120
 1659TIP3   OH2 4853   5.216   5.784   0.079
 1659TIP3    H1 4854   5.127   5.751   0.109
 1659TIP3    H2 4855   5.188   5.856   0.021
 1660TIP3   OH2 4856   5.534   4.666   0.417
 1660TIP3    H1 4857   5.446   4.698   0.389
 1660TIP3    H2 4858   5.593   4.699   0.346
 1661TIP3   OH2 4859   4.836   4.311   0.397
 1661TIP3    H1 4860   4.825   4.216   0.416
 1661TIP3    H2 4861   4.758   4.348   0.444
 1662TIP3   OH2 4862   5.467   5.681   0.399
 1662TIP3    H1 4863   5.478   5.604   0.340
 1662TIP3    H2 4864   5.465   5.755   0.336
 1663TIP3   OH2 4865   5.670   5.304   0.268
 1663TIP3    H1 4866   5.594   5.366   0.271
 1663TIP3    H2 4867   5.690   5.306   0.174
 1664TIP3   OH2 4868   5.345   5.195   0.536
 1664TIP3    H1 4869   5.343   5.278   0.587
 1664TIP3    H2 4870   5.263   5.204   0.484
 1665TIP3   OH2 4871   4.343   5.155   0.046
 1665TIP3    H1 4872   4.301   5.096  -0.021
 1665TIP3    H2 4873   4.422   5.103   0.072
 1666TIP3   OH2 4874   4.468   5.561   0.198
 1666TIP3    H1 4875   4.446   5.527   0.109
 1666TIP3    H2 4876   4.559   5.527   0.210
 1667TIP3   OH2 4877   4.476   5.127   0.397
 1667TIP3    H1 4878   4.512   5.104   0.308
 1667TIP3    H2 4879   4.523   5.210   0.418
 1668TIP3   OH2 4880   4.968   5.760   0.186
 1668TIP3    H1 4881   4.974   5.838   0.244
 1668TIP3    H2 4882   4.972   5.686   0.250
 1669TIP3   OH2 4883   4.617   5.682   0.720
 1669TIP3    H1 4884   4.559   5.745   0.767
 1669TIP3    H2 4885   4.551   5.628   0.673
 1670TIP3   OH2 4886   4.371   5.240   0.821
 1670TIP3    H1 4887   4.375   5.326   0.868
 1670TIP3    H2 4888   4.276   5.221   0.826
 1671TIP3   OH2 4889   4.411   5.851   0.806
 1671TIP3    H1 4890   4.378   5.848   0.714
 1671TIP3    H2 4891   4.331   5.831   0.859
 1672TIP3   OH2 4892   4.203   4.995  -0.132
 1672TIP3    H1 4893   4.150   5.034  -0.204
 1672TIP3    H2 4894   4.157   4.913  -0.116
 1673TIP3   OH2 4895   3.989   5.380   0.756
 1673TIP3    H1 4896   3.931   5.352   0.683
 1673TIP3    H2 4897   4.029   5.294   0.784
 1674TIP3   OH2 4898   3.850   5.575   0.396
 1674TIP3    H1 4899   3.939   5.550   0.368
 1674TIP3    H2 4900   3.870   5.648   0.456
 1675TIP3   OH2 4901   5.707   6.019   0.446
 1675TIP3    H1 4902   5.707   5.923   0.463
 1675TIP3    H2 4903   5.624   6.046   0.491
 1676TIP3   OH2 4904   4.817   5.812   0.577
 1676TIP3    H1 4905   4.818   5.904   0.610
 1676TIP3    H2 4906   4.746   5.773   0.632
 1677TIP3   OH2 4907   4.007   5.790  -0.085
 1677TIP3    H1 4908   4.075   5.784  -0.015
 1677TIP3    H2 4909   3.957   5.708  -0.068
 1678TIP3   OH2 4910   5.597   5.152   0.720
 1678TIP3    H1 4911   5.519   5.167   0.664
 1678TIP3    H2 4912   5.612   5.057   0.707
 1679TIP3   OH2 4913   4.194   5.564   0.748
 1679TIP3    H1 4914   4.248   5.545   0.828
 1679TIP3    H2 4915   4.123   5.498   0.754
 1680TIP3   OH2 4916   4.595   4.386   0.525
 1680TIP3    H1 4917   4.505   4.356   0.501
 1680TIP3    H2 4918   4.572   4.470   0.570
 1681TIP3   OH2 4919   5.129   4.502   0.721
 1681TIP3    H1 4920   5.197   4.475   0.786
 1681TIP3    H2 4921   5.045   4.481   0.767
 1682TIP3   OH2 4922   5.368   4.930   0.638
 1682TIP3    H1 4923   5.321   4.927   0.725
 1682TIP3    H2 4924   5.344   5.018   0.604
 1683TIP3   OH2 4925   4.525   4.902   0.544
 1683TIP3    H1 4926   4.478   4.925   0.627
 1683TIP3    H2 4927   4.510   4.983   0.491
 1684TIP3   OH2 4928   4.412   4.785   0.058
 1684TIP3    H1 4929   4.319   4.759   0.076
 1684TIP3    H2 4930   4.423   4.746  -0.032
 1685TIP3   OH2 4931   5.076   5.155   0.875
 1685TIP3    H1 4932   5.055   5.081   0.936
 1685TIP3    H2 4933   5.170   5.169   0.895
 1686TIP3   OH2 4934   5.048   4.931   0.035
 1686TIP3    H1 4935   5.023   4.977  -0.048
 1686TIP3    H2 4936   5.070   4.841   0.000
 1687TIP3   OH2 4937   4.342   4.933   0.756
 1687TIP3    H1 4938   4.380   4.993   0.822
 1687TIP3    H2 4939   4.335   4.849   0.806
 1688TIP3   OH2 4940   3.939   4.457   0.334
 1688TIP3    H1 4941   4.016   4.485   0.387
 1688TIP3    H2 4942   3.977   4.418   0.254
 1689TIP3   OH2 4943   3.912   4.435  -0.144
 1689TIP3    H1 4944   3.963   4.471  -0.219
 1689TIP3    H2 4945   3.854   4.511  -0.124
 1690TIP3   OH2 4946   5.059   5.152   0.451
 1690TIP3    H1 4947   5.098   5.081   0.394
 1690TIP3    H2 4948   5.037   5.099   0.531
 1691TIP3   OH2 4949   4.738   4.606   0.129
 1691TIP3    H1 4950   4.656   4.605   0.183
 1691TIP3    H2 4951   4.807   4.611   0.197
 1692TIP3   OH2 4952   4.173   4.665   0.129
 1692TIP3    H1 4953   4.078   4.669   0.104
 1692TIP3    H2 4954   4.197   4.573   0.108
 1693TIP3   OH2 4955   4.441   4.667  -0.194
 1693TIP3    H1 4956   4.539   4.673  -0.180
 1693TIP3    H2 4957   4.429   4.720  -0.274
 1694TIP3   OH2 4958   5.231   4.685   0.325
 1694TIP3    H1 4959   5.194   4.698   0.415
 1694TIP3    H2 4960   5.166   4.625   0.286
 1695TIP3   OH2 4961   5.398   6.372   0.571
 1695TIP3    H1 4962   5.395   6.385   0.474
 1695TIP3    H2 4963   5.470   6.433   0.595
 1696TIP3   OH2 4964   4.356   5.486   0.965
 1696TIP3    H1 4965   4.438   5.515   1.010
 1696TIP3    H2 4966   4.294   5.485   1.040
 1697TIP3   OH2 4967   4.818   4.932   0.217
 1697TIP3    H1 4968   4.898   4.911   0.166
 1697TIP3    H2 4969   4.838   4.895   0.304
 1698TIP3   OH2 4970   4.347   4.427   0.094
 1698TIP3    H1 4971   4.315   4.346   0.139
 1698TIP3    H2 4972   4.408   4.390   0.028
 1699TIP3   OH2 4973   4.798   4.829   0.514
 1699TIP3    H1 4974   4.710   4.870   0.523
 1699TIP3    H2 4975   4.858   4.891   0.561
 1700TIP3   OH2 4976   5.444   5.449   0.231
 1700TIP3    H1 4977   5.431   5.527   0.172
 1700TIP3    H2 4978   5.355   5.406   0.228
 1701TIP3   OH2 4979   4.934   5.544   0.601
 1701TIP3    H1 4980   4.958   5.521   0.692
 1701TIP3    H2 4981   4.896   5.633   0.610
 1702TIP3   OH2 4982   4.221   5.242   0.281
 1702TIP3    H1 4983   4.263   5.221   0.194
 1702TIP3    H2 4984   4.271   5.184   0.340
 1703TIP3   OH2 4985   4.103   5.173   0.895
 1703TIP3    H1 4986   4.132   5.157   0.987
 1703TIP3    H2 4987   4.041   5.100   0.881
 1704TIP3   OH2 4988   4.832   5.280   0.913
 1704TIP3    H1 4989   4.777   5.223   0.858
 1704TIP3    H2 4990   4.922   5.250   0.887
 1705TIP3   OH2 4991   5.093   5.808   0.491
 1705TIP3    H1 4992   4.998   5.803   0.510
 1705TIP3    H2 4993   5.125   5.856   0.570
 1706TIP3   OH2 4994   5.718   5.734   0.491
 1706TIP3    H1 4995   5.620   5.732   0.495
 1706TIP3    H2 4996   5.731   5.698   0.400
 1707TIP3   OH2 4997   5.207   5.314   0.202
 1707TIP3    H1 4998   5.114   5.307   0.179
 1707TIP3    H2 4999   5.243   5.244   0.142
 1708TIP3   OH2 5000   4.337   5.562  -0.075
 1708TIP3    H1 5001   4.350   5.651  -0.114
 1708TIP3    H2 5002   4.263   5.529  -0.131
 1709TIP3   OH2 5003   3.874   4.854  -0.394
 1709TIP3    H1 5004   3.921   4.936  -0.368
 1709TIP3    H2 5005   3.800   4.855  -0.331
 1710TIP3   OH2 5006   4.486   5.329  -0.126
 1710TIP3    H1 5007   4.440   5.414  -0.117
 1710TIP3    H2 5008   4.434   5.273  -0.065
 1711TIP3   OH2 5009   4.595   5.895   0.375
 1711TIP3    H1 5010   4.636   5.967   0.323
 1711TIP3    H2 5011   4.673   5.862   0.423
 1712TIP3   OH2 5012   4.993   5.526   0.333
 1712TIP3    H1 5013   4.982   5.523   0.431
 1712TIP3    H2 5014   5.071   5.470   0.322
 1713TIP3   OH2 5015   5.225   6.067   0.396
 1713TIP3    H1 5016   5.146   6.011   0.383
 1713TIP3    H2 5017   5.214   6.131   0.325
 1714TIP3   OH2 5018   4.321   4.675   0.902
 1714TIP3    H1 5019   4.225   4.678   0.916
 1714TIP3    H2 5020   4.350   4.613   0.972
 1715TIP3   OH2 5021   4.026   5.757   0.539
 1715TIP3    H1 5022   4.087   5.684   0.561
 1715TIP3    H2 5023   4.066   5.828   0.592
 1716TIP3   OH2 5024   3.998   5.078  -0.303
 1716TIP3    H1 5025   3.943   5.136  -0.247
 1716TIP3    H2 5026   4.040   5.144  -0.364
 1717TIP3   OH2 5027   5.152   4.739   0.583
 1717TIP3    H1 5028   5.234   4.777   0.620
 1717TIP3    H2 5029   5.140   4.658   0.637
 1718TIP3   OH2 5030   4.705   4.682  -0.135
 1718TIP3    H1 5031   4.785   4.723  -0.173
 1718TIP3    H2 5032   4.728   4.672  -0.040
 1719TIP3   OH2 5033   4.993   4.987   0.660
 1719TIP3    H1 5034   5.015   5.042   0.738
 1719TIP3    H2 5035   5.051   4.910   0.671
 1720TIP3   OH2 5036   4.885   4.418  -0.051
 1720TIP3    H1 5037   4.859   4.477   0.022
 1720TIP3    H2 5038   4.970   4.458  -0.077
 1721TIP3   OH2 5039   4.372   4.390  -0.244
 1721TIP3    H1 5040   4.373   4.483  -0.213
 1721TIP3    H2 5041   4.462   4.362  -0.215
 1722TIP3   OH2 5042   5.635   4.886   0.640
 1722TIP3    H1 5043   5.537   4.884   0.644
 1722TIP3    H2 5044   5.649   4.854   0.550
 1723TIP3   OH2 5045   5.296   5.098   0.056
 1723TIP3    H1 5046   5.221   5.042   0.029
 1723TIP3    H2 5047   5.365   5.032   0.076
 1724TIP3   OH2 5048   3.946   4.591  -0.378
 1724TIP3    H1 5049   3.919   4.685  -0.389
 1724TIP3    H2 5050   3.874   4.545  -0.422
 1725TIP3   OH2 5051   4.329   4.307   0.504
 1725TIP3    H1 5052   4.299   4.273   0.417
 1725TIP3    H2 5053   4.320   4.228   0.561
 1726TIP3   OH2 5054   3.849   5.566  -0.070
 1726TIP3    H1 5055   3.754   5.574  -0.085
 1726TIP3    H2 5056   3.881   5.540  -0.159
 1727TIP3   OH2 5057   4.024   6.061   0.962
 1727TIP3    H1 5058   4.113   6.062   1.004
 1727TIP3    H2 5059   4.011   5.966   0.952
 1728TIP3   OH2 5060   4.505   6.034   1.000
 1728TIP3    H1 5061   4.600   6.019   1.010
 1728TIP3    H2 5062   4.486   5.976   0.923
 1729TIP3   OH2 5063   5.148   5.935   0.730
 1729TIP3    H1 5064   5.140   5.866   0.800
 1729TIP3    H2 5065   5.225   5.987   0.761
 1730TIP3   OH2 5066   4.155   5.472   1.156
 1730TIP3    H1 5067   4.176   5.377   1.160
 1730TIP3    H2 5068   4.069   5.472   1.111
 1731TIP3   OH2 5069   4.763   5.555   0.929
 1731TIP3    H1 5070   4.725   5.570   0.841
 1731TIP3    H2 5071   4.797   5.463   0.923
 1732TIP3   OH2 5072   5.257   5.562   0.534
 1732TIP3    H1 5073   5.330   5.610   0.491
 1732TIP3    H2 5074   5.184   5.625   0.521
 1733TIP3   OH2 5075   4.274   5.204   1.135
 1733TIP3    H1 5076   4.350   5.147   1.115
 1733TIP3    H2 5077   4.299   5.237   1.224
 1734TIP3   OH2 5078   4.607   5.088   0.795
 1734TIP3    H1 5079   4.534   5.153   0.801
 1734TIP3    H2 5080   4.659   5.122   0.718
 1735TIP3   OH2 5081   5.126   5.492   0.932
 1735TIP3    H1 5082   5.210   5.475   0.886
 1735TIP3    H2 5083   5.127   5.425   1.002
 1736TIP3   OH2 5084   4.731   4.878   0.928
 1736TIP3    H1 5085   4.735   4.797   0.872
 1736TIP3    H2 5086   4.691   4.943   0.867
 1737TIP3   OH2 5087   4.736   4.664   0.733
 1737TIP3    H1 5088   4.765   4.706   0.649
 1737TIP3    H2 5089   4.643   4.642   0.713
 1738TIP3   OH2 5090   4.766   5.201   0.605
 1738TIP3    H1 5091   4.849   5.205   0.554
 1738TIP3    H2 5092   4.712   5.270   0.560
 1739TIP3   OH2 5093   5.348   5.170   0.988
 1739TIP3    H1 5094   5.397   5.086   0.996
 1739TIP3    H2 5095   5.417   5.229   0.953
 1740TIP3   OH2 5096   5.389   5.420   0.722
 1740TIP3    H1 5097   5.331   5.473   0.662
 1740TIP3    H2 5098   5.476   5.440   0.681
 1741TIP3   OH2 5099   4.607   4.996   1.152
 1741TIP3    H1 5100   4.541   4.925   1.166
 1741TIP3    H2 5101   4.646   4.969   1.067
 1742TIP3   OH2 5102   4.869   4.430   0.797
 1742TIP3    H1 5103   4.821   4.513   0.775
 1742TIP3    H2 5104   4.799   4.363   0.785
 1743TIP3   OH2 5105   4.995   4.936   1.014
 1743TIP3    H1 5106   4.987   4.925   1.111
 1743TIP3    H2 5107   4.904   4.910   0.987
 1744TIP3   OH2 5108   5.235   4.883   0.869
 1744TIP3    H1 5109   5.159   4.884   0.930
 1744TIP3    H2 5110   5.308   4.853   0.926
 1745TIP3   OH2 5111   5.462   4.823   1.021
 1745TIP3    H1 5112   5.475   4.727   1.041
 1745TIP3    H2 5113   5.459   4.863   1.111
 1746TIP3   OH2 5114   4.450   4.774   1.206
 1746TIP3    H1 5115   4.460   4.684   1.170
 1746TIP3    H2 5116   4.487   4.761   1.296
 1747TIP3   OH2 5117   4.963   4.439   1.054
 1747TIP3    H1 5118   5.032   4.370   1.049
 1747TIP3    H2 5119   4.924   4.432   0.965
 1748TIP3   OH2 5120   5.028   4.653   1.215
 1748TIP3    H1 5121   5.006   4.583   1.150
 1748TIP3    H2 5122   4.951   4.714   1.207
 1749TIP3   OH2 5123   3.631   5.875  -0.055
 1749TIP3    H1 5124   3.570   5.809  -0.095
 1749TIP3    H2 5125   3.682   5.821   0.008
 1750TIP3   OH2 5126   3.726   5.753   0.179
 1750TIP3    H1 5127   3.761   5.662   0.176
 1750TIP3    H2 5128   3.810   5.800   0.199
 1751TIP3   OH2 5129   5.560   6.137   0.216
 1751TIP3    H1 5130   5.515   6.052   0.230
 1751TIP3    H2 5131   5.631   6.129   0.282
 1752TIP3   OH2 5132   5.581   5.826   0.783
 1752TIP3    H1 5133   5.509   5.834   0.848
 1752TIP3    H2 5134   5.623   5.915   0.789
 1753TIP3   OH2 5135   5.406   5.910   0.251
 1753TIP3    H1 5136   5.344   5.949   0.315
 1753TIP3    H2 5137   5.346   5.854   0.197
 1754TIP3   OH2 5138   3.967   5.141   0.501
 1754TIP3    H1 5139   3.968   5.109   0.408
 1754TIP3    H2 5140   4.064   5.142   0.520
 1755TIP3   OH2 5141   5.629   5.488   0.610
 1755TIP3    H1 5142   5.701   5.420   0.605
 1755TIP3    H2 5143   5.664   5.558   0.553
 1756TIP3   OH2 5144   5.811   5.295   0.640
 1756TIP3    H1 5145   5.739   5.239   0.677
 1756TIP3    H2 5146   5.887   5.233   0.647
 1757TIP3   OH2 5147   5.509   4.949   0.148
 1757TIP3    H1 5148   5.591   4.983   0.105
 1757TIP3    H2 5149   5.519   4.988   0.237
 1758TIP3   OH2 5150   5.560   5.087   0.385
 1758TIP3    H1 5151   5.481   5.122   0.431
 1758TIP3    H2 5152   5.599   5.170   0.349
 1759TIP3   OH2 5153   4.183   4.826   1.179
 1759TIP3    H1 5154   4.281   4.819   1.179
 1759TIP3    H2 5155   4.160   4.740   1.220
 1760TIP3   OH2 5156   6.020   4.686   0.937
 1760TIP3    H1 5157   6.077   4.620   0.892
 1760TIP3    H2 5158   5.991   4.743   0.862
 1761TIP3   OH2 5159   4.145   4.515   0.511
 1761TIP3    H1 5160   4.207   4.440   0.520
 1761TIP3    H2 5161   4.208   4.589   0.504
 1762TIP3   OH2 5162   3.949   4.792   0.582
 1762TIP3    H1 5163   3.998   4.779   0.498
 1762TIP3    H2 5164   3.987   4.875   0.612
 1763TIP3   OH2 5165   5.892   4.828   0.745
 1763TIP3    H1 5166   5.804   4.867   0.765
 1763TIP3    H2 5167   5.864   4.758   0.683
 1764TIP3   OH2 5168   3.932   4.298   0.087
 1764TIP3    H1 5169   3.837   4.291   0.109
 1764TIP3    H2 5170   3.931   4.352   0.006
 1765TIP3   OH2 5171   4.152   4.375   0.899
 1765TIP3    H1 5172   4.101   4.367   0.981
 1765TIP3    H2 5173   4.084   4.411   0.838
 1766TIP3   OH2 5174   4.190   5.804   0.975
 1766TIP3    H1 5175   4.101   5.767   0.958
 1766TIP3    H2 5176   4.205   5.779   1.067
 1767TIP3   OH2 5177   4.366   5.830   0.521
 1767TIP3    H1 5178   4.323   5.908   0.481
 1767TIP3    H2 5179   4.454   5.840   0.479
 1768TIP3   OH2 5180   4.816   6.077   0.660
 1768TIP3    H1 5181   4.859   6.078   0.749
 1768TIP3    H2 5182   4.882   6.128   0.608
 1769TIP3   OH2 5183   4.996   6.226   0.519
 1769TIP3    H1 5184   5.070   6.174   0.485
 1769TIP3    H2 5185   5.044   6.287   0.580
 1770TIP3   OH2 5186   5.789   4.591   0.618
 1770TIP3    H1 5187   5.698   4.588   0.585
 1770TIP3    H2 5188   5.817   4.497   0.605
 1771TIP3   OH2 5189   4.044   6.082   0.547
 1771TIP3    H1 5190   3.957   6.121   0.522
 1771TIP3    H2 5191   4.061   6.127   0.630
 1772TIP3   OH2 5192   4.282   6.064   0.401
 1772TIP3    H1 5193   4.195   6.080   0.445
 1772TIP3    H2 5194   4.266   6.101   0.312
 1773TIP3   OH2 5195   4.715   6.096   0.199
 1773TIP3    H1 5196   4.638   6.115   0.141
 1773TIP3    H2 5197   4.728   6.183   0.243
 1774TIP3   OH2 5198   4.987   6.049   0.242
 1774TIP3    H1 5199   4.890   6.052   0.229
 1774TIP3    H2 5200   5.015   6.118   0.180
 1775TIP3   OH2 5201   3.951   5.878   0.293
 1775TIP3    H1 5202   3.986   5.859   0.383
 1775TIP3    H2 5203   4.025   5.840   0.240
 1776TIP3   OH2 5204   4.149   5.758   0.150
 1776TIP3    H1 5205   4.169   5.670   0.189
 1776TIP3    H2 5206   4.240   5.795   0.141
 1777TIP3   OH2 5207   4.414   5.853   0.147
 1777TIP3    H1 5208   4.447   5.763   0.129
 1777TIP3    H2 5209   4.460   5.870   0.232
 1778TIP3   OH2 5210   4.992   4.501   0.232
 1778TIP3    H1 5211   4.951   4.432   0.287
 1778TIP3    H2 5212   5.069   4.454   0.193
 1779TIP3   OH2 5213   5.514   4.392   0.154
 1779TIP3    H1 5214   5.552   4.432   0.074
 1779TIP3    H2 5215   5.418   4.405   0.140
 1780TIP3   OH2 5216   5.630   4.455  -0.089
 1780TIP3    H1 5217   5.724   4.432  -0.085
 1780TIP3    H2 5218   5.639   4.551  -0.099
 1781TIP3   OH2 5219   4.243   4.216   0.255
 1781TIP3    H1 5220   4.151   4.181   0.255
 1781TIP3    H2 5221   4.293   4.132   0.252
 1782TIP3   OH2 5222   4.015   4.083  -0.103
 1782TIP3    H1 5223   4.057   4.140  -0.170
 1782TIP3    H2 5224   3.996   4.147  -0.032
 1783TIP3   OH2 5225   4.676   4.251   0.140
 1783TIP3    H1 5226   4.740   4.292   0.081
 1783TIP3    H2 5227   4.706   4.283   0.227
 1784TIP3   OH2 5228   5.230   4.391   0.116
 1784TIP3    H1 5229   5.242   4.353   0.028
 1784TIP3    H2 5230   5.217   4.310   0.171
 1785TIP3   OH2 5231   4.138   4.259  -0.310
 1785TIP3    H1 5232   4.174   4.181  -0.353
 1785TIP3    H2 5233   4.219   4.310  -0.288
 1786TIP3   OH2 5234   4.631   4.406  -0.175
 1786TIP3    H1 5235   4.709   4.365  -0.135
 1786TIP3    H2 5236   4.662   4.498  -0.181
 1787TIP3   OH2 5237   4.450   4.496   1.145
 1787TIP3    H1 5238   4.418   4.424   1.203
 1787TIP3    H2 5239   4.545   4.497   1.170
 1788TIP3   OH2 5240   4.698   4.493   1.264
 1788TIP3    H1 5241   4.784   4.468   1.224
 1788TIP3    H2 5242   4.688   4.422   1.330
 1789TIP3   OH2 5243   5.523   4.552   1.052
 1789TIP3    H1 5244   5.544   4.521   1.143
 1789TIP3    H2 5245   5.611   4.548   1.010
 1790TIP3   OH2 5246   5.465   6.106   0.544
 1790TIP3    H1 5247   5.380   6.081   0.504
 1790TIP3    H2 5248   5.452   6.203   0.552
 1791TIP3   OH2 5249   6.251   4.840   0.168
 1791TIP3    H1 5250   6.278   4.922   0.123
 1791TIP3    H2 5251   6.202   4.872   0.247
 1792TIP3   OH2 5252   6.176   5.483   0.322
 1792TIP3    H1 5253   6.188   5.577   0.346
 1792TIP3    H2 5254   6.079   5.481   0.310
 1793TIP3   OH2 5255   5.747   5.622   0.248
 1793TIP3    H1 5256   5.768   5.631   0.154
 1793TIP3    H2 5257   5.807   5.550   0.278
 1794TIP3   OH2 5258   6.003   5.744   0.258
 1794TIP3    H1 5259   6.073   5.754   0.326
 1794TIP3    H2 5260   5.925   5.722   0.311
 1795TIP3   OH2 5261   6.917   4.774   0.227
 1795TIP3    H1 5262   6.990   4.747   0.285
 1795TIP3    H2 5263   6.838   4.753   0.279
 1796TIP3   OH2 5264   6.887   5.422   0.402
 1796TIP3    H1 5265   6.866   5.332   0.436
 1796TIP3    H2 5266   6.980   5.413   0.376
 1797TIP3   OH2 5267   6.100   5.185   0.258
 1797TIP3    H1 5268   6.162   5.256   0.278
 1797TIP3    H2 5269   6.133   5.111   0.311
 1798TIP3   OH2 5270   6.163   5.733   0.477
 1798TIP3    H1 5271   6.240   5.773   0.522
 1798TIP3    H2 5272   6.095   5.745   0.546
 1799TIP3   OH2 5273   5.897   5.441   0.385
 1799TIP3    H1 5274   5.938   5.424   0.472
 1799TIP3    H2 5275   5.840   5.362   0.375
 1800TIP3   OH2 5276   6.623   5.498   0.441
 1800TIP3    H1 5277   6.568   5.496   0.360
 1800TIP3    H2 5278   6.711   5.470   0.407
 1801TIP3   OH2 5279   6.123   4.927   0.395
 1801TIP3    H1 5280   6.028   4.942   0.406
 1801TIP3    H2 5281   6.142   4.865   0.467
 1802TIP3   OH2 5282   6.087   4.543  -0.014
 1802TIP3    H1 5283   6.082   4.491  -0.097
 1802TIP3    H2 5284   6.098   4.472   0.053
 1803TIP3   OH2 5285   5.816   6.299   0.439
 1803TIP3    H1 5286   5.903   6.313   0.483
 1803TIP3    H2 5287   5.801   6.205   0.455
 1804TIP3   OH2 5288   6.334   6.289   0.476
 1804TIP3    H1 5289   6.401   6.223   0.504
 1804TIP3    H2 5290   6.315   6.255   0.387
 1805TIP3   OH2 5291   5.948   5.727   0.650
 1805TIP3    H1 5292   5.968   5.631   0.644
 1805TIP3    H2 5293   5.862   5.731   0.603
 1806TIP3   OH2 5294   6.543   5.762   0.465
 1806TIP3    H1 5295   6.524   5.790   0.374
 1806TIP3    H2 5296   6.568   5.668   0.454
 1807TIP3   OH2 5297   6.064   5.456   0.625
 1807TIP3    H1 5298   6.146   5.417   0.591
 1807TIP3    H2 5299   6.093   5.491   0.711
 1808TIP3   OH2 5300   6.391   5.325   0.278
 1808TIP3    H1 5301   6.321   5.387   0.309
 1808TIP3    H2 5302   6.429   5.381   0.208
 1809TIP3   OH2 5303   7.025   5.728   0.446
 1809TIP3    H1 5304   6.966   5.790   0.398
 1809TIP3    H2 5305   6.958   5.671   0.488
 1810TIP3   OH2 5306   6.533   5.146   0.423
 1810TIP3    H1 5307   6.522   5.059   0.379
 1810TIP3    H2 5308   6.484   5.206   0.363
 1811TIP3   OH2 5309   6.515   4.913   0.271
 1811TIP3    H1 5310   6.540   4.958   0.188
 1811TIP3    H2 5311   6.423   4.891   0.251
 1812TIP3   OH2 5312   7.178   5.428   0.500
 1812TIP3    H1 5313   7.187   5.336   0.471
 1812TIP3    H2 5314   7.183   5.479   0.417
 1813TIP3   OH2 5315   6.407   5.252   0.648
 1813TIP3    H1 5316   6.337   5.185   0.655
 1813TIP3    H2 5317   6.444   5.233   0.560
 1814TIP3   OH2 5318   6.654   4.681   0.295
 1814TIP3    H1 5319   6.610   4.769   0.298
 1814TIP3    H2 5320   6.576   4.622   0.288
 1815TIP3   OH2 5321   6.796   5.179   0.498
 1815TIP3    H1 5322   6.782   5.176   0.594
 1815TIP3    H2 5323   6.704   5.166   0.468
 1816TIP3   OH2 5324   7.036   5.150   0.358
 1816TIP3    H1 5325   6.954   5.142   0.409
 1816TIP3    H2 5326   7.099   5.098   0.409
 1817TIP3   OH2 5327   7.294   5.090   0.515
 1817TIP3    H1 5328   7.279   4.994   0.524
 1817TIP3    H2 5329   7.267   5.124   0.603
 1818TIP3   OH2 5330   6.245   5.031   0.693
 1818TIP3    H1 5331   6.255   4.941   0.655
 1818TIP3    H2 5332   6.280   5.018   0.783
 1819TIP3   OH2 5333   6.764   4.696   0.545
 1819TIP3    H1 5334   6.829   4.624   0.542
 1819TIP3    H2 5335   6.718   4.683   0.460
 1820TIP3   OH2 5336   6.826   4.912   0.702
 1820TIP3    H1 5337   6.802   4.842   0.638
 1820TIP3    H2 5338   6.749   4.973   0.696
 1821TIP3   OH2 5339   5.976   5.078   0.659
 1821TIP3    H1 5340   6.074   5.076   0.662
 1821TIP3    H2 5341   5.955   4.995   0.707
 1822TIP3   OH2 5342   5.939   4.804   0.056
 1822TIP3    H1 5343   6.008   4.742   0.086
 1822TIP3    H2 5344   5.991   4.880   0.023
 1823TIP3   OH2 5345   5.754   5.052   0.058
 1823TIP3    H1 5346   5.827   4.990   0.044
 1823TIP3    H2 5347   5.803   5.134   0.076
 1824TIP3   OH2 5348   5.950   4.629   0.385
 1824TIP3    H1 5349   5.901   4.623   0.469
 1824TIP3    H2 5350   5.880   4.666   0.327
 1825TIP3   OH2 5351   5.981   6.039   0.463
 1825TIP3    H1 5352   5.887   6.017   0.455
 1825TIP3    H2 5353   5.996   6.036   0.558
 1826TIP3   OH2 5354   6.246   4.749   0.630
 1826TIP3    H1 5355   6.213   4.680   0.691
 1826TIP3    H2 5356   6.341   4.752   0.658
 1827TIP3   OH2 5357   6.494   4.748   0.750
 1827TIP3    H1 5358   6.582   4.724   0.716
 1827TIP3    H2 5359   6.481   4.679   0.818
 1828TIP3   OH2 5360   7.306   4.804   0.548
 1828TIP3    H1 5361   7.335   4.777   0.639
 1828TIP3    H2 5362   7.391   4.811   0.501
 1829TIP3   OH2 5363  -0.223   5.877   2.233
 1829TIP3    H1 5364  -0.248   5.783   2.225
 1829TIP3    H2 5365  -0.287   5.913   2.297
 1830TIP3   OH2 5366   0.251   5.719   2.115
 1830TIP3    H1 5367   0.317   5.655   2.080
 1830TIP3    H2 5368   0.257   5.791   2.050
 1831TIP3   OH2 5369   0.120   5.881   1.925
 1831TIP3    H1 5370   0.027   5.898   1.948
 1831TIP3    H2 5371   0.113   5.789   1.891
 1832TIP3   OH2 5372   0.049   5.635   1.829
 1832TIP3    H1 5373  -0.003   5.639   1.745
 1832TIP3    H2 5374   0.087   5.544   1.817
 1833TIP3   OH2 5375  -0.239   5.599   2.232
 1833TIP3    H1 5376  -0.217   5.564   2.322
 1833TIP3    H2 5377  -0.151   5.595   2.189
 1834TIP3   OH2 5378   1.797   6.066   0.915
 1834TIP3    H1 5379   1.822   6.148   0.962
 1834TIP3    H2 5380   1.790   6.099   0.824
 1835TIP3   OH2 5381   1.134   6.238   0.969
 1835TIP3    H1 5382   1.187   6.158   0.991
 1835TIP3    H2 5383   1.178   6.264   0.886
 1836TIP3   OH2 5384   1.862   6.274   1.084
 1836TIP3    H1 5385   1.779   6.323   1.063
 1836TIP3    H2 5386   1.873   6.297   1.177
 1837TIP3   OH2 5387   0.530   5.887   1.368
 1837TIP3    H1 5388   0.470   5.860   1.296
 1837TIP3    H2 5389   0.468   5.896   1.443
 1838TIP3   OH2 5390   1.428   6.006   0.708
 1838TIP3    H1 5391   1.423   5.943   0.780
 1838TIP3    H2 5392   1.489   6.074   0.741
 1839TIP3   OH2 5393   1.579   5.977   1.082
 1839TIP3    H1 5394   1.490   5.997   1.049
 1839TIP3    H2 5395   1.636   6.000   1.005
 1840TIP3   OH2 5396   0.906   5.654   1.080
 1840TIP3    H1 5397   0.895   5.557   1.090
 1840TIP3    H2 5398   0.815   5.679   1.106
 1841TIP3   OH2 5399   1.513   6.986   1.068
 1841TIP3    H1 5400   1.515   6.918   0.998
 1841TIP3    H2 5401   1.476   7.063   1.019
 1842TIP3   OH2 5402   1.712   6.613   0.903
 1842TIP3    H1 5403   1.635   6.672   0.910
 1842TIP3    H2 5404   1.743   6.639   0.814
 1843TIP3   OH2 5405   1.401   6.499   1.199
 1843TIP3    H1 5406   1.393   6.582   1.250
 1843TIP3    H2 5407   1.309   6.492   1.164
 1844TIP3   OH2 5408   1.767   7.321   1.122
 1844TIP3    H1 5409   1.755   7.224   1.124
 1844TIP3    H2 5410   1.678   7.351   1.149
 1845TIP3   OH2 5411   1.643   6.456   1.381
 1845TIP3    H1 5412   1.566   6.469   1.323
 1845TIP3    H2 5413   1.660   6.361   1.369
 1846TIP3   OH2 5414   0.645   5.709   1.163
 1846TIP3    H1 5415   0.578   5.641   1.179
 1846TIP3    H2 5416   0.610   5.785   1.210
 1847TIP3   OH2 5417   1.169   5.816   1.398
 1847TIP3    H1 5418   1.240   5.773   1.449
 1847TIP3    H2 5419   1.088   5.776   1.435
 1848TIP3   OH2 5420   1.418   6.233   1.303
 1848TIP3    H1 5421   1.368   6.231   1.387
 1848TIP3    H2 5422   1.391   6.319   1.265
 1849TIP3   OH2 5423   1.126   6.463   1.540
 1849TIP3    H1 5424   1.102   6.392   1.603
 1849TIP3    H2 5425   1.221   6.471   1.557
 1850TIP3   OH2 5426   1.141   6.457   1.129
 1850TIP3    H1 5427   1.137   6.385   1.063
 1850TIP3    H2 5428   1.087   6.416   1.200
 1851TIP3   OH2 5429   1.269   5.989   0.993
 1851TIP3    H1 5430   1.230   5.993   1.082
 1851TIP3    H2 5431   1.209   5.922   0.953
 1852TIP3   OH2 5432   0.880   6.048   1.213
 1852TIP3    H1 5433   0.813   6.115   1.192
 1852TIP3    H2 5434   0.963   6.096   1.195
 1853TIP3   OH2 5435   1.487   6.775   0.887
 1853TIP3    H1 5436   1.504   6.808   0.797
 1853TIP3    H2 5437   1.417   6.710   0.871
 1854TIP3   OH2 5438   0.879   6.573   1.575
 1854TIP3    H1 5439   0.832   6.523   1.508
 1854TIP3    H2 5440   0.972   6.549   1.555
 1855TIP3   OH2 5441   1.767   7.024   1.150
 1855TIP3    H1 5442   1.669   7.027   1.141
 1855TIP3    H2 5443   1.792   6.999   1.059
 1856TIP3   OH2 5444   0.414   5.947   1.602
 1856TIP3    H1 5445   0.317   5.939   1.595
 1856TIP3    H2 5446   0.428   5.873   1.665
 1857TIP3   OH2 5447   1.189   6.055   1.259
 1857TIP3    H1 5448   1.282   6.073   1.281
 1857TIP3    H2 5449   1.174   5.968   1.303
 1858TIP3   OH2 5450   1.042   6.297   1.328
 1858TIP3    H1 5451   1.080   6.344   1.404
 1858TIP3    H2 5452   1.097   6.217   1.321
 1859TIP3   OH2 5453   1.684   6.190   1.299
 1859TIP3    H1 5454   1.586   6.189   1.307
 1859TIP3    H2 5455   1.692   6.144   1.214
 1860TIP3   OH2 5456   1.315   6.314   0.768
 1860TIP3    H1 5457   1.323   6.345   0.675
 1860TIP3    H2 5458   1.411   6.295   0.785
 1861TIP3   OH2 5459   1.197   7.260   1.412
 1861TIP3    H1 5460   1.182   7.183   1.470
 1861TIP3    H2 5461   1.281   7.298   1.446
 1862TIP3   OH2 5462   0.816   6.850   1.580
 1862TIP3    H1 5463   0.784   6.865   1.490
 1862TIP3    H2 5464   0.859   6.762   1.574
 1863TIP3   OH2 5465   1.306   6.871   1.203
 1863TIP3    H1 5466   1.385   6.918   1.170
 1863TIP3    H2 5467   1.253   6.942   1.242
 1864TIP3   OH2 5468   0.394   6.580   1.825
 1864TIP3    H1 5469   0.358   6.500   1.783
 1864TIP3    H2 5470   0.378   6.567   1.920
 1865TIP3   OH2 5471   1.169   6.787   1.606
 1865TIP3    H1 5472   1.247   6.776   1.551
 1865TIP3    H2 5473   1.178   6.715   1.671
 1866TIP3   OH2 5474   0.758   5.993   1.452
 1866TIP3    H1 5475   0.821   6.016   1.379
 1866TIP3    H2 5476   0.691   5.947   1.395
 1867TIP3   OH2 5477   1.397   6.474   1.655
 1867TIP3    H1 5478   1.437   6.386   1.654
 1867TIP3    H2 5479   1.465   6.528   1.613
 1868TIP3   OH2 5480   1.434   6.720   1.389
 1868TIP3    H1 5481   1.378   6.771   1.327
 1868TIP3    H2 5482   1.523   6.738   1.349
 1869TIP3   OH2 5483   0.911   5.726   1.464
 1869TIP3    H1 5484   0.860   5.786   1.409
 1869TIP3    H2 5485   0.892   5.640   1.419
 1870TIP3   OH2 5486   1.038   6.255   1.693
 1870TIP3    H1 5487   1.072   6.232   1.781
 1870TIP3    H2 5488   0.994   6.173   1.665
 1871TIP3   OH2 5489   1.290   6.199   1.537
 1871TIP3    H1 5490   1.215   6.170   1.591
 1871TIP3    H2 5491   1.366   6.161   1.587
 1872TIP3   OH2 5492   1.508   6.124   1.687
 1872TIP3    H1 5493   1.522   6.028   1.704
 1872TIP3    H2 5494   1.506   6.162   1.778
 1873TIP3   OH2 5495   0.562   6.058   1.827
 1873TIP3    H1 5496   0.509   5.976   1.832
 1873TIP3    H2 5497   0.576   6.074   1.922
 1874TIP3   OH2 5498   1.007   5.745   1.722
 1874TIP3    H1 5499   1.075   5.675   1.719
 1874TIP3    H2 5500   0.966   5.731   1.634
 1875TIP3   OH2 5501   1.059   5.973   1.859
 1875TIP3    H1 5502   1.060   5.890   1.806
 1875TIP3    H2 5503   0.968   5.974   1.890
 1876TIP3   OH2 5504   1.629   7.125   1.448
 1876TIP3    H1 5505   1.555   7.135   1.512
 1876TIP3    H2 5506   1.669   7.214   1.450
 1877TIP3   OH2 5507   1.672   6.787   1.276
 1877TIP3    H1 5508   1.746   6.723   1.268
 1877TIP3    H2 5509   1.703   6.860   1.218
 1878TIP3   OH2 5510   1.859   6.596   1.301
 1878TIP3    H1 5511   1.785   6.543   1.338
 1878TIP3    H2 5512   1.932   6.533   1.312
 1879TIP3   OH2 5513   1.572   6.238   0.815
 1879TIP3    H1 5514   1.653   6.276   0.773
 1879TIP3    H2 5515   1.579   6.281   0.903
 1880TIP3   OH2 5516   1.613   6.396   1.041
 1880TIP3    H1 5517   1.536   6.431   1.090
 1880TIP3    H2 5518   1.645   6.476   0.994
 1881TIP3   OH2 5519   0.259   6.100   1.806
 1881TIP3    H1 5520   0.343   6.127   1.843
 1881TIP3    H2 5521   0.211   6.061   1.881
 1882TIP3   OH2 5522   2.065   5.989   1.599
 1882TIP3    H1 5523   2.121   5.921   1.556
 1882TIP3    H2 5524   2.037   6.044   1.523
 1883TIP3   OH2 5525   1.508   5.811   0.345
 1883TIP3    H1 5526   1.543   5.811   0.436
 1883TIP3    H2 5527   1.432   5.752   0.354
 1884TIP3   OH2 5528   1.936   6.130   1.405
 1884TIP3    H1 5529   1.848   6.167   1.423
 1884TIP3    H2 5530   1.912   6.056   1.346
 1885TIP3   OH2 5531   0.225   5.733   1.575
 1885TIP3    H1 5532   0.198   5.658   1.631
 1885TIP3    H2 5533   0.172   5.715   1.496
 1886TIP3   OH2 5534   1.835   5.891   1.281
 1886TIP3    H1 5535   1.743   5.884   1.250
 1886TIP3    H2 5536   1.864   5.798   1.270
 1887TIP3   OH2 5537   1.071   5.816   0.918
 1887TIP3    H1 5538   1.002   5.772   0.972
 1887TIP3    H2 5539   1.089   5.745   0.855
 1888TIP3   OH2 5540   1.571   5.701   0.816
 1888TIP3    H1 5541   1.601   5.748   0.735
 1888TIP3    H2 5542   1.474   5.700   0.803
 1889TIP3   OH2 5543   1.658   5.797   0.575
 1889TIP3    H1 5544   1.729   5.743   0.534
 1889TIP3    H2 5545   1.691   5.888   0.558
 1890TIP3   OH2 5546   1.302   5.687   0.771
 1890TIP3    H1 5547   1.286   5.638   0.689
 1890TIP3    H2 5548   1.272   5.620   0.837
 1891TIP3   OH2 5549   0.495   5.787   1.818
 1891TIP3    H1 5550   0.461   5.713   1.873
 1891TIP3    H2 5551   0.589   5.786   1.845
 1892TIP3   OH2 5552   0.753   5.793   1.919
 1892TIP3    H1 5553   0.832   5.748   1.881
 1892TIP3    H2 5554   0.735   5.731   1.994
 1893TIP3   OH2 5555   1.569   5.856   1.717
 1893TIP3    H1 5556   1.588   5.821   1.807
 1893TIP3    H2 5557   1.656   5.848   1.674
 1894TIP3   OH2 5558   1.511   7.407   1.208
 1894TIP3    H1 5559   1.439   7.359   1.165
 1894TIP3    H2 5560   1.484   7.499   1.197
 1895TIP3   OH2 5561   2.759   6.781   0.015
 1895TIP3    H1 5562   2.735   6.875  -0.001
 1895TIP3    H2 5563   2.692   6.737  -0.039
 1896TIP3   OH2 5564   2.773   6.783   0.354
 1896TIP3    H1 5565   2.800   6.744   0.438
 1896TIP3    H2 5566   2.733   6.709   0.306
 1897TIP3   OH2 5567   2.093   6.666   0.716
 1897TIP3    H1 5568   2.122   6.605   0.787
 1897TIP3    H2 5569   2.161   6.734   0.720
 1898TIP3   OH2 5570   3.032   7.055   0.037
 1898TIP3    H1 5571   3.007   7.004   0.115
 1898TIP3    H2 5572   3.045   7.144   0.074
 1899TIP3   OH2 5573   2.045   7.060   0.484
 1899TIP3    H1 5574   2.076   6.967   0.496
 1899TIP3    H2 5575   2.127   7.099   0.448
 1900TIP3   OH2 5576   1.840   6.601   0.412
 1900TIP3    H1 5577   1.876   6.516   0.445
 1900TIP3    H2 5578   1.864   6.600   0.319
 1901TIP3   OH2 5579   2.694   7.541   0.046
 1901TIP3    H1 5580   2.725   7.451   0.027
 1901TIP3    H2 5581   2.658   7.530   0.135
 1902TIP3   OH2 5582   2.577   7.003   0.406
 1902TIP3    H1 5583   2.613   6.930   0.353
 1902TIP3    H2 5584   2.662   7.046   0.429
 1903TIP3   OH2 5585   3.582   6.323   0.402
 1903TIP3    H1 5586   3.608   6.405   0.449
 1903TIP3    H2 5587   3.607   6.348   0.311
 1904TIP3   OH2 5588   2.970   6.499   0.446
 1904TIP3    H1 5589   3.022   6.417   0.457
 1904TIP3    H2 5590   2.954   6.497   0.350
 1905TIP3   OH2 5591   2.320   6.166   0.403
 1905TIP3    H1 5592   2.310   6.244   0.344
 1905TIP3    H2 5593   2.248   6.111   0.372
 1906TIP3   OH2 5594   3.015   6.253   0.033
 1906TIP3    H1 5595   3.095   6.237   0.088
 1906TIP3    H2 5596   3.059   6.289  -0.048
 1907TIP3   OH2 5597   1.956   6.365   0.503
 1907TIP3    H1 5598   2.036   6.355   0.558
 1907TIP3    H2 5599   1.979   6.308   0.428
 1908TIP3   OH2 5600   2.407   6.563   0.300
 1908TIP3    H1 5601   2.500   6.535   0.314
 1908TIP3    H2 5602   2.367   6.481   0.264
 1909TIP3   OH2 5603   3.650   6.524   0.581
 1909TIP3    H1 5604   3.574   6.581   0.555
 1909TIP3    H2 5605   3.684   6.572   0.658
 1910TIP3   OH2 5606   2.316   6.146   0.834
 1910TIP3    H1 5607   2.259   6.192   0.770
 1910TIP3    H2 5608   2.268   6.164   0.917
 1911TIP3   OH2 5609   2.662   7.008  -0.097
 1911TIP3    H1 5610   2.686   6.971  -0.184
 1911TIP3    H2 5611   2.608   7.086  -0.119
 1912TIP3   OH2 5612   2.426   6.923   0.636
 1912TIP3    H1 5613   2.361   6.988   0.671
 1912TIP3    H2 5614   2.464   6.973   0.561
 1913TIP3   OH2 5615   3.236   6.250   0.199
 1913TIP3    H1 5616   3.211   6.221   0.288
 1913TIP3    H2 5617   3.282   6.334   0.217
 1914TIP3   OH2 5618   2.189   6.268   0.623
 1914TIP3    H1 5619   2.246   6.344   0.648
 1914TIP3    H2 5620   2.244   6.229   0.551
 1915TIP3   OH2 5621   2.254   7.114   0.732
 1915TIP3    H1 5622   2.227   7.194   0.683
 1915TIP3    H2 5623   2.173   7.102   0.788
 1916TIP3   OH2 5624   3.089   7.323   0.203
 1916TIP3    H1 5625   3.001   7.309   0.244
 1916TIP3    H2 5626   3.078   7.413   0.168
 1917TIP3   OH2 5627   3.375   6.220   0.562
 1917TIP3    H1 5628   3.289   6.257   0.535
 1917TIP3    H2 5629   3.435   6.257   0.494
 1918TIP3   OH2 5630   2.670   5.863   0.539
 1918TIP3    H1 5631   2.664   5.771   0.571
 1918TIP3    H2 5632   2.598   5.905   0.592
 1919TIP3   OH2 5633   3.313   7.236   0.550
 1919TIP3    H1 5634   3.304   7.160   0.489
 1919TIP3    H2 5635   3.296   7.312   0.490
 1920TIP3   OH2 5636   2.613   6.631  -0.187
 1920TIP3    H1 5637   2.521   6.663  -0.191
 1920TIP3    H2 5638   2.635   6.624  -0.281
 1921TIP3   OH2 5639   3.506   6.867   0.391
 1921TIP3    H1 5640   3.426   6.924   0.397
 1921TIP3    H2 5641   3.538   6.893   0.301
 1922TIP3   OH2 5642   2.918   6.643  -0.158
 1922TIP3    H1 5643   2.895   6.704  -0.084
 1922TIP3    H2 5644   3.005   6.675  -0.189
 1923TIP3   OH2 5645   3.187   6.752   0.687
 1923TIP3    H1 5646   3.187   6.838   0.734
 1923TIP3    H2 5647   3.101   6.758   0.640
 1924TIP3   OH2 5648   2.185   6.696   0.213
 1924TIP3    H1 5649   2.166   6.666   0.123
 1924TIP3    H2 5650   2.273   6.657   0.227
 1925TIP3   OH2 5651   2.308   7.081   0.375
 1925TIP3    H1 5652   2.298   7.097   0.280
 1925TIP3    H2 5653   2.405   7.069   0.383
 1926TIP3   OH2 5654   2.340   6.677   0.549
 1926TIP3    H1 5655   2.364   6.665   0.455
 1926TIP3    H2 5656   2.370   6.768   0.567
 1927TIP3   OH2 5657   2.847   7.319   0.321
 1927TIP3    H1 5658   2.834   7.400   0.373
 1927TIP3    H2 5659   2.834   7.247   0.387
 1928TIP3   OH2 5660   2.458   7.238   0.874
 1928TIP3    H1 5661   2.398   7.302   0.918
 1928TIP3    H2 5662   2.392   7.186   0.823
 1929TIP3   OH2 5663   2.212   6.794   0.971
 1929TIP3    H1 5664   2.218   6.882   1.014
 1929TIP3    H2 5665   2.115   6.778   0.980
 1930TIP3   OH2 5666   2.255   7.409   0.958
 1930TIP3    H1 5667   2.219   7.407   0.867
 1930TIP3    H2 5668   2.175   7.386   1.011
 1931TIP3   OH2 5669   1.831   6.930   0.903
 1931TIP3    H1 5670   1.807   6.903   0.813
 1931TIP3    H2 5671   1.872   6.848   0.937
 1932TIP3   OH2 5672   3.551   7.581   0.593
 1932TIP3    H1 5673   3.549   7.484   0.604
 1932TIP3    H2 5674   3.467   7.606   0.639
 1933TIP3   OH2 5675   2.660   7.368   0.731
 1933TIP3    H1 5676   2.660   7.461   0.763
 1933TIP3    H2 5677   2.588   7.329   0.784
 1934TIP3   OH2 5678   3.439   6.710   0.871
 1934TIP3    H1 5679   3.364   6.730   0.814
 1934TIP3    H2 5680   3.452   6.614   0.856
 1935TIP3   OH2 5681   2.039   7.116   0.897
 1935TIP3    H1 5682   2.086   7.102   0.981
 1935TIP3    H2 5683   1.961   7.058   0.906
 1936TIP3   OH2 5684   2.435   5.945   0.673
 1936TIP3    H1 5685   2.345   5.913   0.652
 1936TIP3    H2 5686   2.413   6.027   0.721
 1937TIP3   OH2 5687   2.969   6.059   0.872
 1937TIP3    H1 5688   3.034   6.031   0.940
 1937TIP3    H2 5689   2.883   6.041   0.915
 1938TIP3   OH2 5690   3.209   6.488   0.788
 1938TIP3    H1 5691   3.160   6.489   0.873
 1938TIP3    H2 5692   3.189   6.576   0.751
 1939TIP3   OH2 5693   2.612   5.983  -0.357
 1939TIP3    H1 5694   2.569   6.014  -0.276
 1939TIP3    H2 5695   2.558   5.906  -0.378
 1940TIP3   OH2 5696   2.368   6.457   0.698
 1940TIP3    H1 5697   2.320   6.483   0.779
 1940TIP3    H2 5698   2.358   6.538   0.643
 1941TIP3   OH2 5699   2.254   6.342   0.214
 1941TIP3    H1 5700   2.157   6.336   0.218
 1941TIP3    H2 5701   2.271   6.314   0.122
 1942TIP3   OH2 5702   2.740   6.422  -0.067
 1942TIP3    H1 5703   2.688   6.500  -0.097
 1942TIP3    H2 5704   2.814   6.429  -0.128
 1943TIP3   OH2 5705   2.916   6.710   1.022
 1943TIP3    H1 5706   2.895   6.640   1.087
 1943TIP3    H2 5707   3.009   6.729   1.045
 1944TIP3   OH2 5708   2.900   6.460   0.178
 1944TIP3    H1 5709   2.844   6.496   0.107
 1944TIP3    H2 5710   2.930   6.378   0.132
 1945TIP3   OH2 5711   2.191   6.487   0.910
 1945TIP3    H1 5712   2.212   6.553   0.977
 1945TIP3    H2 5713   2.176   6.407   0.963
 1946TIP3   OH2 5714   2.256   5.997  -0.360
 1946TIP3    H1 5715   2.236   5.926  -0.296
 1946TIP3    H2 5716   2.168   6.009  -0.398
 1947TIP3   OH2 5717   1.772   6.030   0.478
 1947TIP3    H1 5718   1.854   6.044   0.530
 1947TIP3    H2 5719   1.802   5.981   0.399
 1948TIP3   OH2 5720   2.911   6.708   0.603
 1948TIP3    H1 5721   2.941   6.634   0.545
 1948TIP3    H2 5722   2.880   6.657   0.681
 1949TIP3   OH2 5723   2.579   6.157   0.276
 1949TIP3    H1 5724   2.498   6.167   0.330
 1949TIP3    H2 5725   2.648   6.180   0.340
 1950TIP3   OH2 5726   1.998   6.211   0.274
 1950TIP3    H1 5727   1.902   6.217   0.269
 1950TIP3    H2 5728   2.014   6.127   0.228
 1951TIP3   OH2 5729   2.287   6.214  -0.027
 1951TIP3    H1 5730   2.385   6.225  -0.033
 1951TIP3    H2 5731   2.257   6.263  -0.106
 1952TIP3   OH2 5732   3.073   6.238   0.470
 1952TIP3    H1 5733   3.039   6.254   0.561
 1952TIP3    H2 5734   3.002   6.182   0.435
 1953TIP3   OH2 5735   3.239   7.933   0.692
 1953TIP3    H1 5736   3.236   7.957   0.597
 1953TIP3    H2 5737   3.319   7.980   0.721
 1954TIP3   OH2 5738   2.198   7.038   1.117
 1954TIP3    H1 5739   2.278   7.073   1.161
 1954TIP3    H2 5740   2.133   7.046   1.190
 1955TIP3   OH2 5741   2.664   6.481   0.365
 1955TIP3    H1 5742   2.745   6.460   0.315
 1955TIP3    H2 5743   2.687   6.454   0.455
 1956TIP3   OH2 5744   2.639   6.386   0.668
 1956TIP3    H1 5745   2.551   6.428   0.673
 1956TIP3    H2 5746   2.697   6.451   0.712
 1957TIP3   OH2 5747   3.276   7.016   0.388
 1957TIP3    H1 5748   3.303   7.063   0.306
 1957TIP3    H2 5749   3.188   6.980   0.363
 1958TIP3   OH2 5750   2.774   7.099   0.752
 1958TIP3    H1 5751   2.796   7.083   0.845
 1958TIP3    H2 5752   2.738   7.190   0.754
 1959TIP3   OH2 5753   2.093   6.793   0.452
 1959TIP3    H1 5754   2.122   6.764   0.362
 1959TIP3    H2 5755   2.127   6.721   0.507
 1960TIP3   OH2 5756   1.948   6.726   1.044
 1960TIP3    H1 5757   1.969   6.711   1.138
 1960TIP3    H2 5758   1.880   6.658   1.027
 1961TIP3   OH2 5759   2.672   6.836   1.065
 1961TIP3    H1 5760   2.614   6.783   1.009
 1961TIP3    H2 5761   2.760   6.808   1.034
 1962TIP3   OH2 5762   2.937   7.356   0.649
 1962TIP3    H1 5763   2.841   7.359   0.659
 1962TIP3    H2 5764   2.965   7.411   0.725
 1963TIP3   OH2 5765   3.563   7.287   0.639
 1963TIP3    H1 5766   3.466   7.285   0.629
 1963TIP3    H2 5767   3.589   7.258   0.548
 1964TIP3   OH2 5768   3.034   6.892   0.314
 1964TIP3    H1 5769   2.941   6.865   0.321
 1964TIP3    H2 5770   3.072   6.809   0.275
 1965TIP3   OH2 5771   2.318   6.870   0.032
 1965TIP3    H1 5772   2.303   6.965   0.017
 1965TIP3    H2 5773   2.267   6.850   0.112
 1966TIP3   OH2 5774   2.450   7.454   0.557
 1966TIP3    H1 5775   2.485   7.518   0.492
 1966TIP3    H2 5776   2.532   7.423   0.598
 1967TIP3   OH2 5777   2.831   7.089   0.482
 1967TIP3    H1 5778   2.823   7.085   0.580
 1967TIP3    H2 5779   2.911   7.036   0.466
 1968TIP3   OH2 5780   3.076   7.622   0.534
 1968TIP3    H1 5781   2.997   7.566   0.522
 1968TIP3    H2 5782   3.062   7.690   0.465
 1969TIP3   OH2 5783   2.162   6.230   1.053
 1969TIP3    H1 5784   2.066   6.236   1.066
 1969TIP3    H2 5785   2.188   6.168   1.124
 1970TIP3   OH2 5786   1.856   7.305   0.695
 1970TIP3    H1 5787   1.922   7.234   0.702
 1970TIP3    H2 5788   1.897   7.374   0.748
 1971TIP3   OH2 5789   2.998   6.294   0.728
 1971TIP3    H1 5790   3.074   6.336   0.769
 1971TIP3    H2 5791   2.982   6.216   0.785
 1972TIP3   OH2 5792   2.850   6.071  -0.109
 1972TIP3    H1 5793   2.851   6.093  -0.203
 1972TIP3    H2 5794   2.912   6.138  -0.073
 1973TIP3   OH2 5795   2.561   6.223  -0.000
 1973TIP3    H1 5796   2.629   6.289  -0.029
 1973TIP3    H2 5797   2.576   6.222   0.096
 1974TIP3   OH2 5798   2.832   6.545   0.809
 1974TIP3    H1 5799   2.851   6.603   0.885
 1974TIP3    H2 5800   2.893   6.470   0.824
 1975TIP3   OH2 5801   2.717   5.958   0.101
 1975TIP3    H1 5802   2.701   6.036   0.157
 1975TIP3    H2 5803   2.770   5.999   0.028
 1976TIP3   OH2 5804   2.232   5.941  -0.044
 1976TIP3    H1 5805   2.228   6.039  -0.052
 1976TIP3    H2 5806   2.324   5.928  -0.073
 1977TIP3   OH2 5807   3.476   6.438   0.794
 1977TIP3    H1 5808   3.377   6.438   0.789
 1977TIP3    H2 5809   3.499   6.431   0.701
 1978TIP3   OH2 5810   3.110   6.647   0.215
 1978TIP3    H1 5811   3.045   6.576   0.202
 1978TIP3    H2 5812   3.192   6.597   0.233
 1979TIP3   OH2 5813   3.103   7.600   0.153
 1979TIP3    H1 5814   3.062   7.582   0.065
 1979TIP3    H2 5815   3.194   7.628   0.126
 1980TIP3   OH2 5816   2.176   5.848   0.644
 1980TIP3    H1 5817   2.105   5.809   0.591
 1980TIP3    H2 5818   2.179   5.782   0.718
 1981TIP3   OH2 5819   1.860   7.607   1.118
 1981TIP3    H1 5820   1.949   7.604   1.159
 1981TIP3    H2 5821   1.840   7.513   1.104
 1982TIP3   OH2 5822   2.351   7.590   1.152
 1982TIP3    H1 5823   2.446   7.572   1.156
 1982TIP3    H2 5824   2.325   7.534   1.076
 1983TIP3   OH2 5825   2.987   7.496   0.882
 1983TIP3    H1 5826   2.980   7.425   0.950
 1983TIP3    H2 5827   3.066   7.546   0.912
 1984TIP3   OH2 5828   1.996   7.029   1.307
 1984TIP3    H1 5829   2.015   6.933   1.305
 1984TIP3    H2 5830   1.909   7.033   1.262
 1985TIP3   OH2 5831   2.606   7.113   1.079
 1985TIP3    H1 5832   2.564   7.131   0.992
 1985TIP3    H2 5833   2.636   7.021   1.070
 1986TIP3   OH2 5834   3.098   7.120   0.686
 1986TIP3    H1 5835   3.172   7.165   0.640
 1986TIP3    H2 5836   3.028   7.186   0.673
 1987TIP3   OH2 5837   2.114   6.759   1.288
 1987TIP3    H1 5838   2.192   6.708   1.266
 1987TIP3    H2 5839   2.139   6.796   1.375
 1988TIP3   OH2 5840   2.452   6.648   0.948
 1988TIP3    H1 5841   2.375   6.709   0.952
 1988TIP3    H2 5842   2.499   6.682   0.868
 1989TIP3   OH2 5843   2.965   7.049   1.083
 1989TIP3    H1 5844   3.047   7.036   1.035
 1989TIP3    H2 5845   2.970   6.983   1.154
 1990TIP3   OH2 5846   2.577   6.437   1.075
 1990TIP3    H1 5847   2.574   6.357   1.020
 1990TIP3    H2 5848   2.533   6.503   1.018
 1991TIP3   OH2 5849   2.576   6.219   0.882
 1991TIP3    H1 5850   2.603   6.266   0.801
 1991TIP3    H2 5851   2.482   6.199   0.863
 1992TIP3   OH2 5852   2.609   6.761   0.755
 1992TIP3    H1 5853   2.689   6.772   0.701
 1992TIP3    H2 5854   2.550   6.827   0.713
 1993TIP3   OH2 5855   3.192   6.728   1.139
 1993TIP3    H1 5856   3.250   6.651   1.135
 1993TIP3    H2 5857   3.251   6.798   1.105
 1994TIP3   OH2 5858   3.229   6.977   0.872
 1994TIP3    H1 5859   3.171   7.030   0.813
 1994TIP3    H2 5860   3.317   6.999   0.832
 1995TIP3   OH2 5861   2.453   6.551   1.305
 1995TIP3    H1 5862   2.383   6.483   1.317
 1995TIP3    H2 5863   2.487   6.528   1.217
 1996TIP3   OH2 5864   2.711   5.987   0.946
 1996TIP3    H1 5865   2.661   6.070   0.925
 1996TIP3    H2 5866   2.640   5.920   0.937
 1997TIP3   OH2 5867   2.838   6.491   1.165
 1997TIP3    H1 5868   2.821   6.483   1.260
 1997TIP3    H2 5869   2.748   6.469   1.132
 1998TIP3   OH2 5870   3.073   6.438   1.019
 1998TIP3    H1 5871   2.991   6.448   1.073
 1998TIP3    H2 5872   3.136   6.406   1.084
 1999TIP3   OH2 5873   3.351   6.374   1.193
 1999TIP3    H1 5874   3.310   6.286   1.192
 1999TIP3    H2 5875   3.302   6.426   1.260
 2000TIP3   OH2 5876   2.292   6.332   1.356
 2000TIP3    H1 5877   2.299   6.241   1.320
 2000TIP3    H2 5878   2.327   6.318   1.446
 2001TIP3   OH2 5879   2.809   5.999   1.202
 2001TIP3    H1 5880   2.872   5.925   1.198
 2001TIP3    H2 5881   2.765   5.992   1.115
 2002TIP3   OH2 5882   2.872   6.213   1.362
 2002TIP3    H1 5883   2.847   6.142   1.299
 2002TIP3    H2 5884   2.793   6.272   1.358
 2003TIP3   OH2 5885   3.350   7.694   0.091
 2003TIP3    H1 5886   3.391   7.720   0.175
 2003TIP3    H2 5887   3.421   7.708   0.028
 2004TIP3   OH2 5888   3.376   7.710   0.371
 2004TIP3    H1 5889   3.337   7.620   0.363
 2004TIP3    H2 5890   3.457   7.689   0.419
 2005TIP3   OH2 5891   3.425   7.383   0.937
 2005TIP3    H1 5892   3.350   7.393   0.999
 2005TIP3    H2 5893   3.465   7.472   0.939
 2006TIP3   OH2 5894   3.417   7.143   0.195
 2006TIP3    H1 5895   3.469   7.086   0.135
 2006TIP3    H2 5896   3.430   7.231   0.153
 2007TIP3   OH2 5897   3.255   7.453   0.392
 2007TIP3    H1 5898   3.185   7.502   0.440
 2007TIP3    H2 5899   3.205   7.408   0.321
 2008TIP3   OH2 5900   3.227   6.594  -0.028
 2008TIP3    H1 5901   3.182   6.515  -0.060
 2008TIP3    H2 5902   3.162   6.634   0.033
 2009TIP3   OH2 5903   1.831   6.725   0.677
 2009TIP3    H1 5904   1.805   6.690   0.590
 2009TIP3    H2 5905   1.928   6.710   0.674
 2010TIP3   OH2 5906   3.469   7.044   0.763
 2010TIP3    H1 5907   3.544   6.981   0.754
 2010TIP3    H2 5908   3.496   7.116   0.703
 2011TIP3   OH2 5909   3.653   6.851   0.786
 2011TIP3    H1 5910   3.581   6.798   0.827
 2011TIP3    H2 5911   3.729   6.789   0.797
 2012TIP3   OH2 5912   3.174   6.336  -0.169
 2012TIP3    H1 5913   3.218   6.248  -0.175
 2012TIP3    H2 5914   3.238   6.391  -0.219
 2013TIP3   OH2 5915   3.340   6.507   0.297
 2013TIP3    H1 5916   3.423   6.536   0.253
 2013TIP3    H2 5917   3.353   6.550   0.384
 2014TIP3   OH2 5918   3.406   6.654   0.532
 2014TIP3    H1 5919   3.327   6.692   0.576
 2014TIP3    H2 5920   3.439   6.733   0.483
 2015TIP3   OH2 5921   2.024   6.383   1.330
 2015TIP3    H1 5922   2.122   6.375   1.329
 2015TIP3    H2 5923   2.001   6.297   1.370
 2016TIP3   OH2 5924   3.849   6.230   1.092
 2016TIP3    H1 5925   3.915   6.173   1.046
 2016TIP3    H2 5926   3.829   6.296   1.022
 2017TIP3   OH2 5927   3.288   6.087  -0.158
 2017TIP3    H1 5928   3.336   6.075  -0.074
 2017TIP3    H2 5929   3.226   6.012  -0.153
 2018TIP3   OH2 5930   1.994   6.064   0.636
 2018TIP3    H1 5931   2.057   5.999   0.673
 2018TIP3    H2 5932   2.042   6.147   0.650
 2019TIP3   OH2 5933   1.808   6.348   0.737
 2019TIP3    H1 5934   1.847   6.350   0.648
 2019TIP3    H2 5935   1.812   6.442   0.761
 2020TIP3   OH2 5936   3.732   6.385   0.901
 2020TIP3    H1 5937   3.644   6.426   0.912
 2020TIP3    H2 5938   3.710   6.317   0.835
 2021TIP3   OH2 5939   1.764   5.896   0.233
 2021TIP3    H1 5940   1.678   5.859   0.262
 2021TIP3    H2 5941   1.758   5.884   0.138
 2022TIP3   OH2 5942   1.995   5.929   1.048
 2022TIP3    H1 5943   1.944   5.920   1.131
 2022TIP3    H2 5944   1.928   5.969   0.989
 2023TIP3   OH2 5945   2.039   7.349   1.127
 2023TIP3    H1 5946   1.945   7.328   1.109
 2023TIP3    H2 5947   2.042   7.345   1.223
 2024TIP3   OH2 5948   2.206   7.388   0.678
 2024TIP3    H1 5949   2.156   7.454   0.627
 2024TIP3    H2 5950   2.297   7.407   0.645
 2025TIP3   OH2 5951   2.658   7.634   0.811
 2025TIP3    H1 5952   2.699   7.636   0.900
 2025TIP3    H2 5953   2.725   7.683   0.758
 2026TIP3   OH2 5954   2.839   7.781   0.671
 2026TIP3    H1 5955   2.911   7.734   0.627
 2026TIP3    H2 5956   2.889   7.841   0.730
 2027TIP3   OH2 5957   3.631   6.147   0.774
 2027TIP3    H1 5958   3.542   6.152   0.735
 2027TIP3    H2 5959   3.658   6.055   0.753
 2028TIP3   OH2 5960   2.559   7.653   0.359
 2028TIP3    H1 5961   2.486   7.663   0.296
 2028TIP3    H2 5962   2.568   7.745   0.390
 2029TIP3   OH2 5963   2.822   7.591   0.402
 2029TIP3    H1 5964   2.727   7.609   0.388
 2029TIP3    H2 5965   2.863   7.670   0.363
 2030TIP3   OH2 5966   3.021   7.792   0.328
 2030TIP3    H1 5967   3.018   7.878   0.282
 2030TIP3    H2 5968   3.051   7.731   0.258
 2031TIP3   OH2 5969   2.314   7.476   0.328
 2031TIP3    H1 5970   2.332   7.401   0.270
 2031TIP3    H2 5971   2.337   7.437   0.414
 2032TIP3   OH2 5972   2.842   6.065   0.394
 2032TIP3    H1 5973   2.789   5.997   0.440
 2032TIP3    H2 5974   2.899   6.011   0.337
 2033TIP3   OH2 5975   3.385   5.947   0.305
 2033TIP3    H1 5976   3.402   6.004   0.226
 2033TIP3    H2 5977   3.286   5.949   0.301
 2034TIP3   OH2 5978   3.450   6.037   0.062
 2034TIP3    H1 5979   3.520   5.991   0.010
 2034TIP3    H2 5980   3.484   6.129   0.054
 2035TIP3   OH2 5981   1.898   5.625   0.083
 2035TIP3    H1 5982   1.901   5.686   0.006
 2035TIP3    H2 5983   1.820   5.659   0.129
 2036TIP3   OH2 5984   2.482   5.824   0.291
 2036TIP3    H1 5985   2.545   5.863   0.227
 2036TIP3    H2 5986   2.533   5.844   0.373
 2037TIP3   OH2 5987   3.108   5.939   0.268
 2037TIP3    H1 5988   3.071   5.929   0.179
 2037TIP3    H2 5989   3.069   5.863   0.316
 2038TIP3   OH2 5990   3.123   5.873  -0.114
 2038TIP3    H1 5991   3.074   5.889  -0.198
 2038TIP3    H2 5992   3.088   5.786  -0.089
 2039TIP3   OH2 5993   2.102   5.790  -0.270
 2039TIP3    H1 5994   2.042   5.715  -0.272
 2039TIP3    H2 5995   2.081   5.830  -0.184
 2040TIP3   OH2 5996   2.503   5.968  -0.079
 2040TIP3    H1 5997   2.580   5.933  -0.033
 2040TIP3    H2 5998   2.518   6.064  -0.064
 2041TIP3   OH2 5999   2.291   6.054   1.296
 2041TIP3    H1 6000   2.258   5.983   1.353
 2041TIP3    H2 6001   2.386   6.055   1.323
 2042TIP3   OH2 6002   2.540   6.051   1.415
 2042TIP3    H1 6003   2.624   6.021   1.377
 2042TIP3    H2 6004   2.525   5.982   1.483
 2043TIP3   OH2 6005   3.366   6.103   1.205
 2043TIP3    H1 6006   3.391   6.039   1.273
 2043TIP3    H2 6007   3.447   6.105   1.149
 2044TIP3   OH2 6008   3.304   7.663   0.697
 2044TIP3    H1 6009   3.226   7.632   0.647
 2044TIP3    H2 6010   3.287   7.760   0.696
 2045TIP3   OH2 6011   3.869   6.931   0.209
 2045TIP3    H1 6012   3.912   6.879   0.278
 2045TIP3    H2 6013   3.930   7.004   0.194
 2046TIP3   OH2 6014   3.740   6.604  -0.008
 2046TIP3    H1 6015   3.828   6.605   0.033
 2046TIP3    H2 6016   3.761   6.571  -0.097
 2047TIP3   OH2 6017   4.108   6.399   0.323
 2047TIP3    H1 6018   4.057   6.442   0.252
 2047TIP3    H2 6019   4.057   6.426   0.402
 2048TIP3   OH2 6020   3.990   6.514   0.096
 2048TIP3    H1 6021   4.047   6.587   0.128
 2048TIP3    H2 6022   4.028   6.499   0.007
 2049TIP3   OH2 6023   4.047   7.300   0.270
 2049TIP3    H1 6024   4.043   7.356   0.189
 2049TIP3    H2 6025   3.965   7.329   0.314
 2050TIP3   OH2 6026   4.482   6.116   0.052
 2050TIP3    H1 6027   4.455   6.025   0.074
 2050TIP3    H2 6028   4.400   6.165   0.074
 2051TIP3   OH2 6029   4.230   7.457   0.423
 2051TIP3    H1 6030   4.225   7.550   0.395
 2051TIP3    H2 6031   4.177   7.412   0.354
 2052TIP3   OH2 6032   4.007   7.044   0.466
 2052TIP3    H1 6033   4.017   7.138   0.491
 2052TIP3    H2 6034   3.909   7.036   0.470
 2053TIP3   OH2 6035   4.031   7.691   0.442
 2053TIP3    H1 6036   4.009   7.642   0.362
 2053TIP3    H2 6037   3.965   7.658   0.506
 2054TIP3   OH2 6038   3.625   7.192   0.393
 2054TIP3    H1 6039   3.566   7.166   0.320
 2054TIP3    H2 6040   3.664   7.106   0.421
 2055TIP3   OH2 6041   3.525   7.375   0.085
 2055TIP3    H1 6042   3.611   7.362   0.044
 2055TIP3    H2 6043   3.545   7.456   0.137
 2056TIP3   OH2 6044   5.263   6.993   0.356
 2056TIP3    H1 6045   5.174   7.007   0.321
 2056TIP3    H2 6046   5.274   6.897   0.347
 2057TIP3   OH2 6047   3.817   7.389   0.394
 2057TIP3    H1 6048   3.869   7.371   0.475
 2057TIP3    H2 6049   3.747   7.321   0.398
 2058TIP3   OH2 6050   4.231   6.200   0.164
 2058TIP3    H1 6051   4.139   6.172   0.143
 2058TIP3    H2 6052   4.211   6.284   0.210
 2059TIP3   OH2 6053   4.767   6.313   0.356
 2059TIP3    H1 6054   4.836   6.292   0.422
 2059TIP3    H2 6055   4.684   6.295   0.403
 2060TIP3   OH2 6056   5.002   6.710   0.284
 2060TIP3    H1 6057   4.972   6.697   0.377
 2060TIP3    H2 6058   4.928   6.759   0.248
 2061TIP3   OH2 6059   4.168   6.690   0.220
 2061TIP3    H1 6060   4.117   6.728   0.294
 2061TIP3    H2 6061   4.139   6.745   0.145
 2062TIP3   OH2 6062   4.712   6.966   0.507
 2062TIP3    H1 6063   4.692   6.894   0.570
 2062TIP3    H2 6064   4.806   6.984   0.528
 2063TIP3   OH2 6065   3.972   6.749   0.405
 2063TIP3    H1 6066   4.009   6.816   0.465
 2063TIP3    H2 6067   3.971   6.669   0.459
 2064TIP3   OH2 6068   3.599   6.251   0.003
 2064TIP3    H1 6069   3.648   6.305   0.069
 2064TIP3    H2 6070   3.674   6.218  -0.048
 2065TIP3   OH2 6071   3.986   7.298   0.600
 2065TIP3    H1 6072   4.071   7.332   0.633
 2065TIP3    H2 6073   3.931   7.305   0.680
 2066TIP3   OH2 6074   4.448   6.618   0.180
 2066TIP3    H1 6075   4.366   6.670   0.177
 2066TIP3    H2 6076   4.513   6.686   0.206
 2067TIP3   OH2 6077   4.529   7.305   0.276
 2067TIP3    H1 6078   4.563   7.301   0.367
 2067TIP3    H2 6079   4.545   7.399   0.258
 2068TIP3   OH2 6080   3.739   6.985   0.533
 2068TIP3    H1 6081   3.769   6.971   0.625
 2068TIP3    H2 6082   3.675   6.913   0.520
 2069TIP3   OH2 6083   4.469   7.087   0.555
 2069TIP3    H1 6084   4.419   7.049   0.481
 2069TIP3    H2 6085   4.560   7.061   0.530
 2070TIP3   OH2 6086   3.959   6.489   0.543
 2070TIP3    H1 6087   3.864   6.493   0.558
 2070TIP3    H2 6088   3.989   6.428   0.613
 2071TIP3   OH2 6089   3.669   7.569   0.204
 2071TIP3    H1 6090   3.733   7.507   0.243
 2071TIP3    H2 6091   3.709   7.654   0.223
 2072TIP3   OH2 6092   4.775   6.561   0.235
 2072TIP3    H1 6093   4.870   6.577   0.238
 2072TIP3    H2 6094   4.769   6.470   0.272
 2073TIP3   OH2 6095   4.637   6.804   0.285
 2073TIP3    H1 6096   4.654   6.863   0.361
 2073TIP3    H2 6097   4.685   6.723   0.311
 2074TIP3   OH2 6098   3.967   6.121   0.147
 2074TIP3    H1 6099   3.933   6.091   0.059
 2074TIP3    H2 6100   3.959   6.040   0.200
 2075TIP3   OH2 6101   3.662   7.877   0.598
 2075TIP3    H1 6102   3.750   7.875   0.642
 2075TIP3    H2 6103   3.644   7.781   0.590
 2076TIP3   OH2 6104   4.147   7.850   0.639
 2076TIP3    H1 6105   4.242   7.832   0.641
 2076TIP3    H2 6106   4.121   7.798   0.560
 2077TIP3   OH2 6107   4.804   7.717   0.360
 2077TIP3    H1 6108   4.771   7.671   0.440
 2077TIP3    H2 6109   4.839   7.798   0.401
 2078TIP3   OH2 6110   3.791   7.285   0.797
 2078TIP3    H1 6111   3.811   7.190   0.793
 2078TIP3    H2 6112   3.705   7.290   0.750
 2079TIP3   OH2 6113   4.420   7.363   0.582
 2079TIP3    H1 6114   4.359   7.387   0.508
 2079TIP3    H2 6115   4.437   7.268   0.566
 2080TIP3   OH2 6116   3.909   7.010   0.776
 2080TIP3    H1 6117   3.993   6.973   0.746
 2080TIP3    H2 6118   3.935   7.050   0.862
 2081TIP3   OH2 6119   4.234   6.893   0.439
 2081TIP3    H1 6120   4.165   6.962   0.449
 2081TIP3    H2 6121   4.292   6.934   0.371
 2082TIP3   OH2 6122   4.760   7.297   0.563
 2082TIP3    H1 6123   4.853   7.300   0.537
 2082TIP3    H2 6124   4.762   7.236   0.639
 2083TIP3   OH2 6125   4.369   6.691   0.566
 2083TIP3    H1 6126   4.368   6.610   0.512
 2083TIP3    H2 6127   4.325   6.755   0.507
 2084TIP3   OH2 6128   4.364   6.467   0.390
 2084TIP3    H1 6129   4.399   6.515   0.311
 2084TIP3    H2 6130   4.272   6.450   0.362
 2085TIP3   OH2 6131   4.408   7.023   0.281
 2085TIP3    H1 6132   4.457   6.969   0.217
 2085TIP3    H2 6133   4.409   7.111   0.239
 2086TIP3   OH2 6134   4.985   6.983   0.630
 2086TIP3    H1 6135   5.037   6.902   0.631
 2086TIP3    H2 6136   5.048   7.046   0.591
 2087TIP3   OH2 6137   5.027   7.213   0.367
 2087TIP3    H1 6138   4.955   7.232   0.305
 2087TIP3    H2 6139   5.093   7.278   0.335
 2088TIP3   OH2 6140   4.246   6.809   0.793
 2088TIP3    H1 6141   4.177   6.740   0.802
 2088TIP3    H2 6142   4.284   6.788   0.705
 2089TIP3   OH2 6143   4.509   6.239   0.435
 2089TIP3    H1 6144   4.458   6.322   0.419
 2089TIP3    H2 6145   4.439   6.172   0.421
 2090TIP3   OH2 6146   4.630   6.750   0.653
 2090TIP3    H1 6147   4.622   6.742   0.749
 2090TIP3    H2 6148   4.540   6.725   0.625
 2091TIP3   OH2 6149   4.870   6.695   0.518
 2091TIP3    H1 6150   4.793   6.701   0.577
 2091TIP3    H2 6151   4.942   6.668   0.579
 2092TIP3   OH2 6152   5.098   6.636   0.662
 2092TIP3    H1 6153   5.112   6.541   0.682
 2092TIP3    H2 6154   5.099   6.677   0.751
 2093TIP3   OH2 6155   4.083   6.589   0.844
 2093TIP3    H1 6156   4.102   6.502   0.804
 2093TIP3    H2 6157   4.122   6.577   0.934
 2094TIP3   OH2 6158   4.598   6.251   0.693
 2094TIP3    H1 6159   4.669   6.184   0.688
 2094TIP3    H2 6160   4.562   6.246   0.603
 2095TIP3   OH2 6161   4.663   6.466   0.854
 2095TIP3    H1 6162   4.642   6.397   0.787
 2095TIP3    H2 6163   4.588   6.528   0.844
 2096TIP3   OH2 6164   5.218   7.667   0.461
 2096TIP3    H1 6165   5.139   7.663   0.521
 2096TIP3    H2 6166   5.216   7.759   0.435
 2097TIP3   OH2 6167   3.610   6.940   0.141
 2097TIP3    H1 6168   3.616   6.940   0.044
 2097TIP3    H2 6169   3.706   6.942   0.164
 2098TIP3   OH2 6170   3.816   6.632   0.805
 2098TIP3    H1 6171   3.914   6.633   0.810
 2098TIP3    H2 6172   3.796   6.552   0.858
 2099TIP3   OH2 6173   5.683   6.491   0.589
 2099TIP3    H1 6174   5.727   6.430   0.526
 2099TIP3    H2 6175   5.627   6.545   0.529
 2100TIP3   OH2 6176   3.792   6.335   0.173
 2100TIP3    H1 6177   3.856   6.261   0.172
 2100TIP3    H2 6178   3.850   6.409   0.148
 2101TIP3   OH2 6179   3.588   6.602   0.223
 2101TIP3    H1 6180   3.636   6.596   0.138
 2101TIP3    H2 6181   3.612   6.692   0.251
 2102TIP3   OH2 6182   5.505   6.634   0.453
 2102TIP3    H1 6183   5.416   6.666   0.432
 2102TIP3    H2 6184   5.542   6.630   0.363
 2103TIP3   OH2 6185   3.785   6.181   0.535
 2103TIP3    H1 6186   3.738   6.188   0.619
 2103TIP3    H2 6187   3.724   6.226   0.473
 2104TIP3   OH2 6188   3.831   7.612   0.617
 2104TIP3    H1 6189   3.740   7.583   0.595
 2104TIP3    H2 6190   3.835   7.599   0.712
 2105TIP3   OH2 6191   5.414   6.375   0.305
 2105TIP3    H1 6192   5.368   6.429   0.240
 2105TIP3    H2 6193   5.485   6.333   0.254
 2106TIP3   OH2 6194   3.666   7.895   0.167
 2106TIP3    H1 6195   3.582   7.946   0.164
 2106TIP3    H2 6196   3.708   7.934   0.245
 2107TIP3   OH2 6197   3.871   6.030  -0.090
 2107TIP3    H1 6198   3.788   5.997  -0.129
 2107TIP3    H2 6199   3.930   5.954  -0.108
 2108TIP3   OH2 6200   4.086   6.302   0.778
 2108TIP3    H1 6201   4.058   6.236   0.842
 2108TIP3    H2 6202   4.182   6.309   0.802
 2109TIP3   OH2 6203   4.334   6.306   0.899
 2109TIP3    H1 6204   4.420   6.290   0.858
 2109TIP3    H2 6205   4.330   6.234   0.965
 2110TIP3   OH2 6206   5.155   6.366   0.694
 2110TIP3    H1 6207   5.177   6.335   0.785
 2110TIP3    H2 6208   5.244   6.365   0.652
 2111TIP3   OH2 6209   6.134   6.579   0.413
 2111TIP3    H1 6210   6.194   6.543   0.346
 2111TIP3    H2 6211   6.101   6.499   0.458
 2112TIP3   OH2 6212   1.726   7.825   1.210
 2112TIP3    H1 6213   1.769   7.739   1.191
 2112TIP3    H2 6214   1.661   7.830   1.138
 2113TIP3   OH2 6215   3.213   8.358   0.252
 2113TIP3    H1 6216   3.254   8.410   0.181
 2113TIP3    H2 6217   3.284   8.363   0.317
 2114TIP3   OH2 6218   3.040   8.056   0.236
 2114TIP3    H1 6219   2.955   8.100   0.252
 2114TIP3    H2 6220   3.031   8.038   0.139
 2115TIP3   OH2 6221   3.087   8.525   0.559
 2115TIP3    H1 6222   3.045   8.539   0.471
 2115TIP3    H2 6223   3.097   8.427   0.558
 2116TIP3   OH2 6224   2.614   7.876   0.522
 2116TIP3    H1 6225   2.682   7.843   0.585
 2116TIP3    H2 6226   2.530   7.852   0.566
 2117TIP3   OH2 6227   2.855   8.329   0.433
 2117TIP3    H1 6228   2.817   8.300   0.519
 2117TIP3    H2 6229   2.779   8.376   0.398
 2118TIP3   OH2 6230   2.597   8.559   0.750
 2118TIP3    H1 6231   2.552   8.472   0.751
 2118TIP3    H2 6232   2.690   8.533   0.734
 2119TIP3   OH2 6233   2.657   8.108   0.365
 2119TIP3    H1 6234   2.703   8.138   0.444
 2119TIP3    H2 6235   2.617   8.024   0.397
 2120TIP3   OH2 6236   3.106   8.238   0.478
 2120TIP3    H1 6237   3.009   8.251   0.469
 2120TIP3    H2 6238   3.131   8.240   0.384
 2121TIP3   OH2 6239   2.880   8.553   0.768
 2121TIP3    H1 6240   2.892   8.461   0.796
 2121TIP3    H2 6241   2.962   8.566   0.717
 2122TIP3   OH2 6242   2.341   7.817   0.588
 2122TIP3    H1 6243   2.310   7.883   0.524
 2122TIP3    H2 6244   2.276   7.744   0.573
 2123TIP3   OH2 6245   2.484   8.306   0.800
 2123TIP3    H1 6246   2.483   8.305   0.897
 2123TIP3    H2 6247   2.391   8.288   0.782
 2124TIP3   OH2 6248   2.723   8.259   0.655
 2124TIP3    H1 6249   2.639   8.260   0.705
 2124TIP3    H2 6250   2.788   8.226   0.721
 2125TIP3   OH2 6251   2.944   8.197   0.814
 2125TIP3    H1 6252   2.956   8.101   0.831
 2125TIP3    H2 6253   2.941   8.235   0.904
 2126TIP3   OH2 6254   2.038   8.194   0.993
 2126TIP3    H1 6255   1.980   8.141   0.936
 2126TIP3    H2 6256   2.011   8.160   1.080
 2127TIP3   OH2 6257   2.444   7.813   0.843
 2127TIP3    H1 6258   2.510   7.742   0.836
 2127TIP3    H2 6259   2.401   7.809   0.755
 2128TIP3   OH2 6260   2.505   8.027   1.004
 2128TIP3    H1 6261   2.485   7.955   0.940
 2128TIP3    H2 6262   2.428   8.087   0.993
 2129TIP3   OH2 6263   3.283   8.672   0.431
 2129TIP3    H1 6264   3.212   8.620   0.472
 2129TIP3    H2 6265   3.360   8.613   0.446
 2130TIP3   OH2 6266   3.017   8.597   0.308
 2130TIP3    H1 6267   2.974   8.525   0.260
 2130TIP3    H2 6268   3.075   8.633   0.239
 2131TIP3   OH2 6269   3.494   8.058   0.722
 2131TIP3    H1 6270   3.555   7.992   0.681
 2131TIP3    H2 6271   3.474   8.116   0.646
 2132TIP3   OH2 6272   3.370   8.206   0.529
 2132TIP3    H1 6273   3.276   8.229   0.548
 2132TIP3    H2 6274   3.355   8.126   0.475
 2133TIP3   OH2 6275   3.273   7.968   0.409
 2133TIP3    H1 6276   3.183   7.975   0.373
 2133TIP3    H2 6277   3.294   7.872   0.396
 2134TIP3   OH2 6278   1.983   7.756   0.909
 2134TIP3    H1 6279   1.933   7.728   0.988
 2134TIP3    H2 6280   2.041   7.825   0.946
 2135TIP3   OH2 6281   2.184   7.878   1.067
 2135TIP3    H1 6282   2.263   7.849   1.018
 2135TIP3    H2 6283   2.168   7.801   1.125
 2136TIP3   OH2 6284   3.001   7.926   0.840
 2136TIP3    H1 6285   3.023   7.894   0.930
 2136TIP3    H2 6286   3.089   7.922   0.796
 2137TIP3   OH2 6287   3.561   8.802   0.425
 2137TIP3    H1 6288   3.616   8.732   0.463
 2137TIP3    H2 6289   3.566   8.873   0.492
 2138TIP3   OH2 6290   3.849   8.636   0.401
 2138TIP3    H1 6291   3.802   8.554   0.428
 2138TIP3    H2 6292   3.912   8.601   0.336
 2139TIP3   OH2 6293   3.728   8.408   0.488
 2139TIP3    H1 6294   3.731   8.328   0.431
 2139TIP3    H2 6295   3.762   8.374   0.573
 2140TIP3   OH2 6296   4.276   8.268   0.480
 2140TIP3    H1 6297   4.258   8.227   0.393
 2140TIP3    H2 6298   4.222   8.348   0.474
 2141TIP3   OH2 6299   3.455   8.462   0.461
 2141TIP3    H1 6300   3.552   8.450   0.447
 2141TIP3    H2 6301   3.433   8.374   0.497
 2142TIP3   OH2 6302   3.410   8.003   0.163
 2142TIP3    H1 6303   3.374   7.988   0.252
 2142TIP3    H2 6304   3.352   8.070   0.127
 2143TIP3   OH2 6305   3.719   8.117   0.430
 2143TIP3    H1 6306   3.700   8.042   0.488
 2143TIP3    H2 6307   3.816   8.127   0.444
 2144TIP3   OH2 6308   3.969   8.130   0.550
 2144TIP3    H1 6309   4.046   8.112   0.493
 2144TIP3    H2 6310   3.967   8.050   0.606
 2145TIP3   OH2 6311   1.635  -0.090   4.795
 2145TIP3    H1 6312   1.587  -0.160   4.751
 2145TIP3    H2 6313   1.606  -0.010   4.747
 2146TIP3   OH2 6314   1.854   0.253   4.848
 2146TIP3    H1 6315   1.854   0.157   4.864
 2146TIP3    H2 6316   1.772   0.280   4.895
 2147TIP3   OH2 6317   1.541   0.605   4.947
 2147TIP3    H1 6318   1.541   0.630   4.853
 2147TIP3    H2 6319   1.618   0.655   4.981
 2148TIP3   OH2 6320   1.875  -0.034   4.895
 2148TIP3    H1 6321   1.777  -0.040   4.889
 2148TIP3    H2 6322   1.897  -0.064   4.804
 2149TIP3   OH2 6323   1.388   0.292   4.781
 2149TIP3    H1 6324   1.302   0.251   4.800
 2149TIP3    H2 6325   1.365   0.362   4.715
 2150TIP3   OH2 6326   1.362   0.146   5.102
 2150TIP3    H1 6327   1.276   0.138   5.146
 2150TIP3    H2 6328   1.404   0.216   5.154
 2151TIP3   OH2 6329   1.638   0.368   4.327
 2151TIP3    H1 6330   1.669   0.395   4.414
 2151TIP3    H2 6331   1.710   0.397   4.269
 2152TIP3   OH2 6332   1.682   0.382   4.616
 2152TIP3    H1 6333   1.645   0.292   4.611
 2152TIP3    H2 6334   1.759   0.365   4.673
 2153TIP3   OH2 6335   1.741   0.052   5.182
 2153TIP3    H1 6336   1.666   0.057   5.244
 2153TIP3    H2 6337   1.776   0.144   5.189
 2154TIP3   OH2 6338   1.556   0.128   4.646
 2154TIP3    H1 6339   1.498   0.183   4.703
 2154TIP3    H2 6340   1.496   0.100   4.577
 2155TIP3   OH2 6341   1.780  -0.279   5.016
 2155TIP3    H1 6342   1.847  -0.350   5.006
 2155TIP3    H2 6343   1.810  -0.212   4.953
 2156TIP3   OH2 6344   1.950  -0.492   5.037
 2156TIP3    H1 6345   1.896  -0.563   5.075
 2156TIP3    H2 6346   2.040  -0.518   5.059
 2157TIP3   OH2 6347   1.142   0.466   4.906
 2157TIP3    H1 6348   1.212   0.401   4.906
 2157TIP3    H2 6349   1.174   0.524   4.978
 2158TIP3   OH2 6350   1.345   0.462   4.569
 2158TIP3    H1 6351   1.313   0.549   4.539
 2158TIP3    H2 6352   1.372   0.423   4.485
 2159TIP3   OH2 6353   1.613   0.339   4.954
 2159TIP3    H1 6354   1.533   0.299   4.913
 2159TIP3    H2 6355   1.589   0.433   4.953
 2160TIP3   OH2 6356   2.910  -0.269   3.772
 2160TIP3    H1 6357   2.888  -0.176   3.759
 2160TIP3    H2 6358   2.836  -0.314   3.728
 2161TIP3   OH2 6359   2.860  -0.295   4.102
 2161TIP3    H1 6360   2.903  -0.305   4.188
 2161TIP3    H2 6361   2.833  -0.388   4.087
 2162TIP3   OH2 6362   2.168  -0.396   4.456
 2162TIP3    H1 6363   2.201  -0.457   4.524
 2162TIP3    H2 6364   2.249  -0.347   4.435
 2163TIP3   OH2 6365   3.111   0.008   3.781
 2163TIP3    H1 6366   3.107  -0.062   3.848
 2163TIP3    H2 6367   3.138   0.084   3.834
 2164TIP3   OH2 6368   2.166   0.026   4.221
 2164TIP3    H1 6369   2.145  -0.064   4.195
 2164TIP3    H2 6370   2.262   0.029   4.206
 2165TIP3   OH2 6371   2.749   0.466   3.786
 2165TIP3    H1 6372   2.808   0.397   3.749
 2165TIP3    H2 6373   2.756   0.449   3.881
 2166TIP3   OH2 6374   2.676  -0.068   4.134
 2166TIP3    H1 6375   2.722  -0.149   4.105
 2166TIP3    H2 6376   2.755  -0.018   4.164
 2167TIP3   OH2 6377   3.100  -0.552   4.177
 2167TIP3    H1 6378   3.114  -0.638   4.218
 2167TIP3    H2 6379   3.050  -0.576   4.096
 2168TIP3   OH2 6380   3.734  -0.553   4.315
 2168TIP3    H1 6381   3.664  -0.484   4.315
 2168TIP3    H2 6382   3.779  -0.536   4.400
 2169TIP3   OH2 6383   2.767  -0.010   3.628
 2169TIP3    H1 6384   2.809  -0.056   3.553
 2169TIP3    H2 6385   2.738   0.071   3.586
 2170TIP3   OH2 6386   2.521  -0.148   4.377
 2170TIP3    H1 6387   2.457  -0.087   4.420
 2170TIP3    H2 6388   2.569  -0.087   4.319
 2171TIP3   OH2 6389   2.347   0.041   4.470
 2171TIP3    H1 6390   2.325   0.129   4.433
 2171TIP3    H2 6391   2.269   0.030   4.529
 2172TIP3   OH2 6392   3.189   0.250   3.946
 2172TIP3    H1 6393   3.100   0.243   3.988
 2172TIP3    H2 6394   3.180   0.338   3.903
 2173TIP3   OH2 6395   2.880   0.296   3.615
 2173TIP3    H1 6396   2.937   0.217   3.599
 2173TIP3    H2 6397   2.941   0.365   3.580
 2174TIP3   OH2 6398   3.035   0.095   3.531
 2174TIP3    H1 6399   3.053   0.021   3.468
 2174TIP3    H2 6400   3.071   0.057   3.614
 2175TIP3   OH2 6401   3.414   0.170   4.290
 2175TIP3    H1 6402   3.400   0.091   4.234
 2175TIP3    H2 6403   3.395   0.244   4.228
 2176TIP3   OH2 6404   3.603  -0.205   4.122
 2176TIP3    H1 6405   3.531  -0.144   4.149
 2176TIP3    H2 6406   3.594  -0.201   4.027
 2177TIP3   OH2 6407   3.055  -0.328   3.549
 2177TIP3    H1 6408   3.047  -0.309   3.645
 2177TIP3    H2 6409   3.141  -0.375   3.545
 2178TIP3   OH2 6410   3.287  -0.312   4.424
 2178TIP3    H1 6411   3.286  -0.230   4.478
 2178TIP3    H2 6412   3.201  -0.303   4.378
 2179TIP3   OH2 6413   2.418   0.053   4.081
 2179TIP3    H1 6414   2.400  -0.010   4.011
 2179TIP3    H2 6415   2.509   0.027   4.108
 2180TIP3   OH2 6416   2.419  -0.392   4.291
 2180TIP3    H1 6417   2.459  -0.415   4.206
 2180TIP3    H2 6418   2.463  -0.308   4.315
 2181TIP3   OH2 6419   2.947   0.248   4.067
 2181TIP3    H1 6420   2.933   0.328   4.120
 2181TIP3    H2 6421   2.932   0.176   4.132
 2182TIP3   OH2 6422   2.551   0.190   4.588
 2182TIP3    H1 6423   2.501   0.238   4.656
 2182TIP3    H2 6424   2.489   0.119   4.564
 2183TIP3   OH2 6425   2.300  -0.263   4.708
 2183TIP3    H1 6426   2.306  -0.180   4.761
 2183TIP3    H2 6427   2.205  -0.281   4.711
 2184TIP3   OH2 6428   2.606   0.234   3.588
 2184TIP3    H1 6429   2.698   0.240   3.623
 2184TIP3    H2 6430   2.561   0.292   3.653
 2185TIP3   OH2 6431   2.349   0.347   4.704
 2185TIP3    H1 6432   2.320   0.336   4.612
 2185TIP3    H2 6433   2.269   0.320   4.755
 2186TIP3   OH2 6434   3.218   0.117   2.939
 2186TIP3    H1 6435   3.231   0.211   2.961
 2186TIP3    H2 6436   3.309   0.080   2.944
 2187TIP3   OH2 6437   1.935  -0.134   4.649
 2187TIP3    H1 6438   1.896  -0.158   4.565
 2187TIP3    H2 6439   1.970  -0.219   4.683
 2188TIP3   OH2 6440   1.799   0.042   4.302
 2188TIP3    H1 6441   1.884   0.065   4.264
 2188TIP3    H2 6442   1.767   0.128   4.332
 2189TIP3   OH2 6443   3.650   0.509   4.333
 2189TIP3    H1 6444   3.649   0.413   4.352
 2189TIP3    H2 6445   3.567   0.536   4.380
 2190TIP3   OH2 6446   2.753   0.308   4.453
 2190TIP3    H1 6447   2.758   0.393   4.501
 2190TIP3    H2 6448   2.693   0.258   4.515
 2191TIP3   OH2 6449   2.480   0.401   3.393
 2191TIP3    H1 6450   2.453   0.444   3.310
 2191TIP3    H2 6451   2.472   0.478   3.454
 2192TIP3   OH2 6452   2.764   0.386   3.341
 2192TIP3    H1 6453   2.687   0.392   3.399
 2192TIP3    H2 6454   2.831   0.344   3.398
 2193TIP3   OH2 6455   3.544  -0.362   4.629
 2193TIP3    H1 6456   3.473  -0.323   4.575
 2193TIP3    H2 6457   3.566  -0.444   4.583
 2194TIP3   OH2 6458   2.137   0.052   4.642
 2194TIP3    H1 6459   2.189   0.035   4.723
 2194TIP3    H2 6460   2.063  -0.010   4.650
 2195TIP3   OH2 6461   3.200  -0.508   4.600
 2195TIP3    H1 6462   3.274  -0.556   4.638
 2195TIP3    H2 6463   3.241  -0.437   4.547
 2196TIP3   OH2 6464   2.480  -0.617   4.447
 2196TIP3    H1 6465   2.411  -0.602   4.515
 2196TIP3    H2 6466   2.455  -0.547   4.382
 2197TIP3   OH2 6467   3.029  -0.307   4.726
 2197TIP3    H1 6468   3.010  -0.358   4.808
 2197TIP3    H2 6469   3.124  -0.296   4.739
 2198TIP3   OH2 6470   3.005  -0.613   3.916
 2198TIP3    H1 6471   2.960  -0.562   3.847
 2198TIP3    H2 6472   3.051  -0.681   3.864
 2199TIP3   OH2 6473   2.284  -0.572   4.644
 2199TIP3    H1 6474   2.323  -0.517   4.714
 2199TIP3    H2 6475   2.263  -0.654   4.691
 2200TIP3   OH2 6476   3.009  -0.355   4.341
 2200TIP3    H1 6477   3.042  -0.430   4.286
 2200TIP3    H2 6478   2.991  -0.399   4.425
 2201TIP3   OH2 6479   3.339   0.863   4.434
 2201TIP3    H1 6480   3.338   0.885   4.339
 2201TIP3    H2 6481   3.418   0.911   4.465
 2202TIP3   OH2 6482   2.299  -0.029   4.857
 2202TIP3    H1 6483   2.382  -0.001   4.901
 2202TIP3    H2 6484   2.237  -0.023   4.933
 2203TIP3   OH2 6485   2.794  -0.561   4.130
 2203TIP3    H1 6486   2.820  -0.629   4.067
 2203TIP3    H2 6487   2.772  -0.614   4.209
 2204TIP3   OH2 6488   2.745  -0.688   4.415
 2204TIP3    H1 6489   2.654  -0.654   4.423
 2204TIP3    H2 6490   2.796  -0.625   4.470
 2205TIP3   OH2 6491   3.380  -0.050   4.128
 2205TIP3    H1 6492   3.401  -0.008   4.042
 2205TIP3    H2 6493   3.293  -0.093   4.109
 2206TIP3   OH2 6494   2.877   0.034   4.496
 2206TIP3    H1 6495   2.897   0.020   4.590
 2206TIP3    H2 6496   2.832   0.119   4.506
 2207TIP3   OH2 6497   2.038  -0.342   4.794
 2207TIP3    H1 6498   2.084  -0.342   4.880
 2207TIP3    H2 6499   1.993  -0.428   4.797
 2208TIP3   OH2 6500   2.770  -0.279   4.830
 2208TIP3    H1 6501   2.698  -0.289   4.767
 2208TIP3    H2 6502   2.843  -0.243   4.776
 2209TIP3   OH2 6503   3.035   0.302   4.385
 2209TIP3    H1 6504   2.939   0.288   4.399
 2209TIP3    H2 6505   3.058   0.345   4.470
 2210TIP3   OH2 6506   3.663   0.217   4.381
 2210TIP3    H1 6507   3.565   0.213   4.372
 2210TIP3    H2 6508   3.689   0.191   4.291
 2211TIP3   OH2 6509   3.144   0.177   3.202
 2211TIP3    H1 6510   3.131   0.106   3.267
 2211TIP3    H2 6511   3.142   0.127   3.118
 2212TIP3   OH2 6512   3.144  -0.188   4.045
 2212TIP3    H1 6513   3.051  -0.213   4.058
 2212TIP3    H2 6514   3.177  -0.269   4.000
 2213TIP3   OH2 6515   2.537   0.380   4.268
 2213TIP3    H1 6516   2.582   0.453   4.222
 2213TIP3    H2 6517   2.610   0.348   4.325
 2214TIP3   OH2 6518   2.927   0.017   4.228
 2214TIP3    H1 6519   2.914   0.018   4.325
 2214TIP3    H2 6520   3.010  -0.032   4.221
 2215TIP3   OH2 6521   3.177   0.552   4.276
 2215TIP3    H1 6522   3.099   0.492   4.273
 2215TIP3    H2 6523   3.157   0.615   4.204
 2216TIP3   OH2 6524   3.244   0.393   2.927
 2216TIP3    H1 6525   3.289   0.473   2.893
 2216TIP3    H2 6526   3.161   0.433   2.959
 2217TIP3   OH2 6527   3.077  -0.117   3.373
 2217TIP3    H1 6528   3.089  -0.202   3.420
 2217TIP3    H2 6529   3.148  -0.127   3.306
 2218TIP3   OH2 6530   1.975   0.254   4.432
 2218TIP3    H1 6531   2.025   0.173   4.449
 2218TIP3    H2 6532   2.015   0.314   4.495
 2219TIP3   OH2 6533   2.927  -0.537   4.585
 2219TIP3    H1 6534   2.941  -0.454   4.634
 2219TIP3    H2 6535   3.020  -0.564   4.577
 2220TIP3   OH2 6536   3.223  -0.427   3.916
 2220TIP3    H1 6537   3.154  -0.491   3.941
 2220TIP3    H2 6538   3.302  -0.464   3.963
 2221TIP3   OH2 6539   3.195   0.523   3.867
 2221TIP3    H1 6540   3.153   0.571   3.792
 2221TIP3    H2 6541   3.289   0.543   3.848
 2222TIP3   OH2 6542   1.965   0.552   4.846
 2222TIP3    H1 6543   2.051   0.551   4.893
 2222TIP3    H2 6544   1.945   0.457   4.844
 2223TIP3   OH2 6545   2.446   0.533   4.886
 2223TIP3    H1 6546   2.536   0.507   4.908
 2223TIP3    H2 6547   2.424   0.470   4.815
 2224TIP3   OH2 6548   3.083   0.423   4.632
 2224TIP3    H1 6549   3.076   0.341   4.686
 2224TIP3    H2 6550   3.164   0.466   4.665
 2225TIP3   OH2 6551   2.102  -0.035   5.048
 2225TIP3    H1 6552   2.114  -0.130   5.062
 2225TIP3    H2 6553   2.013  -0.032   5.007
 2226TIP3   OH2 6554   3.199   0.043   4.422
 2226TIP3    H1 6555   3.266   0.102   4.384
 2226TIP3    H2 6556   3.122   0.101   4.426
 2227TIP3   OH2 6557   2.209  -0.323   5.028
 2227TIP3    H1 6558   2.293  -0.365   5.007
 2227TIP3    H2 6559   2.232  -0.284   5.115
 2228TIP3   OH2 6560   2.548  -0.370   4.680
 2228TIP3    H1 6561   2.463  -0.321   4.680
 2228TIP3    H2 6562   2.587  -0.350   4.594
 2229TIP3   OH2 6563   2.589  -0.615   4.774
 2229TIP3    H1 6564   2.682  -0.628   4.751
 2229TIP3    H2 6565   2.575  -0.523   4.734
 2230TIP3   OH2 6566   2.719  -0.314   4.472
 2230TIP3    H1 6567   2.802  -0.296   4.426
 2230TIP3    H2 6568   2.662  -0.239   4.444
 2231TIP3   OH2 6569   3.288  -0.331   4.875
 2231TIP3    H1 6570   3.339  -0.409   4.896
 2231TIP3    H2 6571   3.356  -0.264   4.856
 2232TIP3   OH2 6572   3.337  -0.104   4.605
 2232TIP3    H1 6573   3.270  -0.048   4.560
 2232TIP3    H2 6574   3.420  -0.070   4.565
 2233TIP3   OH2 6575   2.522  -0.503   5.047
 2233TIP3    H1 6576   2.454  -0.572   5.044
 2233TIP3    H2 6577   2.578  -0.528   4.973
 2234TIP3   OH2 6578   3.009  -0.478   4.925
 2234TIP3    H1 6579   2.953  -0.502   5.000
 2234TIP3    H2 6580   3.036  -0.565   4.889
 2235TIP3   OH2 6581   3.446   0.618   3.823
 2235TIP3    H1 6582   3.473   0.651   3.910
 2235TIP3    H2 6583   3.508   0.664   3.764
 2236TIP3   OH2 6584   3.478   0.638   4.104
 2236TIP3    H1 6585   3.435   0.550   4.101
 2236TIP3    H2 6586   3.553   0.617   4.163
 2237TIP3   OH2 6587   3.521   0.314   4.678
 2237TIP3    H1 6588   3.448   0.321   4.743
 2237TIP3    H2 6589   3.563   0.402   4.684
 2238TIP3   OH2 6590   3.348  -0.143   3.310
 2238TIP3    H1 6591   3.431  -0.100   3.284
 2238TIP3    H2 6592   3.379  -0.213   3.370
 2239TIP3   OH2 6593   3.471  -0.309   3.495
 2239TIP3    H1 6594   3.401  -0.352   3.549
 2239TIP3    H2 6595   3.529  -0.268   3.562
 2240TIP3   OH2 6596   3.532   0.073   3.925
 2240TIP3    H1 6597   3.569   0.044   3.840
 2240TIP3    H2 6598   3.501   0.161   3.899
 2241TIP3   OH2 6599   3.353   0.387   4.129
 2241TIP3    H1 6600   3.285   0.430   4.184
 2241TIP3    H2 6601   3.298   0.340   4.063
 2242TIP3   OH2 6602   3.293  -0.452   3.652
 2242TIP3    H1 6603   3.285  -0.548   3.644
 2242TIP3    H2 6604   3.273  -0.438   3.747
 2243TIP3   OH2 6605   3.577  -0.028   4.502
 2243TIP3    H1 6606   3.650  -0.093   4.491
 2243TIP3    H2 6607   3.608   0.048   4.448
 2244TIP3   OH2 6608   3.758  -0.231   4.511
 2244TIP3    H1 6609   3.695  -0.281   4.567
 2244TIP3    H2 6610   3.843  -0.257   4.549
 2245TIP3   OH2 6611   3.455  -0.509   4.034
 2245TIP3    H1 6612   3.537  -0.550   4.005
 2245TIP3    H2 6613   3.464  -0.507   4.131
 2246TIP3   OH2 6614   3.505  -0.406   4.291
 2246TIP3    H1 6615   3.421  -0.369   4.324
 2246TIP3    H2 6616   3.536  -0.335   4.232
 2247TIP3   OH2 6617   3.031   0.479   3.483
 2247TIP3    H1 6618   3.083   0.464   3.401
 2247TIP3    H2 6619   3.083   0.547   3.528
 2248TIP3   OH2 6620   2.131   0.288   4.869
 2248TIP3    H1 6621   2.040   0.258   4.852
 2248TIP3    H2 6622   2.143   0.266   4.962
 2249TIP3   OH2 6623   2.307   0.315   4.416
 2249TIP3    H1 6624   2.262   0.390   4.374
 2249TIP3    H2 6625   2.396   0.328   4.377
 2250TIP3   OH2 6626   2.755   0.571   4.557
 2250TIP3    H1 6627   2.798   0.561   4.644
 2250TIP3    H2 6628   2.825   0.616   4.505
 2251TIP3   OH2 6629   2.938   0.715   4.408
 2251TIP3    H1 6630   3.009   0.661   4.371
 2251TIP3    H2 6631   2.988   0.772   4.470
 2252TIP3   OH2 6632   1.990   0.580   4.436
 2252TIP3    H1 6633   1.901   0.614   4.413
 2252TIP3    H2 6634   1.994   0.602   4.529
 2253TIP3   OH2 6635   2.226   0.549   4.292
 2253TIP3    H1 6636   2.141   0.567   4.340
 2253TIP3    H2 6637   2.207   0.591   4.206
 2254TIP3   OH2 6638   2.654   0.589   4.087
 2254TIP3    H1 6639   2.578   0.608   4.028
 2254TIP3    H2 6640   2.663   0.675   4.134
 2255TIP3   OH2 6641   2.919   0.525   4.137
 2255TIP3    H1 6642   2.824   0.542   4.124
 2255TIP3    H2 6643   2.959   0.607   4.104
 2256TIP3   OH2 6644   3.129   0.719   4.061
 2256TIP3    H1 6645   3.113   0.803   4.013
 2256TIP3    H2 6646   3.152   0.658   3.988
 2257TIP3   OH2 6647   1.909   0.375   4.192
 2257TIP3    H1 6648   1.925   0.349   4.285
 2257TIP3    H2 6649   1.989   0.333   4.152
 2258TIP3   OH2 6650   2.108   0.245   4.064
 2258TIP3    H1 6651   2.127   0.159   4.108
 2258TIP3    H2 6652   2.197   0.278   4.046
 2259TIP3   OH2 6653   2.373   0.341   4.036
 2259TIP3    H1 6654   2.399   0.247   4.032
 2259TIP3    H2 6655   2.407   0.364   4.125
 2260TIP3   OH2 6656   3.177   0.445   3.249
 2260TIP3    H1 6657   3.168   0.348   3.235
 2260TIP3    H2 6658   3.131   0.479   3.169
 2261TIP3   OH2 6659   3.407   0.595   4.435
 2261TIP3    H1 6660   3.326   0.562   4.390
 2261TIP3    H2 6661   3.385   0.690   4.440
 2262TIP3   OH2 6662   4.672  -0.035   3.204
 2262TIP3    H1 6663   4.644   0.058   3.187
 2262TIP3    H2 6664   4.594  -0.082   3.171
 2263TIP3   OH2 6665   4.661  -0.035   3.582
 2263TIP3    H1 6666   4.694  -0.058   3.671
 2263TIP3    H2 6667   4.625  -0.120   3.552
 2264TIP3   OH2 6668   4.910   0.266   3.265
 2264TIP3    H1 6669   4.900   0.195   3.330
 2264TIP3    H2 6670   4.939   0.340   3.321
 2265TIP3   OH2 6671   3.938   0.267   3.675
 2265TIP3    H1 6672   3.932   0.170   3.681
 2265TIP3    H2 6673   4.035   0.278   3.671
 2266TIP3   OH2 6674   3.639  -0.530   3.466
 2266TIP3    H1 6675   3.595  -0.443   3.476
 2266TIP3    H2 6676   3.564  -0.584   3.438
 2267TIP3   OH2 6677   3.701  -0.241   3.627
 2267TIP3    H1 6678   3.761  -0.296   3.680
 2267TIP3    H2 6679   3.761  -0.203   3.561
 2268TIP3   OH2 6680   4.558   0.729   3.280
 2268TIP3    H1 6681   4.607   0.658   3.233
 2268TIP3    H2 6682   4.556   0.694   3.370
 2269TIP3   OH2 6683   4.465   0.188   3.630
 2269TIP3    H1 6684   4.502   0.110   3.585
 2269TIP3    H2 6685   4.550   0.233   3.653
 2270TIP3   OH2 6686   4.897  -0.285   3.668
 2270TIP3    H1 6687   4.891  -0.367   3.722
 2270TIP3    H2 6688   4.862  -0.315   3.582
 2271TIP3   OH2 6689   3.863  -0.422   3.783
 2271TIP3    H1 6690   3.941  -0.483   3.791
 2271TIP3    H2 6691   3.829  -0.463   3.702
 2272TIP3   OH2 6692   4.292  -0.246   3.538
 2272TIP3    H1 6693   4.384  -0.278   3.548
 2272TIP3    H2 6694   4.248  -0.327   3.504
 2273TIP3   OH2 6695   5.540  -0.320   3.814
 2273TIP3    H1 6696   5.470  -0.258   3.784
 2273TIP3    H2 6697   5.571  -0.279   3.896
 2274TIP3   OH2 6698   4.565   0.189   3.074
 2274TIP3    H1 6699   4.520   0.161   2.994
 2274TIP3    H2 6700   4.520   0.273   3.095
 2275TIP3   OH2 6701   4.319   0.106   3.861
 2275TIP3    H1 6702   4.256   0.171   3.899
 2275TIP3    H2 6703   4.360   0.159   3.790
 2276TIP3   OH2 6704   4.088  -0.532   3.844
 2276TIP3    H1 6705   4.170  -0.480   3.861
 2276TIP3    H2 6706   4.122  -0.598   3.780
 2277TIP3   OH2 6707   4.147   0.303   3.956
 2277TIP3    H1 6708   4.122   0.389   3.918
 2277TIP3    H2 6709   4.070   0.288   4.015
 2278TIP3   OH2 6710   3.556  -0.001   3.197
 2278TIP3    H1 6711   3.503   0.019   3.117
 2278TIP3    H2 6712   3.573   0.088   3.234
 2279TIP3   OH2 6713   4.985   0.510   3.435
 2279TIP3    H1 6714   4.895   0.500   3.474
 2279TIP3    H2 6715   4.976   0.595   3.389
 2280TIP3   OH2 6716   4.687   0.558   3.110
 2280TIP3    H1 6717   4.737   0.475   3.088
 2280TIP3    H2 6718   4.746   0.623   3.067
 2281TIP3   OH2 6719   4.829   0.343   3.013
 2281TIP3    H1 6720   4.789   0.264   2.974
 2281TIP3    H2 6721   4.863   0.307   3.098
 2282TIP3   OH2 6722   5.221   0.429   3.771
 2282TIP3    H1 6723   5.214   0.350   3.714
 2282TIP3    H2 6724   5.203   0.502   3.709
 2283TIP3   OH2 6725   4.502  -0.181   3.033
 2283TIP3    H1 6726   4.419  -0.134   3.010
 2283TIP3    H2 6727   4.544  -0.190   2.946
 2284TIP3   OH2 6728   4.456  -0.381   2.773
 2284TIP3    H1 6729   4.543  -0.353   2.807
 2284TIP3    H2 6730   4.479  -0.459   2.720
 2285TIP3   OH2 6731   5.412   0.068   3.618
 2285TIP3    H1 6732   5.327   0.117   3.624
 2285TIP3    H2 6733   5.437   0.089   3.526
 2286TIP3   OH2 6734   4.849  -0.099   3.007
 2286TIP3    H1 6735   4.794  -0.075   3.085
 2286TIP3    H2 6736   4.931  -0.128   3.051
 2287TIP3   OH2 6737   4.970   0.187   4.063
 2287TIP3    H1 6738   5.005   0.233   3.981
 2287TIP3    H2 6739   4.879   0.175   4.030
 2288TIP3   OH2 6740   4.082  -0.100   3.423
 2288TIP3    H1 6741   4.039  -0.159   3.358
 2288TIP3    H2 6742   4.157  -0.156   3.453
 2289TIP3   OH2 6743   4.210   0.308   3.572
 2289TIP3    H1 6744   4.191   0.262   3.489
 2289TIP3    H2 6745   4.301   0.276   3.591
 2290TIP3   OH2 6746   4.202  -0.133   3.776
 2290TIP3    H1 6747   4.244  -0.157   3.690
 2290TIP3    H2 6748   4.250  -0.050   3.800
 2291TIP3   OH2 6749   4.743   0.507   3.553
 2291TIP3    H1 6750   4.729   0.585   3.610
 2291TIP3    H2 6751   4.723   0.432   3.612
 2292TIP3   OH2 6752   4.353   0.427   4.098
 2292TIP3    H1 6753   4.295   0.489   4.147
 2292TIP3    H2 6754   4.286   0.373   4.051
 2293TIP3   OH2 6755   4.698  -0.251   2.834
 2293TIP3    H1 6756   4.754  -0.191   2.888
 2293TIP3    H2 6757   4.721  -0.221   2.743
 2294TIP3   OH2 6758   4.092  -0.007   4.190
 2294TIP3    H1 6759   4.105   0.074   4.242
 2294TIP3    H2 6760   4.000  -0.028   4.212
 2295TIP3   OH2 6761   4.429   0.440   3.106
 2295TIP3    H1 6762   4.508   0.493   3.128
 2295TIP3    H2 6763   4.369   0.507   3.070
 2296TIP3   OH2 6764   4.148   0.597   4.187
 2296TIP3    H1 6765   4.113   0.592   4.096
 2296TIP3    H2 6766   4.069   0.575   4.241
 2297TIP3   OH2 6767   3.951  -0.252   3.235
 2297TIP3    H1 6768   3.888  -0.204   3.177
 2297TIP3    H2 6769   3.917  -0.342   3.236
 2298TIP3   OH2 6770   5.003   0.367   2.428
 2298TIP3    H1 6771   5.011   0.464   2.414
 2298TIP3    H2 6772   5.095   0.338   2.415
 2299TIP3   OH2 6773   3.727   0.123   4.135
 2299TIP3    H1 6774   3.662   0.100   4.066
 2299TIP3    H2 6775   3.761   0.036   4.164
 2300TIP3   OH2 6776   3.583   0.317   3.771
 2300TIP3    H1 6777   3.679   0.314   3.758
 2300TIP3    H2 6778   3.574   0.399   3.822
 2301TIP3   OH2 6779   5.447   0.769   3.820
 2301TIP3    H1 6780   5.447   0.672   3.833
 2301TIP3    H2 6781   5.364   0.793   3.867
 2302TIP3   OH2 6782   4.553   0.555   3.956
 2302TIP3    H1 6783   4.553   0.647   3.989
 2302TIP3    H2 6784   4.482   0.516   4.011
 2303TIP3   OH2 6785   4.309   0.684   2.909
 2303TIP3    H1 6786   4.267   0.666   2.823
 2303TIP3    H2 6787   4.280   0.775   2.930
 2304TIP3   OH2 6788   3.750   0.534   3.292
 2304TIP3    H1 6789   3.799   0.525   3.377
 2304TIP3    H2 6790   3.693   0.456   3.296
 2305TIP3   OH2 6791   4.514   0.584   2.551
 2305TIP3    H1 6792   4.573   0.515   2.513
 2305TIP3    H2 6793   4.549   0.593   2.642
 2306TIP3   OH2 6794   4.563   0.633   2.821
 2306TIP3    H1 6795   4.475   0.641   2.865
 2306TIP3    H2 6796   4.615   0.591   2.891
 2307TIP3   OH2 6797   5.364  -0.123   4.129
 2307TIP3    H1 6798   5.295  -0.054   4.129
 2307TIP3    H2 6799   5.326  -0.188   4.069
 2308TIP3   OH2 6800   3.933   0.309   4.126
 2308TIP3    H1 6801   3.985   0.292   4.207
 2308TIP3    H2 6802   3.860   0.244   4.134
 2309TIP3   OH2 6803   5.104  -0.215   3.907
 2309TIP3    H1 6804   5.054  -0.233   3.990
 2309TIP3    H2 6805   5.046  -0.254   3.839
 2310TIP3   OH2 6806   4.764  -0.194   2.575
 2310TIP3    H1 6807   4.733  -0.222   2.487
 2310TIP3    H2 6808   4.843  -0.142   2.551
 2311TIP3   OH2 6809   4.268  -0.353   3.925
 2311TIP3    H1 6810   4.257  -0.317   4.015
 2311TIP3    H2 6811   4.255  -0.273   3.869
 2312TIP3   OH2 6812   4.131  -0.440   3.432
 2312TIP3    H1 6813   4.059  -0.495   3.467
 2312TIP3    H2 6814   4.158  -0.491   3.353
 2313TIP3   OH2 6815   4.643  -0.378   3.164
 2313TIP3    H1 6816   4.589  -0.306   3.124
 2313TIP3    H2 6817   4.689  -0.413   3.085
 2314TIP3   OH2 6818   4.812  -0.052   4.211
 2314TIP3    H1 6819   4.795  -0.107   4.291
 2314TIP3    H2 6820   4.908  -0.061   4.204
 2315TIP3   OH2 6821   4.797  -0.351   3.407
 2315TIP3    H1 6822   4.741  -0.321   3.334
 2315TIP3    H2 6823   4.831  -0.434   3.370
 2316TIP3   OH2 6824   4.034  -0.326   4.116
 2316TIP3    H1 6825   4.069  -0.252   4.170
 2316TIP3    H2 6826   4.054  -0.400   4.176
 2317TIP3   OH2 6827   4.774  -0.101   3.827
 2317TIP3    H1 6828   4.833  -0.155   3.769
 2317TIP3    H2 6829   4.779  -0.152   3.909
 2318TIP3   OH2 6830   3.904  -0.586   3.522
 2318TIP3    H1 6831   3.812  -0.571   3.491
 2318TIP3    H2 6832   3.918  -0.678   3.497
 2319TIP3   OH2 6833   4.198  -0.574   3.204
 2319TIP3    H1 6834   4.285  -0.595   3.168
 2319TIP3    H2 6835   4.141  -0.572   3.125
 2320TIP3   OH2 6836   4.021  -0.538   2.994
 2320TIP3    H1 6837   3.947  -0.589   2.957
 2320TIP3    H2 6838   4.071  -0.517   2.913
 2321TIP3   OH2 6839   5.135   1.119   3.920
 2321TIP3    H1 6840   5.133   1.141   3.826
 2321TIP3    H2 6841   5.214   1.168   3.951
 2322TIP3   OH2 6842   4.096   0.229   4.343
 2322TIP3    H1 6843   4.175   0.258   4.392
 2322TIP3    H2 6844   4.031   0.228   4.416
 2323TIP3   OH2 6845   4.562  -0.315   3.603
 2323TIP3    H1 6846   4.623  -0.368   3.550
 2323TIP3    H2 6847   4.563  -0.362   3.688
 2324TIP3   OH2 6848   4.540  -0.431   3.894
 2324TIP3    H1 6849   4.451  -0.395   3.911
 2324TIP3    H2 6850   4.596  -0.376   3.953
 2325TIP3   OH2 6851   4.270  -0.029   2.981
 2325TIP3    H1 6852   4.197  -0.094   2.973
 2325TIP3    H2 6853   4.255   0.004   3.074
 2326TIP3   OH2 6854   5.178   0.208   3.614
 2326TIP3    H1 6855   5.197   0.254   3.530
 2326TIP3    H2 6856   5.089   0.169   3.598
 2327TIP3   OH2 6857   4.687   0.290   3.985
 2327TIP3    H1 6858   4.678   0.263   4.077
 2327TIP3    H2 6859   4.639   0.374   3.984
 2328TIP3   OH2 6860   4.792  -0.494   2.939
 2328TIP3    H1 6861   4.889  -0.485   2.953
 2328TIP3    H2 6862   4.772  -0.413   2.888
 2329TIP3   OH2 6863   3.968  -0.016   3.664
 2329TIP3    H1 6864   3.995  -0.035   3.572
 2329TIP3    H2 6865   4.039  -0.062   3.713
 2330TIP3   OH2 6866   4.416   0.119   2.801
 2330TIP3    H1 6867   4.370   0.205   2.810
 2330TIP3    H2 6868   4.363   0.064   2.862
 2331TIP3   OH2 6869   3.842  -0.088   4.275
 2331TIP3    H1 6870   3.882  -0.093   4.364
 2331TIP3    H2 6871   3.776  -0.158   4.281
 2332TIP3   OH2 6872   4.564   0.037   4.289
 2332TIP3    H1 6873   4.498  -0.023   4.249
 2332TIP3    H2 6874   4.647   0.009   4.246
 2333TIP3   OH2 6875   4.830   0.558   3.871
 2333TIP3    H1 6876   4.734   0.552   3.887
 2333TIP3    H2 6877   4.858   0.606   3.953
 2334TIP3   OH2 6878   5.246  -0.386   2.784
 2334TIP3    H1 6879   5.184  -0.433   2.724
 2334TIP3    H2 6880   5.244  -0.298   2.740
 2335TIP3   OH2 6881   5.467   0.482   3.864
 2335TIP3    H1 6882   5.369   0.476   3.856
 2335TIP3    H2 6883   5.492   0.451   3.774
 2336TIP3   OH2 6884   4.939   0.439   2.692
 2336TIP3    H1 6885   4.919   0.367   2.753
 2336TIP3    H2 6886   4.954   0.392   2.607
 2337TIP3   OH2 6887   4.938   0.070   3.529
 2337TIP3    H1 6888   4.846   0.044   3.546
 2337TIP3    H2 6889   4.973  -0.011   3.487
 2338TIP3   OH2 6890   4.063   0.295   3.285
 2338TIP3    H1 6891   4.067   0.376   3.231
 2338TIP3    H2 6892   3.968   0.280   3.290
 2339TIP3   OH2 6893   3.669  -0.341   2.996
 2339TIP3    H1 6894   3.719  -0.261   3.023
 2339TIP3    H2 6895   3.621  -0.362   3.078
 2340TIP3   OH2 6896   4.206   0.063   3.229
 2340TIP3    H1 6897   4.170   0.151   3.249
 2340TIP3    H2 6898   4.171   0.010   3.303
 2341TIP3   OH2 6899   4.333   0.640   3.754
 2341TIP3    H1 6900   4.374   0.712   3.703
 2341TIP3    H2 6901   4.409   0.606   3.803
 2342TIP3   OH2 6902   3.984   0.535   3.136
 2342TIP3    H1 6903   3.899   0.543   3.182
 2342TIP3    H2 6904   4.016   0.627   3.140
 2343TIP3   OH2 6905   4.714   0.277   3.709
 2343TIP3    H1 6906   4.709   0.272   3.807
 2343TIP3    H2 6907   4.804   0.242   3.695
 2344TIP3   OH2 6908   4.694   0.164   2.595
 2344TIP3    H1 6909   4.749   0.140   2.673
 2344TIP3    H2 6910   4.606   0.141   2.628
 2345TIP3   OH2 6911   4.972   0.810   3.765
 2345TIP3    H1 6912   4.895   0.750   3.759
 2345TIP3    H2 6913   4.954   0.872   3.691
 2346TIP3   OH2 6914   5.037   0.642   2.415
 2346TIP3    H1 6915   5.076   0.714   2.362
 2346TIP3    H2 6916   4.957   0.689   2.447
 2347TIP3   OH2 6917   4.855   0.101   2.811
 2347TIP3    H1 6918   4.845   0.034   2.883
 2347TIP3    H2 6919   4.952   0.099   2.799
 2348TIP3   OH2 6920   3.773   0.504   3.914
 2348TIP3    H1 6921   3.826   0.428   3.943
 2348TIP3    H2 6922   3.802   0.572   3.976
 2349TIP3   OH2 6923   4.061   0.147   2.593
 2349TIP3    H1 6924   4.078   0.055   2.567
 2349TIP3    H2 6925   4.043   0.136   2.689
 2350TIP3   OH2 6926   4.009   0.153   2.866
 2350TIP3    H1 6927   4.079   0.122   2.925
 2350TIP3    H2 6928   4.016   0.251   2.876
 2351TIP3   OH2 6929   3.772  -0.113   3.082
 2351TIP3    H1 6930   3.701  -0.072   3.136
 2351TIP3    H2 6931   3.777  -0.048   3.009
 2352TIP3   OH2 6932   4.272   0.349   2.814
 2352TIP3    H1 6933   4.187   0.380   2.850
 2352TIP3    H2 6934   4.293   0.421   2.753
 2353TIP3   OH2 6935   4.486  -0.594   3.228
 2353TIP3    H1 6936   4.529  -0.508   3.207
 2353TIP3    H2 6937   4.449  -0.577   3.316
 2354TIP3   OH2 6938   4.727  -0.273   4.051
 2354TIP3    H1 6939   4.722  -0.192   4.105
 2354TIP3    H2 6940   4.809  -0.312   4.087
 2355TIP3   OH2 6941   4.014   0.426   2.881
 2355TIP3    H1 6942   3.986   0.497   2.819
 2355TIP3    H2 6943   4.000   0.469   2.968
 2356TIP3   OH2 6944   5.024  -0.171   3.402
 2356TIP3    H1 6945   4.951  -0.231   3.422
 2356TIP3    H2 6946   5.099  -0.216   3.449
 2357TIP3   OH2 6947   3.735   0.068   2.871
 2357TIP3    H1 6948   3.805   0.135   2.878
 2357TIP3    H2 6949   3.780   0.004   2.811
 2358TIP3   OH2 6950   4.991   0.782   3.356
 2358TIP3    H1 6951   4.948   0.829   3.281
 2358TIP3    H2 6952   5.085   0.801   3.335
 2359TIP3   OH2 6953   3.611   0.276   3.269
 2359TIP3    H1 6954   3.531   0.304   3.315
 2359TIP3    H2 6955   3.593   0.310   3.179
 2360TIP3   OH2 6956   3.761   0.808   4.334
 2360TIP3    H1 6957   3.848   0.807   4.381
 2360TIP3    H2 6958   3.741   0.713   4.333
 2361TIP3   OH2 6959   4.248   0.780   4.376
 2361TIP3    H1 6960   4.341   0.755   4.387
 2361TIP3    H2 6961   4.222   0.721   4.302
 2362TIP3   OH2 6962   4.226   0.352   2.507
 2362TIP3    H1 6963   4.172   0.280   2.547
 2362TIP3    H2 6964   4.302   0.301   2.474
 2363TIP3   OH2 6965   4.884   0.684   4.111
 2363TIP3    H1 6966   4.873   0.614   4.180
 2363TIP3    H2 6967   4.961   0.733   4.143
 2364TIP3   OH2 6968   4.663   0.394   2.417
 2364TIP3    H1 6969   4.710   0.332   2.475
 2364TIP3    H2 6970   4.720   0.396   2.338
 2365TIP3   OH2 6971   3.896   0.225   4.531
 2365TIP3    H1 6972   3.913   0.135   4.564
 2365TIP3    H2 6973   3.806   0.216   4.492
 2366TIP3   OH2 6974   3.873  -0.129   2.744
 2366TIP3    H1 6975   3.935  -0.161   2.811
 2366TIP3    H2 6976   3.930  -0.129   2.664
 2367TIP3   OH2 6977   4.505   0.305   4.307
 2367TIP3    H1 6978   4.458   0.312   4.222
 2367TIP3    H2 6979   4.534   0.211   4.308
 2368TIP3   OH2 6980   4.374   0.063   2.533
 2368TIP3    H1 6981   4.381   0.077   2.630
 2368TIP3    H2 6982   4.373  -0.034   2.528
 2369TIP3   OH2 6983   4.974   0.318   3.827
 2369TIP3    H1 6984   5.058   0.364   3.808
 2369TIP3    H2 6985   4.914   0.393   3.844
 2370TIP3   OH2 6986   4.013  -0.069   4.512
 2370TIP3    H1 6987   4.096  -0.119   4.507
 2370TIP3    H2 6988   4.028  -0.024   4.598
 2371TIP3   OH2 6989   4.076  -0.228   2.948
 2371TIP3    H1 6990   4.059  -0.272   3.033
 2371TIP3    H2 6991   4.113  -0.301   2.896
 2372TIP3   OH2 6992   4.346  -0.108   4.178
 2372TIP3    H1 6993   4.259  -0.062   4.174
 2372TIP3    H2 6994   4.389  -0.084   4.093
 2373TIP3   OH2 6995   4.180  -0.430   2.787
 2373TIP3    H1 6996   4.174  -0.490   2.712
 2373TIP3    H2 6997   4.277  -0.412   2.789
 2374TIP3   OH2 6998   4.859   0.248   4.321
 2374TIP3    H1 6999   4.910   0.217   4.244
 2374TIP3    H2 7000   4.865   0.172   4.382
 2375TIP3   OH2 7001   5.003  -0.104   2.452
 2375TIP3    H1 7002   4.982  -0.149   2.368
 2375TIP3    H2 7003   4.972  -0.013   2.428
 2376TIP3   OH2 7004   4.405  -0.365   4.206
 2376TIP3    H1 7005   4.467  -0.379   4.281
 2376TIP3    H2 7006   4.393  -0.267   4.210
 2377TIP3   OH2 7007   4.515  -0.048   3.974
 2377TIP3    H1 7008   4.592  -0.055   3.916
 2377TIP3    H2 7009   4.459   0.017   3.927
 2378TIP3   OH2 7010   5.147  -0.089   4.400
 2378TIP3    H1 7011   5.113  -0.167   4.353
 2378TIP3    H2 7012   5.166  -0.029   4.326
 2379TIP3   OH2 7013   5.205   0.096   4.150
 2379TIP3    H1 7014   5.114   0.121   4.118
 2379TIP3    H2 7015   5.258   0.147   4.084
 2380TIP3   OH2 7016   4.770  -0.212   4.419
 2380TIP3    H1 7017   4.744  -0.225   4.511
 2380TIP3    H2 7018   4.823  -0.293   4.400
 2381TIP3   OH2 7019   3.985   0.626   2.692
 2381TIP3    H1 7020   4.081   0.624   2.675
 2381TIP3    H2 7021   3.956   0.677   2.613
 2382TIP3   OH2 7022   3.471   0.013   2.928
 2382TIP3    H1 7023   3.561   0.038   2.899
 2382TIP3    H2 7024   3.456  -0.071   2.880
 2383TIP3   OH2 7025   3.378   0.622   3.321
 2383TIP3    H1 7026   3.310   0.559   3.289
 2383TIP3    H2 7027   3.423   0.568   3.390
 2384TIP3   OH2 7028   3.514   0.480   3.511
 2384TIP3    H1 7029   3.505   0.402   3.567
 2384TIP3    H2 7030   3.567   0.538   3.569
 2385TIP3   OH2 7031   5.242   0.876   3.309
 2385TIP3    H1 7032   5.271   0.909   3.396
 2385TIP3    H2 7033   5.304   0.919   3.249
 2386TIP3   OH2 7034   5.274   0.895   3.592
 2386TIP3    H1 7035   5.230   0.807   3.587
 2386TIP3    H2 7036   5.349   0.872   3.649
 2387TIP3   OH2 7037   5.321   0.570   4.167
 2387TIP3    H1 7038   5.246   0.579   4.229
 2387TIP3    H2 7039   5.361   0.659   4.170
 2388TIP3   OH2 7040   5.136   0.083   2.785
 2388TIP3    H1 7041   5.205   0.147   2.758
 2388TIP3    H2 7042   5.178   0.043   2.865
 2389TIP3   OH2 7043   5.264  -0.051   2.988
 2389TIP3    H1 7044   5.198  -0.093   3.048
 2389TIP3    H2 7045   5.327  -0.010   3.050
 2390TIP3   OH2 7046   5.317   0.344   3.421
 2390TIP3    H1 7047   5.371   0.280   3.369
 2390TIP3    H2 7048   5.307   0.418   3.358
 2391TIP3   OH2 7049   5.150   0.644   3.616
 2391TIP3    H1 7050   5.078   0.685   3.668
 2391TIP3    H2 7051   5.099   0.595   3.548
 2392TIP3   OH2 7052   5.201  -0.145   2.636
 2392TIP3    H1 7053   5.130  -0.136   2.568
 2392TIP3    H2 7054   5.178  -0.068   2.693
 2393TIP3   OH2 7055   5.078  -0.476   2.587
 2393TIP3    H1 7056   5.044  -0.406   2.529
 2393TIP3    H2 7057   5.040  -0.555   2.547
 2394TIP3   OH2 7058   5.080  -0.194   3.137
 2394TIP3    H1 7059   5.085  -0.290   3.140
 2394TIP3    H2 7060   5.065  -0.173   3.232
 2395TIP3   OH2 7061   5.380   0.232   3.988
 2395TIP3    H1 7062   5.452   0.167   3.972
 2395TIP3    H2 7063   5.402   0.303   3.925
 2396TIP3   OH2 7064   5.560   0.029   4.012
 2396TIP3    H1 7065   5.499  -0.033   4.056
 2396TIP3    H2 7066   5.645  -0.015   4.026
 2397TIP3   OH2 7067   5.061  -0.477   2.985
 2397TIP3    H1 7068   5.107  -0.514   3.063
 2397TIP3    H2 7069   5.134  -0.439   2.933
 2398TIP3   OH2 7070   5.244  -0.278   3.522
 2398TIP3    H1 7071   5.333  -0.268   3.482
 2398TIP3    H2 7072   5.265  -0.250   3.613
 2399TIP3   OH2 7073   5.327  -0.157   3.756
 2399TIP3    H1 7074   5.243  -0.143   3.804
 2399TIP3    H2 7075   5.343  -0.072   3.711
 2400TIP3   OH2 7076   4.827   0.740   2.968
 2400TIP3    H1 7077   4.878   0.723   2.886
 2400TIP3    H2 7078   4.883   0.806   3.012
 2401TIP3   OH2 7079   3.928   0.546   4.355
 2401TIP3    H1 7080   3.837   0.515   4.338
 2401TIP3    H2 7081   3.941   0.521   4.448
 2402TIP3   OH2 7082   4.105   0.574   3.901
 2402TIP3    H1 7083   4.058   0.650   3.863
 2402TIP3    H2 7084   4.192   0.587   3.858
 2403TIP3   OH2 7085   4.554   0.821   4.040
 2403TIP3    H1 7086   4.596   0.822   4.129
 2403TIP3    H2 7087   4.620   0.871   3.988
 2404TIP3   OH2 7088   4.732   0.972   3.896
 2404TIP3    H1 7089   4.803   0.920   3.855
 2404TIP3    H2 7090   4.784   1.029   3.957
 2405TIP3   OH2 7091   3.784   0.833   3.923
 2405TIP3    H1 7092   3.695   0.869   3.901
 2405TIP3    H2 7093   3.792   0.864   4.014
 2406TIP3   OH2 7094   4.020   0.812   3.781
 2406TIP3    H1 7095   3.934   0.825   3.827
 2406TIP3    H2 7096   4.000   0.846   3.692
 2407TIP3   OH2 7097   4.446   0.843   3.579
 2407TIP3    H1 7098   4.378   0.864   3.513
 2407TIP3    H2 7099   4.459   0.929   3.623
 2408TIP3   OH2 7100   4.714   0.783   3.631
 2408TIP3    H1 7101   4.620   0.798   3.610
 2408TIP3    H2 7102   4.756   0.860   3.589
 2409TIP3   OH2 7103   4.924   0.975   3.548
 2409TIP3    H1 7104   4.909   1.059   3.500
 2409TIP3    H2 7105   4.949   0.914   3.475
 2410TIP3   OH2 7106   3.695   0.627   3.670
 2410TIP3    H1 7107   3.722   0.603   3.762
 2410TIP3    H2 7108   3.768   0.584   3.620
 2411TIP3   OH2 7109   3.888   0.498   3.525
 2411TIP3    H1 7110   3.905   0.414   3.572
 2411TIP3    H2 7111   3.979   0.536   3.521
 2412TIP3   OH2 7112   4.153   0.594   3.528
 2412TIP3    H1 7113   4.186   0.504   3.515
 2412TIP3    H2 7114   4.196   0.616   3.613
 2413TIP3   OH2 7115   3.486   0.395   3.063
 2413TIP3    H1 7116   3.402   0.361   3.027
 2413TIP3    H2 7117   3.470   0.491   3.054
 2414TIP3   OH2 7118   4.254   0.590   2.643
 2414TIP3    H1 7119   4.343   0.612   2.608
 2414TIP3    H2 7120   4.233   0.514   2.584
 2415TIP3   OH2 7121   4.972   0.705   2.736
 2415TIP3    H1 7122   4.964   0.608   2.722
 2415TIP3    H2 7123   4.929   0.739   2.654
 2416TIP3   OH2 7124   3.561   0.430   2.701
 2416TIP3    H1 7125   3.557   0.450   2.795
 2416TIP3    H2 7126   3.648   0.384   2.692
 2417TIP3   OH2 7127   5.201   0.851   3.925
 2417TIP3    H1 7128   5.123   0.818   3.877
 2417TIP3    H2 7129   5.182   0.947   3.926
 2418TIP3   OH2 7130   6.465   0.224   3.066
 2418TIP3    H1 7131   6.498   0.195   3.152
 2418TIP3    H2 7132   6.425   0.145   3.029
 2419TIP3   OH2 7133   5.767   0.118   3.430
 2419TIP3    H1 7134   5.798   0.051   3.495
 2419TIP3    H2 7135   5.844   0.175   3.427
 2420TIP3   OH2 7136   5.735   0.528   3.165
 2420TIP3    H1 7137   5.727   0.430   3.168
 2420TIP3    H2 7138   5.832   0.536   3.155
 2421TIP3   OH2 7139   5.438  -0.279   2.955
 2421TIP3    H1 7140   5.393  -0.194   2.970
 2421TIP3    H2 7141   5.372  -0.324   2.898
 2422TIP3   OH2 7142   5.506   0.019   3.114
 2422TIP3    H1 7143   5.556  -0.057   3.152
 2422TIP3    H2 7144   5.564   0.046   3.041
 2423TIP3   OH2 7145   6.354   0.957   2.753
 2423TIP3    H1 7146   6.440   0.912   2.755
 2423TIP3    H2 7147   6.336   0.970   2.847
 2424TIP3   OH2 7148   6.264   0.448   3.117
 2424TIP3    H1 7149   6.302   0.373   3.067
 2424TIP3    H2 7150   6.348   0.491   3.144
 2425TIP3   OH2 7151   6.655  -0.051   3.153
 2425TIP3    H1 7152   6.715  -0.121   3.182
 2425TIP3    H2 7153   6.649  -0.067   3.057
 2426TIP3   OH2 7154   5.652  -0.189   3.220
 2426TIP3    H1 7155   5.725  -0.220   3.276
 2426TIP3    H2 7156   5.664  -0.246   3.141
 2427TIP3   OH2 7157   6.099  -0.013   3.027
 2427TIP3    H1 7158   6.182  -0.006   2.977
 2427TIP3    H2 7159   6.041  -0.067   2.966
 2428TIP3   OH2 7160   7.325  -0.046   3.300
 2428TIP3    H1 7161   7.260   0.026   3.287
 2428TIP3    H2 7162   7.370  -0.021   3.383
 2429TIP3   OH2 7163   6.409   0.491   2.564
 2429TIP3    H1 7164   6.375   0.398   2.562
 2429TIP3    H2 7165   6.324   0.541   2.563
 2430TIP3   OH2 7166   6.116   0.364   3.351
 2430TIP3    H1 7167   6.052   0.427   3.390
 2430TIP3    H2 7168   6.156   0.418   3.280
 2431TIP3   OH2 7169   5.945   0.558   3.445
 2431TIP3    H1 7170   5.918   0.643   3.404
 2431TIP3    H2 7171   5.866   0.544   3.502
 2432TIP3   OH2 7172   5.341   0.251   2.682
 2432TIP3    H1 7173   5.300   0.277   2.597
 2432TIP3    H2 7174   5.370   0.337   2.718
 2433TIP3   OH2 7175   6.782   0.773   2.919
 2433TIP3    H1 7176   6.692   0.759   2.956
 2433TIP3    H2 7177   6.773   0.862   2.879
 2434TIP3   OH2 7178   7.006   0.682   3.265
 2434TIP3    H1 7179   6.996   0.604   3.205
 2434TIP3    H2 7180   6.990   0.756   3.203
 2435TIP3   OH2 7181   6.258  -0.064   2.254
 2435TIP3    H1 7182   6.329  -0.062   2.320
 2435TIP3    H2 7183   6.270  -0.153   2.216
 2436TIP3   OH2 7184   7.201   0.314   3.109
 2436TIP3    H1 7185   7.119   0.368   3.115
 2436TIP3    H2 7186   7.229   0.337   3.018
 2437TIP3   OH2 7187   6.640   0.174   2.507
 2437TIP3    H1 7188   6.572   0.178   2.577
 2437TIP3    H2 7189   6.718   0.136   2.551
 2438TIP3   OH2 7190   6.878   0.203   3.398
 2438TIP3    H1 7191   6.881   0.287   3.449
 2438TIP3    H2 7192   6.796   0.216   3.347
 2439TIP3   OH2 7193   5.860   0.139   2.927
 2439TIP3    H1 7194   5.819   0.098   2.848
 2439TIP3    H2 7195   5.953   0.119   2.914
 2440TIP3   OH2 7196   6.003   0.567   3.057
 2440TIP3    H1 7197   5.976   0.529   2.972
 2440TIP3    H2 7198   6.092   0.529   3.071
 2441TIP3   OH2 7199   6.029   0.111   3.272
 2441TIP3    H1 7200   6.042   0.111   3.176
 2441TIP3    H2 7201   6.059   0.200   3.298
 2442TIP3   OH2 7202   6.536   0.761   3.033
 2442TIP3    H1 7203   6.526   0.842   3.087
 2442TIP3    H2 7204   6.526   0.690   3.099
 2443TIP3   OH2 7205   6.150   0.682   3.588
 2443TIP3    H1 7206   6.092   0.745   3.634
 2443TIP3    H2 7207   6.084   0.629   3.539
 2444TIP3   OH2 7208   6.513   0.025   2.320
 2444TIP3    H1 7209   6.552   0.075   2.396
 2444TIP3    H2 7210   6.447   0.091   2.291
 2445TIP3   OH2 7211   5.894   0.250   3.682
 2445TIP3    H1 7212   5.896   0.333   3.734
 2445TIP3    H2 7213   5.801   0.224   3.693
 2446TIP3   OH2 7214   6.257   0.728   2.591
 2446TIP3    H1 7215   6.252   0.801   2.654
 2446TIP3    H2 7216   6.177   0.744   2.537
 2447TIP3   OH2 7217   5.946   0.852   3.673
 2447TIP3    H1 7218   5.910   0.848   3.582
 2447TIP3    H2 7219   5.866   0.830   3.727
 2448TIP3   OH2 7220   5.739   0.001   2.719
 2448TIP3    H1 7221   5.678   0.042   2.653
 2448TIP3    H2 7222   5.705  -0.089   2.721
 2449TIP3   OH2 7223   6.795   0.628   1.922
 2449TIP3    H1 7224   6.801   0.724   1.900
 2449TIP3    H2 7225   6.872   0.593   1.874
 2450TIP3   OH2 7226   5.524   0.383   3.619
 2450TIP3    H1 7227   5.458   0.360   3.550
 2450TIP3    H2 7228   5.559   0.295   3.645
 2451TIP3   OH2 7229   5.378   0.574   3.254
 2451TIP3    H1 7230   5.474   0.567   3.244
 2451TIP3    H2 7231   5.370   0.654   3.308
 2452TIP3   OH2 7232   7.244   1.023   3.308
 2452TIP3    H1 7233   7.242   0.927   3.323
 2452TIP3    H2 7234   7.160   1.049   3.354
 2453TIP3   OH2 7235   6.349   0.812   3.444
 2453TIP3    H1 7236   6.350   0.905   3.477
 2453TIP3    H2 7237   6.278   0.773   3.499
 2454TIP3   OH2 7238   6.106   0.942   2.396
 2454TIP3    H1 7239   6.063   0.921   2.311
 2454TIP3    H2 7240   6.076   1.032   2.414
 2455TIP3   OH2 7241   5.547   0.791   2.778
 2455TIP3    H1 7242   5.595   0.780   2.863
 2455TIP3    H2 7243   5.488   0.714   2.782
 2456TIP3   OH2 7244   6.308   0.842   2.038
 2456TIP3    H1 7245   6.368   0.774   1.999
 2456TIP3    H2 7246   6.344   0.850   2.128
 2457TIP3   OH2 7247   6.358   0.890   2.308
 2457TIP3    H1 7248   6.268   0.901   2.347
 2457TIP3    H2 7249   6.408   0.857   2.383
 2458TIP3   OH2 7250   7.140   0.164   3.577
 2458TIP3    H1 7251   7.056   0.178   3.531
 2458TIP3    H2 7252   7.147   0.069   3.587
 2459TIP3   OH2 7253   5.729   0.565   3.612
 2459TIP3    H1 7254   5.779   0.547   3.694
 2459TIP3    H2 7255   5.656   0.500   3.617
 2460TIP3   OH2 7256   6.796   0.024   3.591
 2460TIP3    H1 7257   6.862  -0.041   3.617
 2460TIP3    H2 7258   6.836   0.074   3.518
 2461TIP3   OH2 7259   5.948  -0.209   2.932
 2461TIP3    H1 7260   5.860  -0.246   2.954
 2461TIP3    H2 7261   5.961  -0.247   2.842
 2462TIP3   OH2 7262   6.421  -0.100   2.664
 2462TIP3    H1 7263   6.378  -0.020   2.625
 2462TIP3    H2 7264   6.470  -0.136   2.586
 2463TIP3   OH2 7265   6.611   0.206   3.706
 2463TIP3    H1 7266   6.604   0.144   3.783
 2463TIP3    H2 7267   6.705   0.194   3.683
 2464TIP3   OH2 7268   6.586  -0.096   2.889
 2464TIP3    H1 7269   6.530  -0.078   2.810
 2464TIP3    H2 7270   6.631  -0.177   2.860
 2465TIP3   OH2 7271   5.857  -0.057   3.622
 2465TIP3    H1 7272   5.907  -0.008   3.689
 2465TIP3    H2 7273   5.845  -0.143   3.663
 2466TIP3   OH2 7274   6.595   0.154   3.318
 2466TIP3    H1 7275   6.628   0.079   3.263
 2466TIP3    H2 7276   6.578   0.110   3.402
 2467TIP3   OH2 7277   5.703  -0.335   2.993
 2467TIP3    H1 7278   5.609  -0.320   2.970
 2467TIP3    H2 7279   5.714  -0.429   2.972
 2468TIP3   OH2 7280   5.990  -0.307   2.684
 2468TIP3    H1 7281   6.077  -0.331   2.648
 2468TIP3    H2 7282   5.931  -0.319   2.607
 2469TIP3   OH2 7283   5.810  -0.315   2.466
 2469TIP3    H1 7284   5.732  -0.344   2.418
 2469TIP3    H2 7285   5.856  -0.260   2.400
 2470TIP3   OH2 7286   6.931   1.376   3.407
 2470TIP3    H1 7287   6.930   1.399   3.312
 2470TIP3    H2 7288   7.008   1.426   3.439
 2471TIP3   OH2 7289   5.888   0.486   3.831
 2471TIP3    H1 7290   5.968   0.518   3.877
 2471TIP3    H2 7291   5.824   0.487   3.906
 2472TIP3   OH2 7292   6.355  -0.094   3.097
 2472TIP3    H1 7293   6.420  -0.109   3.025
 2472TIP3    H2 7294   6.416  -0.090   3.173
 2473TIP3   OH2 7295   6.971   0.464   3.102
 2473TIP3    H1 7296   6.994   0.511   3.019
 2473TIP3    H2 7297   6.885   0.421   3.079
 2474TIP3   OH2 7298   6.470   0.546   3.464
 2474TIP3    H1 7299   6.490   0.521   3.555
 2474TIP3    H2 7300   6.429   0.634   3.475
 2475TIP3   OH2 7301   6.582  -0.203   2.464
 2475TIP3    H1 7302   6.679  -0.215   2.475
 2475TIP3    H2 7303   6.577  -0.129   2.401
 2476TIP3   OH2 7304   5.762   0.252   3.154
 2476TIP3    H1 7305   5.792   0.218   3.067
 2476TIP3    H2 7306   5.788   0.181   3.214
 2477TIP3   OH2 7307   6.211   0.371   2.281
 2477TIP3    H1 7308   6.164   0.453   2.305
 2477TIP3    H2 7309   6.207   0.318   2.363
 2478TIP3   OH2 7310   5.636   0.175   3.762
 2478TIP3    H1 7311   5.661   0.151   3.853
 2478TIP3    H2 7312   5.571   0.106   3.739
 2479TIP3   OH2 7313   6.362   0.286   3.791
 2479TIP3    H1 7314   6.292   0.237   3.742
 2479TIP3    H2 7315   6.442   0.263   3.738
 2480TIP3   OH2 7316   6.628   0.806   3.359
 2480TIP3    H1 7317   6.532   0.804   3.374
 2480TIP3    H2 7318   6.657   0.856   3.438
 2481TIP3   OH2 7319   7.256   0.732   3.354
 2481TIP3    H1 7320   7.158   0.727   3.346
 2481TIP3    H2 7321   7.281   0.703   3.263
 2482TIP3   OH2 7322   6.727   0.683   2.183
 2482TIP3    H1 7323   6.731   0.595   2.222
 2482TIP3    H2 7324   6.757   0.664   2.092
 2483TIP3   OH2 7325   6.739   0.318   3.036
 2483TIP3    H1 7326   6.644   0.298   3.038
 2483TIP3    H2 7327   6.773   0.245   2.981
 2484TIP3   OH2 7328   5.856   0.563   2.790
 2484TIP3    H1 7329   5.858   0.635   2.724
 2484TIP3    H2 7330   5.767   0.528   2.779
 2485TIP3   OH2 7331   5.429  -0.149   2.476
 2485TIP3    H1 7332   5.475  -0.064   2.492
 2485TIP3    H2 7333   5.350  -0.138   2.533
 2486TIP3   OH2 7334   6.129   0.896   3.242
 2486TIP3    H1 7335   6.169   0.969   3.191
 2486TIP3    H2 7336   6.206   0.863   3.292
 2487TIP3   OH2 7337   5.781   0.791   2.622
 2487TIP3    H1 7338   5.696   0.798   2.668
 2487TIP3    H2 7339   5.811   0.885   2.624
 2488TIP3   OH2 7340   6.522   0.530   3.196
 2488TIP3    H1 7341   6.513   0.531   3.294
 2488TIP3    H2 7342   6.604   0.480   3.185
 2489TIP3   OH2 7343   6.455   0.419   2.108
 2489TIP3    H1 7344   6.515   0.400   2.183
 2489TIP3    H2 7345   6.368   0.405   2.150
 2490TIP3   OH2 7346   6.768   1.066   3.250
 2490TIP3    H1 7347   6.690   1.008   3.242
 2490TIP3    H2 7348   6.752   1.130   3.177
 2491TIP3   OH2 7349   6.830   0.902   1.898
 2491TIP3    H1 7350   6.869   0.979   1.852
 2491TIP3    H2 7351   6.749   0.946   1.932
 2492TIP3   OH2 7352   6.644   0.364   2.302
 2492TIP3    H1 7353   6.637   0.295   2.371
 2492TIP3    H2 7354   6.740   0.355   2.281
 2493TIP3   OH2 7355   5.568   0.761   3.401
 2493TIP3    H1 7356   5.619   0.683   3.426
 2493TIP3    H2 7357   5.600   0.826   3.465
 2494TIP3   OH2 7358   5.860   0.404   2.081
 2494TIP3    H1 7359   5.868   0.313   2.048
 2494TIP3    H2 7360   5.840   0.390   2.175
 2495TIP3   OH2 7361   5.803   0.408   2.352
 2495TIP3    H1 7362   5.866   0.376   2.419
 2495TIP3    H2 7363   5.811   0.506   2.360
 2496TIP3   OH2 7364   5.538   0.100   2.556
 2496TIP3    H1 7365   5.474   0.149   2.612
 2496TIP3    H2 7366   5.560   0.167   2.489
 2497TIP3   OH2 7367   6.076   0.612   2.316
 2497TIP3    H1 7368   5.984   0.638   2.339
 2497TIP3    H2 7369   6.089   0.664   2.235
 2498TIP3   OH2 7370   6.280  -0.333   2.704
 2498TIP3    H1 7371   6.321  -0.246   2.686
 2498TIP3    H2 7372   6.252  -0.325   2.796
 2499TIP3   OH2 7373   6.522  -0.022   3.560
 2499TIP3    H1 7374   6.540   0.060   3.609
 2499TIP3    H2 7375   6.611  -0.059   3.552
 2500TIP3   OH2 7376   5.814   0.682   2.367
 2500TIP3    H1 7377   5.783   0.750   2.303
 2500TIP3    H2 7378   5.796   0.727   2.453
 2501TIP3   OH2 7379   6.814   0.087   2.892
 2501TIP3    H1 7380   6.748   0.018   2.903
 2501TIP3    H2 7381   6.893   0.047   2.937
 2502TIP3   OH2 7382   5.530   0.317   2.362
 2502TIP3    H1 7383   5.594   0.389   2.368
 2502TIP3    H2 7384   5.577   0.260   2.298
 2503TIP3   OH2 7385   5.455  -0.431   2.497
 2503TIP3    H1 7386   5.488  -0.339   2.493
 2503TIP3    H2 7387   5.362  -0.414   2.515
 2504TIP3   OH2 7388   6.785   1.037   2.840
 2504TIP3    H1 7389   6.746   1.086   2.764
 2504TIP3    H2 7390   6.880   1.054   2.821
 2505TIP3   OH2 7391   5.406   0.529   2.754
 2505TIP3    H1 7392   5.328   0.560   2.801
 2505TIP3    H2 7393   5.388   0.566   2.665
 2506TIP3   OH2 7394   5.557   1.065   3.821
 2506TIP3    H1 7395   5.644   1.063   3.868
 2506TIP3    H2 7396   5.536   0.970   3.819
 2507TIP3   OH2 7397   6.042   1.036   3.864
 2507TIP3    H1 7398   6.136   1.017   3.875
 2507TIP3    H2 7399   6.019   0.977   3.789
 2508TIP3   OH2 7400   6.019   0.614   2.007
 2508TIP3    H1 7401   5.967   0.535   2.034
 2508TIP3    H2 7402   6.096   0.573   1.962
 2509TIP3   OH2 7403   6.684   0.936   3.595
 2509TIP3    H1 7404   6.671   0.868   3.665
 2509TIP3    H2 7405   6.759   0.988   3.629
 2510TIP3   OH2 7406   6.464   0.657   1.913
 2510TIP3    H1 7407   6.521   0.598   1.963
 2510TIP3    H2 7408   6.510   0.662   1.826
 2511TIP3   OH2 7409   5.692   0.472   4.024
 2511TIP3    H1 7410   5.708   0.375   4.024
 2511TIP3    H2 7411   5.605   0.477   3.978
 2512TIP3   OH2 7412   5.666   0.126   2.219
 2512TIP3    H1 7413   5.721   0.091   2.293
 2512TIP3    H2 7414   5.733   0.125   2.147
 2513TIP3   OH2 7415   6.297   0.557   3.795
 2513TIP3    H1 7416   6.256   0.572   3.708
 2513TIP3    H2 7417   6.329   0.464   3.788
 2514TIP3   OH2 7418   6.166   0.315   2.018
 2514TIP3    H1 7419   6.169   0.327   2.115
 2514TIP3    H2 7420   6.149   0.220   2.008
 2515TIP3   OH2 7421   6.790   0.564   3.397
 2515TIP3    H1 7422   6.863   0.612   3.355
 2515TIP3    H2 7423   6.718   0.629   3.389
 2516TIP3   OH2 7424   5.809   0.201   4.005
 2516TIP3    H1 7425   5.884   0.145   3.983
 2516TIP3    H2 7426   5.835   0.234   4.094
 2517TIP3   OH2 7427   5.832   0.025   2.424
 2517TIP3    H1 7428   5.857   0.010   2.517
 2517TIP3    H2 7429   5.892  -0.037   2.378
 2518TIP3   OH2 7430   6.151   0.158   3.671
 2518TIP3    H1 7431   6.058   0.192   3.669
 2518TIP3    H2 7432   6.177   0.164   3.577
 2519TIP3   OH2 7433   5.978  -0.165   2.291
 2519TIP3    H1 7434   5.968  -0.245   2.235
 2519TIP3    H2 7435   6.058  -0.124   2.254
 2520TIP3   OH2 7436   6.661   0.501   3.797
 2520TIP3    H1 7437   6.746   0.489   3.751
 2520TIP3    H2 7438   6.666   0.433   3.865
 2521TIP3   OH2 7439   6.186  -0.106   3.701
 2521TIP3    H1 7440   6.271  -0.117   3.747
 2521TIP3    H2 7441   6.182  -0.009   3.688
 2522TIP3   OH2 7442   6.318   0.209   3.452
 2522TIP3    H1 7443   6.396   0.224   3.397
 2522TIP3    H2 7444   6.254   0.275   3.418
 2523TIP3   OH2 7445   6.921   0.417   3.582
 2523TIP3    H1 7446   6.864   0.475   3.526
 2523TIP3    H2 7447   7.009   0.440   3.547
 2524TIP3   OH2 7448   6.128   0.014   4.015
 2524TIP3    H1 7449   6.051  -0.046   4.020
 2524TIP3    H2 7450   6.188  -0.039   3.962
 2525TIP3   OH2 7451   6.586   0.029   3.902
 2525TIP3    H1 7452   6.566   0.005   3.994
 2525TIP3    H2 7453   6.637  -0.049   3.871
 2526TIP3   OH2 7454   5.782   0.884   2.181
 2526TIP3    H1 7455   5.877   0.883   2.162
 2526TIP3    H2 7456   5.750   0.931   2.102
 2527TIP3   OH2 7457   5.263   0.265   2.400
 2527TIP3    H1 7458   5.357   0.288   2.385
 2527TIP3    H2 7459   5.258   0.176   2.359
 2528TIP3   OH2 7460   5.174   0.879   2.810
 2528TIP3    H1 7461   5.108   0.816   2.776
 2528TIP3    H2 7462   5.220   0.823   2.877
 2529TIP3   OH2 7463   5.311   0.734   2.998
 2529TIP3    H1 7464   5.302   0.657   3.055
 2529TIP3    H2 7465   5.363   0.794   3.056
 2530TIP3   OH2 7466   7.037   1.129   2.798
 2530TIP3    H1 7467   7.067   1.166   2.883
 2530TIP3    H2 7468   7.094   1.176   2.735
 2531TIP3   OH2 7469   7.070   1.152   3.080
 2531TIP3    H1 7470   7.028   1.063   3.074
 2531TIP3    H2 7471   7.145   1.130   3.137
 2532TIP3   OH2 7472   7.115   0.827   3.651
 2532TIP3    H1 7473   7.042   0.834   3.716
 2532TIP3    H2 7474   7.156   0.916   3.657
 2533TIP3   OH2 7475   6.913   0.349   2.285
 2533TIP3    H1 7476   6.977   0.416   2.252
 2533TIP3    H2 7477   6.970   0.295   2.342
 2534TIP3   OH2 7478   7.055   0.204   2.478
 2534TIP3    H1 7479   6.992   0.160   2.538
 2534TIP3    H2 7480   7.124   0.237   2.539
 2535TIP3   OH2 7481   7.109   0.597   2.906
 2535TIP3    H1 7482   7.167   0.535   2.856
 2535TIP3    H2 7483   7.107   0.675   2.846
 2536TIP3   OH2 7484   6.947   0.899   3.104
 2536TIP3    H1 7485   6.876   0.941   3.156
 2536TIP3    H2 7486   6.897   0.851   3.035
 2537TIP3   OH2 7487   6.866   0.060   2.624
 2537TIP3    H1 7488   6.883  -0.035   2.614
 2537TIP3    H2 7489   6.860   0.071   2.721
 2538TIP3   OH2 7490   5.502   0.139   3.366
 2538TIP3    H1 7491   5.501   0.109   3.273
 2538TIP3    H2 7492   5.599   0.140   3.384
 2539TIP3   OH2 7493   7.166   0.484   3.479
 2539TIP3    H1 7494   7.238   0.419   3.468
 2539TIP3    H2 7495   7.193   0.556   3.420
 2540TIP3   OH2 7496   7.359   0.291   3.492
 2540TIP3    H1 7497   7.284   0.242   3.534
 2540TIP3    H2 7498   7.434   0.241   3.526
 2541TIP3   OH2 7499   7.033  -0.011   3.016
 2541TIP3    H1 7500   7.123  -0.003   2.976
 2541TIP3    H2 7501   7.055   0.005   3.109
 2542TIP3   OH2 7502   7.097   0.105   3.260
 2542TIP3    H1 7503   7.017   0.149   3.295
 2542TIP3    H2 7504   7.135   0.177   3.205
 2543TIP3   OH2 7505   5.494  -0.206   3.446
 2543TIP3    H1 7506   5.539  -0.207   3.359
 2543TIP3    H2 7507   5.516  -0.118   3.479
 2544TIP3   OH2 7508   6.630   0.957   2.470
 2544TIP3    H1 7509   6.675   0.960   2.383
 2544TIP3    H2 7510   6.664   1.039   2.510
 2545TIP3   OH2 7511   5.726   0.800   3.842
 2545TIP3    H1 7512   5.634   0.771   3.824
 2545TIP3    H2 7513   5.733   0.783   3.937
 2546TIP3   OH2 7514   5.902   0.830   3.389
 2546TIP3    H1 7515   5.853   0.906   3.350
 2546TIP3    H2 7516   5.988   0.845   3.345
 2547TIP3   OH2 7517   6.350   1.078   3.525
 2547TIP3    H1 7518   6.391   1.078   3.615
 2547TIP3    H2 7519   6.417   1.128   3.474
 2548TIP3   OH2 7520   6.530   1.227   3.382
 2548TIP3    H1 7521   6.604   1.176   3.345
 2548TIP3    H2 7522   6.579   1.286   3.444
 2549TIP3   OH2 7523   5.581   1.092   3.410
 2549TIP3    H1 7524   5.493   1.126   3.386
 2549TIP3    H2 7525   5.586   1.119   3.502
 2550TIP3   OH2 7526   5.817   1.069   3.268
 2550TIP3    H1 7527   5.731   1.082   3.314
 2550TIP3    H2 7528   5.796   1.102   3.179
 2551TIP3   OH2 7529   6.246   1.101   3.059
 2551TIP3    H1 7530   6.169   1.122   3.002
 2551TIP3    H2 7531   6.257   1.186   3.106
 2552TIP3   OH2 7532   6.511   1.036   3.110
 2552TIP3    H1 7533   6.417   1.056   3.096
 2552TIP3    H2 7534   6.553   1.118   3.078
 2553TIP3   OH2 7535   6.719   1.231   3.034
 2553TIP3    H1 7536   6.704   1.317   2.988
 2553TIP3    H2 7537   6.744   1.173   2.959
 2554TIP3   OH2 7538   5.491   0.885   3.158
 2554TIP3    H1 7539   5.518   0.859   3.249
 2554TIP3    H2 7540   5.562   0.841   3.107
 2555TIP3   OH2 7541   5.683   0.757   3.013
 2555TIP3    H1 7542   5.700   0.671   3.058
 2555TIP3    H2 7543   5.774   0.792   3.005
 2556TIP3   OH2 7544   5.952   0.852   3.012
 2556TIP3    H1 7545   5.978   0.759   3.000
 2556TIP3    H2 7546   5.992   0.870   3.099
 2557TIP3   OH2 7547   5.279   0.653   2.550
 2557TIP3    H1 7548   5.195   0.620   2.514
 2557TIP3    H2 7549   5.267   0.748   2.534
 2558TIP3   OH2 7550   6.050   0.852   2.131
 2558TIP3    H1 7551   6.138   0.872   2.093
 2558TIP3    H2 7552   6.027   0.775   2.075
 2559TIP3   OH2 7553   6.764   0.958   2.224
 2559TIP3    H1 7554   6.753   0.862   2.206
 2559TIP3    H2 7555   6.722   0.998   2.145
 2560TIP3   OH2 7556   5.356   0.683   2.188
 2560TIP3    H1 7557   5.356   0.709   2.281
 2560TIP3    H2 7558   5.444   0.641   2.177
 2561TIP3   OH2 7559   6.999   1.108   3.410
 2561TIP3    H1 7560   6.919   1.075   3.364
 2561TIP3    H2 7561   6.978   1.203   3.413
 2562TIP3   OH2 7562   8.224   0.478   2.552
 2562TIP3    H1 7563   8.282   0.455   2.627
 2562TIP3    H2 7564   8.210   0.394   2.507
 2563TIP3   OH2 7565   7.562   0.376   2.920
 2563TIP3    H1 7566   7.595   0.310   2.984
 2563TIP3    H2 7567   7.632   0.442   2.925
 2564TIP3   OH2 7568   7.532   0.785   2.653
 2564TIP3    H1 7569   7.522   0.687   2.658
 2564TIP3    H2 7570   7.628   0.792   2.639
 2565TIP3   OH2 7571   7.299   0.276   2.602
 2565TIP3    H1 7572   7.360   0.213   2.647
 2565TIP3    H2 7573   7.351   0.301   2.525
 2566TIP3   OH2 7574   8.150   1.249   2.254
 2566TIP3    H1 7575   8.215   1.181   2.227
 2566TIP3    H2 7576   8.125   1.217   2.342
 2567TIP3   OH2 7577   8.059   0.704   2.607
 2567TIP3    H1 7578   8.099   0.627   2.562
 2567TIP3    H2 7579   8.142   0.752   2.630
 2568TIP3   OH2 7580   7.461   0.099   2.729
 2568TIP3    H1 7581   7.540   0.067   2.778
 2568TIP3    H2 7582   7.462   0.034   2.656
 2569TIP3   OH2 7583   7.915   0.623   2.841
 2569TIP3    H1 7584   7.848   0.686   2.877
 2569TIP3    H2 7585   7.951   0.674   2.766
 2570TIP3   OH2 7586   7.684  -0.023   2.806
 2570TIP3    H1 7587   7.754   0.026   2.853
 2570TIP3    H2 7588   7.728  -0.104   2.780
 2571TIP3   OH2 7589   7.741   0.815   2.932
 2571TIP3    H1 7590   7.714   0.899   2.890
 2571TIP3    H2 7591   7.662   0.800   2.989
 2572TIP3   OH2 7592   7.085   0.546   2.189
 2572TIP3    H1 7593   7.132   0.512   2.111
 2572TIP3    H2 7594   7.152   0.607   2.225
 2573TIP3   OH2 7595   8.569   1.021   2.408
 2573TIP3    H1 7596   8.479   1.010   2.446
 2573TIP3    H2 7597   8.562   1.111   2.371
 2574TIP3   OH2 7598   8.340   1.091   2.145
 2574TIP3    H1 7599   8.345   0.999   2.114
 2574TIP3    H2 7600   8.376   1.143   2.069
 2575TIP3   OH2 7601   8.675   0.462   2.871
 2575TIP3    H1 7602   8.678   0.529   2.940
 2575TIP3    H2 7603   8.585   0.471   2.837
 2576TIP3   OH2 7604   7.670   0.433   2.414
 2576TIP3    H1 7605   7.618   0.420   2.332
 2576TIP3    H2 7606   7.729   0.357   2.408
 2577TIP3   OH2 7607   7.798   0.818   2.545
 2577TIP3    H1 7608   7.777   0.782   2.458
 2577TIP3    H2 7609   7.889   0.786   2.559
 2578TIP3   OH2 7610   7.821   0.380   2.755
 2578TIP3    H1 7611   7.841   0.379   2.661
 2578TIP3    H2 7612   7.852   0.469   2.783
 2579TIP3   OH2 7613   8.329   1.019   2.527
 2579TIP3    H1 7614   8.312   1.100   2.579
 2579TIP3    H2 7615   8.313   0.947   2.591
 2580TIP3   OH2 7616   7.946   0.939   3.074
 2580TIP3    H1 7617   7.887   1.002   3.120
 2580TIP3    H2 7618   7.879   0.886   3.025
 2581TIP3   OH2 7619   7.689   0.508   3.165
 2581TIP3    H1 7620   7.694   0.589   3.220
 2581TIP3    H2 7621   7.597   0.480   3.182
 2582TIP3   OH2 7622   7.967   0.995   2.133
 2582TIP3    H1 7623   8.061   1.010   2.123
 2582TIP3    H2 7624   7.928   1.044   2.060
 2583TIP3   OH2 7625   7.742   1.110   3.161
 2583TIP3    H1 7626   7.707   1.105   3.070
 2583TIP3    H2 7627   7.663   1.087   3.215
 2584TIP3   OH2 7628   7.320   0.637   3.108
 2584TIP3    H1 7629   7.257   0.613   3.038
 2584TIP3    H2 7630   7.358   0.550   3.134
 2585TIP3   OH2 7631   7.174   0.827   2.745
 2585TIP3    H1 7632   7.269   0.824   2.731
 2585TIP3    H2 7633   7.164   0.910   2.795
 2586TIP3   OH2 7634   8.147   1.067   2.931
 2586TIP3    H1 7635   8.146   1.160   2.963
 2586TIP3    H2 7636   8.074   1.029   2.985
 2587TIP3   OH2 7637   7.904   1.200   1.881
 2587TIP3    H1 7638   7.832   1.168   1.824
 2587TIP3    H2 7639   7.874   1.289   1.908
 2588TIP3   OH2 7640   7.343   1.050   2.265
 2588TIP3    H1 7641   7.391   1.038   2.350
 2588TIP3    H2 7642   7.287   0.970   2.266
 2589TIP3   OH2 7643   8.160   1.158   1.818
 2589TIP3    H1 7644   8.066   1.178   1.838
 2589TIP3    H2 7645   8.153   1.063   1.799
 2590TIP3   OH2 7646   7.526   0.821   3.099
 2590TIP3    H1 7647   7.576   0.803   3.181
 2590TIP3    H2 7648   7.452   0.757   3.106
 2591TIP3   OH2 7649   7.861   0.156   2.906
 2591TIP3    H1 7650   7.809   0.178   2.985
 2591TIP3    H2 7651   7.845   0.235   2.849
 2592TIP3   OH2 7652   8.421   0.446   3.184
 2592TIP3    H1 7653   8.397   0.397   3.266
 2592TIP3    H2 7654   8.512   0.470   3.205
 2593TIP3   OH2 7655   7.672   0.200   3.106
 2593TIP3    H1 7656   7.698   0.247   3.186
 2593TIP3    H2 7657   7.645   0.114   3.140
 2594TIP3   OH2 7658   8.389   0.403   2.792
 2594TIP3    H1 7659   8.439   0.326   2.764
 2594TIP3    H2 7660   8.360   0.372   2.881
 2595TIP3   OH2 7661   8.721   1.636   2.891
 2595TIP3    H1 7662   8.724   1.656   2.796
 2595TIP3    H2 7663   8.791   1.695   2.925
 2596TIP3   OH2 7664   7.686   0.743   3.318
 2596TIP3    H1 7665   7.766   0.773   3.366
 2596TIP3    H2 7666   7.622   0.741   3.391
 2597TIP3   OH2 7667   8.126   0.074   2.892
 2597TIP3    H1 7668   8.038   0.116   2.886
 2597TIP3    H2 7669   8.181   0.144   2.930
 2598TIP3   OH2 7670   8.277   0.807   2.955
 2598TIP3    H1 7671   8.278   0.776   3.046
 2598TIP3    H2 7672   8.226   0.890   2.961
 2599TIP3   OH2 7673   7.551   0.508   2.649
 2599TIP3    H1 7674   7.590   0.485   2.562
 2599TIP3    H2 7675   7.582   0.436   2.705
 2600TIP3   OH2 7676   7.434   0.427   3.246
 2600TIP3    H1 7677   7.457   0.411   3.340
 2600TIP3    H2 7678   7.366   0.359   3.231
 2601TIP3   OH2 7679   8.165   0.544   3.269
 2601TIP3    H1 7680   8.091   0.495   3.229
 2601TIP3    H2 7681   8.240   0.518   3.212
 2602TIP3   OH2 7682   8.426   1.060   2.848
 2602TIP3    H1 7683   8.329   1.057   2.861
 2602TIP3    H2 7684   8.453   1.113   2.926
 2603TIP3   OH2 7685   7.656   0.807   2.263
 2603TIP3    H1 7686   7.668   0.885   2.205
 2603TIP3    H2 7687   7.561   0.792   2.254
 2604TIP3   OH2 7688   7.835   0.585   2.244
 2604TIP3    H1 7689   7.792   0.670   2.222
 2604TIP3    H2 7690   7.767   0.544   2.300
 2605TIP3   OH2 7691   7.925   1.153   2.728
 2605TIP3    H1 7692   7.964   1.225   2.676
 2605TIP3    H2 7693   8.003   1.120   2.777
 2606TIP3   OH2 7694   7.581   1.048   2.112
 2606TIP3    H1 7695   7.493   1.052   2.154
 2606TIP3    H2 7696   7.608   1.142   2.115
 2607TIP3   OH2 7697   8.315   0.789   2.686
 2607TIP3    H1 7698   8.306   0.790   2.784
 2607TIP3    H2 7699   8.394   0.735   2.673
 2608TIP3   OH2 7700   8.554   1.319   2.736
 2608TIP3    H1 7701   8.473   1.267   2.722
 2608TIP3    H2 7702   8.546   1.385   2.664
 2609TIP3   OH2 7703   7.365   1.018   2.887
 2609TIP3    H1 7704   7.416   0.940   2.915
 2609TIP3    H2 7705   7.394   1.083   2.952
 2610TIP3   OH2 7706   8.334   0.246   3.014
 2610TIP3    H1 7707   8.350   0.316   3.080
 2610TIP3    H2 7708   8.381   0.171   3.052
 2611TIP3   OH2 7709   7.557   0.946   1.847
 2611TIP3    H1 7710   7.561   1.029   1.798
 2611TIP3    H2 7711   7.580   0.972   1.938
 2612TIP3   OH2 7712   8.603   1.301   2.337
 2612TIP3    H1 7713   8.556   1.346   2.263
 2612TIP3    H2 7714   8.680   1.261   2.291
 2613TIP3   OH2 7715   7.211   0.802   2.245
 2613TIP3    H1 7716   7.124   0.816   2.284
 2613TIP3    H2 7717   7.192   0.825   2.151
 2614TIP3   OH2 7718   7.354   1.321   3.308
 2614TIP3    H1 7719   7.440   1.319   3.354
 2614TIP3    H2 7720   7.332   1.226   3.306
 2615TIP3   OH2 7721   7.841   1.293   3.350
 2615TIP3    H1 7722   7.934   1.269   3.359
 2615TIP3    H2 7723   7.814   1.234   3.277
 2616TIP3   OH2 7724   8.480   1.193   3.084
 2616TIP3    H1 7725   8.466   1.124   3.152
 2616TIP3    H2 7726   8.552   1.246   3.122
 2617TIP3   OH2 7727   7.487   0.730   3.508
 2617TIP3    H1 7728   7.504   0.634   3.514
 2617TIP3    H2 7729   7.398   0.732   3.466
 2618TIP3   OH2 7730   8.097   0.816   3.280
 2618TIP3    H1 7731   8.050   0.826   3.196
 2618TIP3    H2 7732   8.127   0.722   3.278
 2619TIP3   OH2 7733   8.593   0.823   2.882
 2619TIP3    H1 7734   8.640   0.875   2.816
 2619TIP3    H2 7735   8.510   0.873   2.888
 2620TIP3   OH2 7736   7.607   0.461   3.489
 2620TIP3    H1 7737   7.678   0.398   3.473
 2620TIP3    H2 7738   7.630   0.492   3.579
 2621TIP3   OH2 7739   7.947   0.417   3.158
 2621TIP3    H1 7740   7.855   0.450   3.157
 2621TIP3    H2 7741   7.974   0.423   3.065
 2622TIP3   OH2 7742   8.455   0.753   3.288
 2622TIP3    H1 7743   8.538   0.731   3.245
 2622TIP3    H2 7744   8.452   0.687   3.360
 2623TIP3   OH2 7745   7.977   0.152   3.196
 2623TIP3    H1 7746   8.053   0.136   3.255
 2623TIP3    H2 7747   7.978   0.251   3.188
 2624TIP3   OH2 7748   8.118   0.471   2.942
 2624TIP3    H1 7749   8.184   0.475   2.872
 2624TIP3    H2 7750   8.050   0.533   2.908
 2625TIP3   OH2 7751   8.677   0.433   3.335
 2625TIP3    H1 7752   8.721   0.348   3.341
 2625TIP3    H2 7753   8.749   0.495   3.317
 2626TIP3   OH2 7754   8.733   0.687   3.069
 2626TIP3    H1 7755   8.668   0.736   3.014
 2626TIP3    H2 7756   8.812   0.701   3.015
 2627TIP3   OH2 7757   7.923   0.271   3.500
 2627TIP3    H1 7758   7.845   0.212   3.508
 2627TIP3    H2 7759   7.984   0.211   3.456
 2628TIP3   OH2 7760   8.371   0.284   3.388
 2628TIP3    H1 7761   8.354   0.273   3.483
 2628TIP3    H2 7762   8.427   0.205   3.367
 2629TIP3   OH2 7763   7.585   1.159   1.670
 2629TIP3    H1 7764   7.648   1.231   1.675
 2629TIP3    H2 7765   7.528   1.193   1.600
 2630TIP3   OH2 7766   6.972   1.133   2.294
 2630TIP3    H1 7767   6.902   1.073   2.262
 2630TIP3    H2 7768   7.015   1.078   2.363
 2631TIP3   OH2 7769   7.105   0.992   2.488
 2631TIP3    H1 7770   7.103   0.913   2.543
 2631TIP3    H2 7771   7.158   1.052   2.543
 2632TIP3   OH2 7772   8.723   1.118   2.621
 2632TIP3    H1 7773   8.655   1.177   2.659
 2632TIP3    H2 7774   8.674   1.074   2.549
 2633TIP3   OH2 7775   7.297   0.396   2.855
 2633TIP3    H1 7776   7.294   0.367   2.762
 2633TIP3    H2 7777   7.394   0.396   2.871
 2634TIP3   OH2 7778   7.285   0.053   2.936
 2634TIP3    H1 7779   7.342   0.047   2.857
 2634TIP3    H2 7780   7.311   0.140   2.969
 2635TIP3   OH2 7781   8.454   1.236   1.940
 2635TIP3    H1 7782   8.455   1.243   1.843
 2635TIP3    H2 7783   8.454   1.330   1.966
 2636TIP3   OH2 7784   7.522   1.057   3.330
 2636TIP3    H1 7785   7.431   1.028   3.310
 2636TIP3    H2 7786   7.530   1.036   3.424
 2637TIP3   OH2 7787   7.698   1.087   2.877
 2637TIP3    H1 7788   7.648   1.161   2.837
 2637TIP3    H2 7789   7.784   1.102   2.831
 2638TIP3   OH2 7790   8.146   1.334   3.013
 2638TIP3    H1 7791   8.187   1.336   3.102
 2638TIP3    H2 7792   8.212   1.384   2.961
 2639TIP3   OH2 7793   8.325   1.484   2.870
 2639TIP3    H1 7794   8.397   1.433   2.829
 2639TIP3    H2 7795   8.375   1.542   2.931
 2640TIP3   OH2 7796   7.378   1.348   2.897
 2640TIP3    H1 7797   7.289   1.381   2.872
 2640TIP3    H2 7798   7.382   1.376   2.989
 2641TIP3   OH2 7799   7.614   1.327   2.756
 2641TIP3    H1 7800   7.528   1.339   2.801
 2641TIP3    H2 7801   7.592   1.357   2.666
 2642TIP3   OH2 7802   8.040   1.356   2.551
 2642TIP3    H1 7803   7.968   1.375   2.488
 2642TIP3    H2 7804   8.052   1.443   2.594
 2643TIP3   OH2 7805   8.305   1.294   2.604
 2643TIP3    H1 7806   8.211   1.309   2.583
 2643TIP3    H2 7807   8.346   1.372   2.564
 2644TIP3   OH2 7808   8.515   1.484   2.525
 2644TIP3    H1 7809   8.496   1.570   2.481
 2644TIP3    H2 7810   8.542   1.428   2.450
 2645TIP3   OH2 7811   7.287   1.141   2.645
 2645TIP3    H1 7812   7.314   1.115   2.735
 2645TIP3    H2 7813   7.358   1.097   2.593
 2646TIP3   OH2 7814   7.480   1.013   2.500
 2646TIP3    H1 7815   7.496   0.928   2.546
 2646TIP3    H2 7816   7.570   1.049   2.493
 2647TIP3   OH2 7817   7.746   1.113   2.499
 2647TIP3    H1 7818   7.778   1.023   2.477
 2647TIP3    H2 7819   7.787   1.125   2.586
 2648TIP3   OH2 7820   7.075   0.908   2.033
 2648TIP3    H1 7821   6.988   0.879   2.000
 2648TIP3    H2 7822   7.065   1.004   2.025
 2649TIP3   OH2 7823   7.172   0.968   1.695
 2649TIP3    H1 7824   7.146   1.001   1.783
 2649TIP3    H2 7825   7.247   0.909   1.718
 2650TIP3   OH2 7826   8.764   1.368   2.909
 2650TIP3    H1 7827   8.698   1.327   2.850
 2650TIP3    H2 7828   8.740   1.462   2.899
 2651TIP3   OH2 7829   0.956   1.557   3.936
 2651TIP3    H1 7830   0.952   1.498   4.012
 2651TIP3    H2 7831   0.984   1.640   3.978
 2652TIP3   OH2 7832   0.608   2.035   3.942
 2652TIP3    H1 7833   0.649   1.957   3.900
 2652TIP3    H2 7834   0.588   2.001   4.030
 2653TIP3   OH2 7835   0.516   1.489   4.318
 2653TIP3    H1 7836   0.526   1.441   4.235
 2653TIP3    H2 7837   0.606   1.526   4.330
 2654TIP3   OH2 7838   1.522   0.813   4.295
 2654TIP3    H1 7839   1.554   0.895   4.336
 2654TIP3    H2 7840   1.549   0.827   4.202
 2655TIP3   OH2 7841   1.599   1.022   4.463
 2655TIP3    H1 7842   1.515   1.070   4.446
 2655TIP3    H2 7843   1.612   1.042   4.557
 2656TIP3   OH2 7844   0.369   1.412   4.538
 2656TIP3    H1 7845   0.301   1.477   4.564
 2656TIP3    H2 7846   0.410   1.453   4.459
 2657TIP3   OH2 7847   0.188   1.607   4.622
 2657TIP3    H1 7848   0.164   1.695   4.586
 2657TIP3    H2 7849   0.109   1.587   4.676
 2658TIP3   OH2 7850   1.028   1.810   4.092
 2658TIP3    H1 7851   0.940   1.801   4.136
 2658TIP3    H2 7852   1.020   1.899   4.054
 2659TIP3   OH2 7853   1.318   0.710   4.458
 2659TIP3    H1 7854   1.241   0.766   4.445
 2659TIP3    H2 7855   1.379   0.741   4.386
 2660TIP3   OH2 7856   0.745   1.855   3.784
 2660TIP3    H1 7857   0.823   1.798   3.789
 2660TIP3    H2 7858   0.775   1.923   3.720
 2661TIP3   OH2 7859   1.255   1.728   4.441
 2661TIP3    H1 7860   1.245   1.649   4.383
 2661TIP3    H2 7861   1.239   1.801   4.377
 2662TIP3   OH2 7862   1.451   1.362   4.286
 2662TIP3    H1 7863   1.367   1.414   4.292
 2662TIP3    H2 7864   1.478   1.383   4.194
 2663TIP3   OH2 7865   1.134   1.245   4.579
 2663TIP3    H1 7866   1.128   1.326   4.632
 2663TIP3    H2 7867   1.044   1.244   4.539
 2664TIP3   OH2 7868   0.791   1.806   4.218
 2664TIP3    H1 7869   0.773   1.887   4.271
 2664TIP3    H2 7870   0.774   1.734   4.281
 2665TIP3   OH2 7871   0.399   1.728   4.762
 2665TIP3    H1 7872   0.339   1.790   4.808
 2665TIP3    H2 7873   0.334   1.673   4.714
 2666TIP3   OH2 7874   0.149   1.289   4.852
 2666TIP3    H1 7875   0.149   1.372   4.902
 2666TIP3    H2 7876   0.056   1.272   4.837
 2667TIP3   OH2 7877   0.192   1.895   4.851
 2667TIP3    H1 7878   0.159   1.897   4.759
 2667TIP3    H2 7879   0.111   1.877   4.903
 2668TIP3   OH2 7880   1.492   2.067   4.484
 2668TIP3    H1 7881   1.491   1.971   4.500
 2668TIP3    H2 7882   1.409   2.093   4.530
 2669TIP3   OH2 7883   0.597   1.859   4.619
 2669TIP3    H1 7884   0.598   1.951   4.653
 2669TIP3    H2 7885   0.526   1.819   4.674
 2670TIP3   OH2 7886   1.384   1.204   4.757
 2670TIP3    H1 7887   1.300   1.215   4.711
 2670TIP3    H2 7888   1.397   1.107   4.753
 2671TIP3   OH2 7889  -0.029   1.592   4.793
 2671TIP3    H1 7890   0.032   1.592   4.870
 2671TIP3    H2 7891  -0.104   1.543   4.829
 2672TIP3   OH2 7892   0.909   0.556   4.770
 2672TIP3    H1 7893   0.988   0.522   4.818
 2672TIP3    H2 7894   0.838   0.542   4.833
 2673TIP3   OH2 7895   1.158   0.980   4.683
 2673TIP3    H1 7896   1.106   0.968   4.766
 2673TIP3    H2 7897   1.123   1.065   4.650
 2674TIP3   OH2 7898   0.859   1.209   4.926
 2674TIP3    H1 7899   0.842   1.131   4.982
 2674TIP3    H2 7900   0.955   1.219   4.940
 2675TIP3   OH2 7901   0.876   1.203   4.485
 2675TIP3    H1 7902   0.870   1.123   4.432
 2675TIP3    H2 7903   0.842   1.167   4.571
 2676TIP3   OH2 7904   1.180   2.421   4.584
 2676TIP3    H1 7905   1.180   2.444   4.490
 2676TIP3    H2 7906   1.258   2.469   4.617
 2677TIP3   OH2 7907   0.141   1.543   5.008
 2677TIP3    H1 7908   0.229   1.579   5.029
 2677TIP3    H2 7909   0.120   1.506   5.095
 2678TIP3   OH2 7910   1.220   1.511   4.276
 2678TIP3    H1 7911   1.246   1.559   4.195
 2678TIP3    H2 7912   1.132   1.474   4.251
 2679TIP3   OH2 7913   0.729   1.598   4.639
 2679TIP3    H1 7914   0.734   1.557   4.726
 2679TIP3    H2 7915   0.677   1.679   4.655
 2680TIP3   OH2 7916   0.611   1.327   4.958
 2680TIP3    H1 7917   0.551   1.271   4.906
 2680TIP3    H2 7918   0.698   1.295   4.928
 2681TIP3   OH2 7919   0.878   1.855   4.535
 2681TIP3    H1 7920   0.783   1.846   4.550
 2681TIP3    H2 7921   0.905   1.902   4.616
 2682TIP3   OH2 7922   1.505   1.777   4.530
 2682TIP3    H1 7923   1.407   1.773   4.523
 2682TIP3    H2 7924   1.530   1.748   4.439
 2683TIP3   OH2 7925   0.982   1.382   4.193
 2683TIP3    H1 7926   0.901   1.359   4.240
 2683TIP3    H2 7927   1.019   1.292   4.179
 2684TIP3   OH2 7928   0.379   1.936   4.425
 2684TIP3    H1 7929   0.414   2.008   4.369
 2684TIP3    H2 7930   0.460   1.906   4.470
 2685TIP3   OH2 7931   0.777   1.569   4.374
 2685TIP3    H1 7932   0.759   1.575   4.470
 2685TIP3    H2 7933   0.867   1.534   4.375
 2686TIP3   OH2 7934   1.017   2.110   4.427
 2686TIP3    H1 7935   0.939   2.051   4.422
 2686TIP3    H2 7936   0.999   2.173   4.355
 2687TIP3   OH2 7937  -0.193   1.796   4.612
 2687TIP3    H1 7938  -0.129   1.725   4.617
 2687TIP3    H2 7939  -0.143   1.873   4.640
 2688TIP3   OH2 7940   0.933   0.789   4.621
 2688TIP3    H1 7941   1.013   0.821   4.664
 2688TIP3    H2 7942   0.918   0.703   4.665
 2689TIP3   OH2 7943   0.802   1.055   4.693
 2689TIP3    H1 7944   0.797   1.093   4.783
 2689TIP3    H2 7945   0.823   0.961   4.710
 2690TIP3   OH2 7946   1.422   0.933   4.680
 2690TIP3    H1 7947   1.324   0.933   4.689
 2690TIP3    H2 7948   1.431   0.900   4.590
 2691TIP3   OH2 7949   1.042   1.121   4.150
 2691TIP3    H1 7950   0.994   1.042   4.124
 2691TIP3    H2 7951   1.132   1.085   4.167
 2692TIP3   OH2 7952   1.036   2.081   4.018
 2692TIP3    H1 7953   0.994   2.130   3.944
 2692TIP3    H2 7954   1.130   2.102   3.999
 2693TIP3   OH2 7955  -0.179   2.117   4.980
 2693TIP3    H1 7956  -0.101   2.122   5.040
 2693TIP3    H2 7957  -0.205   2.025   4.991
 2694TIP3   OH2 7958   0.291   2.081   5.040
 2694TIP3    H1 7959   0.384   2.059   5.053
 2694TIP3    H2 7960   0.268   2.022   4.966
 2695TIP3   OH2 7961   0.930   1.982   4.774
 2695TIP3    H1 7962   0.919   1.912   4.842
 2695TIP3    H2 7963   1.007   2.032   4.807
 2696TIP3   OH2 7964   0.545   1.600   4.971
 2696TIP3    H1 7965   0.507   1.613   4.882
 2696TIP3    H2 7966   0.579   1.508   4.966
 2697TIP3   OH2 7967   1.039   1.605   4.571
 2697TIP3    H1 7968   1.111   1.659   4.532
 2697TIP3    H2 7969   0.965   1.668   4.569
 2698TIP3   OH2 7970   0.396   1.149   4.853
 2698TIP3    H1 7971   0.308   1.191   4.844
 2698TIP3    H2 7972   0.438   1.170   4.766
 2699TIP3   OH2 7973   0.909   1.540   4.977
 2699TIP3    H1 7974   0.992   1.518   4.932
 2699TIP3    H2 7975   0.906   1.472   5.046
 2700TIP3   OH2 7976   0.550   0.938   4.956
 2700TIP3    H1 7977   0.497   0.868   4.915
 2700TIP3    H2 7978   0.493   1.014   4.934
 2701TIP3   OH2 7979   0.556   1.257   4.656
 2701TIP3    H1 7980   0.624   1.246   4.589
 2701TIP3    H2 7981   0.491   1.316   4.611
 2702TIP3   OH2 7982   1.126   1.215   5.028
 2702TIP3    H1 7983   1.175   1.134   5.047
 2702TIP3    H2 7984   1.198   1.276   5.005
 2703TIP3   OH2 7985   1.170   1.467   4.763
 2703TIP3    H1 7986   1.111   1.518   4.703
 2703TIP3    H2 7987   1.257   1.486   4.722
 2704TIP3   OH2 7988   0.798   0.983   5.059
 2704TIP3    H1 7989   0.790   0.982   5.156
 2704TIP3    H2 7990   0.706   0.964   5.028
 2705TIP3   OH2 7991   1.022   0.924   4.908
 2705TIP3    H1 7992   0.946   0.933   4.969
 2705TIP3    H2 7993   1.094   0.896   4.968
 2706TIP3   OH2 7994   1.250   0.866   5.060
 2706TIP3    H1 7995   1.259   0.771   5.083
 2706TIP3    H2 7996   1.240   0.909   5.148
 2707TIP3   OH2 7997   1.286   2.179   3.972
 2707TIP3    H1 7998   1.312   2.207   4.062
 2707TIP3    H2 7999   1.351   2.225   3.917
 2708TIP3   OH2 8000   1.319   2.195   4.253
 2708TIP3    H1 8001   1.276   2.107   4.252
 2708TIP3    H2 8002   1.393   2.176   4.313
 2709TIP3   OH2 8003   1.363   1.872   4.827
 2709TIP3    H1 8004   1.291   1.879   4.892
 2709TIP3    H2 8005   1.404   1.961   4.834
 2710TIP3   OH2 8006   1.306   1.262   3.645
 2710TIP3    H1 8007   1.261   1.203   3.706
 2710TIP3    H2 8008   1.384   1.289   3.696
 2711TIP3   OH2 8009   1.360   1.644   4.083
 2711TIP3    H1 8010   1.415   1.580   4.034
 2711TIP3    H2 8011   1.350   1.716   4.019
 2712TIP3   OH2 8012   1.194   1.945   4.279
 2712TIP3    H1 8013   1.124   1.985   4.334
 2712TIP3    H2 8014   1.142   1.896   4.212
 2713TIP3   OH2 8015   1.412   1.533   4.654
 2713TIP3    H1 8016   1.484   1.467   4.647
 2713TIP3    H2 8017   1.442   1.604   4.596
 2714TIP3   OH2 8018   1.600   1.342   4.674
 2714TIP3    H1 8019   1.524   1.293   4.712
 2714TIP3    H2 8020   1.671   1.277   4.692
 2715TIP3   OH2 8021   1.284   1.011   4.193
 2715TIP3    H1 8022   1.371   1.030   4.150
 2715TIP3    H2 8023   1.306   1.042   4.283
 2716TIP3   OH2 8024   1.350   1.144   4.426
 2716TIP3    H1 8025   1.273   1.178   4.476
 2716TIP3    H2 8026   1.382   1.225   4.381
 2717TIP3   OH2 8027   1.802   0.733   4.979
 2717TIP3    H1 8028   1.859   0.666   4.935
 2717TIP3    H2 8029   1.774   0.789   4.904
 2718TIP3   OH2 8030   1.676   0.877   4.786
 2718TIP3    H1 8031   1.589   0.914   4.811
 2718TIP3    H2 8032   1.648   0.806   4.726
 2719TIP3   OH2 8033   0.861   2.055   3.632
 2719TIP3    H1 8034   0.914   2.021   3.558
 2719TIP3    H2 8035   0.924   2.110   3.682
 2720TIP3   OH2 8036  -0.038   1.840   5.019
 2720TIP3    H1 8037  -0.114   1.783   5.006
 2720TIP3    H2 8038  -0.022   1.835   5.114
 2721TIP3   OH2 8039   0.148   1.877   4.566
 2721TIP3    H1 8040   0.103   1.954   4.525
 2721TIP3    H2 8041   0.236   1.889   4.524
 2722TIP3   OH2 8042   0.598   2.124   4.704
 2722TIP3    H1 8043   0.641   2.123   4.792
 2722TIP3    H2 8044   0.665   2.173   4.652
 2723TIP3   OH2 8045   0.777   2.273   4.559
 2723TIP3    H1 8046   0.849   2.220   4.521
 2723TIP3    H2 8047   0.828   2.330   4.621
 2724TIP3   OH2 8048   1.573   0.638   4.662
 2724TIP3    H1 8049   1.481   0.633   4.630
 2724TIP3    H2 8050   1.602   0.544   4.649
 2725TIP3   OH2 8051  -0.169   2.145   4.584
 2725TIP3    H1 8052  -0.261   2.172   4.567
 2725TIP3    H2 8053  -0.163   2.158   4.679
 2726TIP3   OH2 8054   0.070   2.118   4.450
 2726TIP3    H1 8055  -0.018   2.132   4.491
 2726TIP3    H2 8056   0.053   2.136   4.356
 2727TIP3   OH2 8057   0.494   2.144   4.242
 2727TIP3    H1 8058   0.419   2.161   4.183
 2727TIP3    H2 8059   0.505   2.231   4.285
 2728TIP3   OH2 8060   0.760   2.082   4.292
 2728TIP3    H1 8061   0.665   2.097   4.274
 2728TIP3    H2 8062   0.800   2.162   4.254
 2729TIP3   OH2 8063   0.970   2.276   4.212
 2729TIP3    H1 8064   0.955   2.360   4.163
 2729TIP3    H2 8065   0.993   2.215   4.139
 2730TIP3   OH2 8066   0.202   1.940   4.194
 2730TIP3    H1 8067   0.204   1.862   4.135
 2730TIP3    H2 8068   0.246   1.908   4.275
 2731TIP3   OH2 8069   1.017   2.001   3.383
 2731TIP3    H1 8070   0.992   1.908   3.372
 2731TIP3    H2 8071   0.964   2.042   3.312
 2732TIP3   OH2 8072   1.301   0.596   5.098
 2732TIP3    H1 8073   1.325   0.566   5.188
 2732TIP3    H2 8074   1.388   0.593   5.052
 2733TIP3   OH2 8075   1.248   2.153   4.585
 2733TIP3    H1 8076   1.167   2.120   4.541
 2733TIP3    H2 8077   1.226   2.248   4.590
 2734TIP3   OH2 8078   2.495   1.528   3.382
 2734TIP3    H1 8079   2.472   1.619   3.354
 2734TIP3    H2 8080   2.427   1.478   3.332
 2735TIP3   OH2 8081   2.508   1.526   3.736
 2735TIP3    H1 8082   2.535   1.486   3.820
 2735TIP3    H2 8083   2.468   1.450   3.690
 2736TIP3   OH2 8084   1.809   1.422   4.102
 2736TIP3    H1 8085   1.843   1.353   4.161
 2736TIP3    H2 8086   1.890   1.473   4.086
 2737TIP3   OH2 8087   2.751   1.827   3.414
 2737TIP3    H1 8088   2.738   1.755   3.477
 2737TIP3    H2 8089   2.782   1.899   3.472
 2738TIP3   OH2 8090   1.779   1.828   3.824
 2738TIP3    H1 8091   1.770   1.731   3.827
 2738TIP3    H2 8092   1.875   1.836   3.824
 2739TIP3   OH2 8093   1.548   1.319   3.778
 2739TIP3    H1 8094   1.597   1.244   3.818
 2739TIP3    H2 8095   1.603   1.338   3.701
 2740TIP3   OH2 8096   2.399   2.287   3.432
 2740TIP3    H1 8097   2.449   2.216   3.386
 2740TIP3    H2 8098   2.398   2.254   3.523
 2741TIP3   OH2 8099   2.309   1.749   3.781
 2741TIP3    H1 8100   2.345   1.672   3.735
 2741TIP3    H2 8101   2.393   1.793   3.805
 2742TIP3   OH2 8102   3.320   1.070   3.779
 2742TIP3    H1 8103   3.349   1.152   3.825
 2742TIP3    H2 8104   3.341   1.093   3.687
 2743TIP3   OH2 8105   2.723   1.253   3.817
 2743TIP3    H1 8106   2.762   1.166   3.837
 2743TIP3    H2 8107   2.690   1.239   3.727
 2744TIP3   OH2 8108   2.063   0.911   3.781
 2744TIP3    H1 8109   2.035   0.984   3.722
 2744TIP3    H2 8110   2.014   0.835   3.743
 2745TIP3   OH2 8111   2.747   0.994   3.413
 2745TIP3    H1 8112   2.823   0.982   3.474
 2745TIP3    H2 8113   2.795   1.031   3.336
 2746TIP3   OH2 8114   1.694   1.116   3.887
 2746TIP3    H1 8115   1.776   1.096   3.938
 2746TIP3    H2 8116   1.708   1.057   3.811
 2747TIP3   OH2 8117   2.132   1.312   3.680
 2747TIP3    H1 8118   2.227   1.288   3.693
 2747TIP3    H2 8119   2.094   1.226   3.651
 2748TIP3   OH2 8120   3.394   1.275   3.950
 2748TIP3    H1 8121   3.311   1.325   3.931
 2748TIP3    H2 8122   3.408   1.300   4.043
 2749TIP3   OH2 8123   2.406   1.745   3.230
 2749TIP3    H1 8124   2.368   1.713   3.147
 2749TIP3    H2 8125   2.359   1.830   3.241
 2750TIP3   OH2 8126   2.164   1.668   4.014
 2750TIP3    H1 8127   2.099   1.731   4.051
 2750TIP3    H2 8128   2.206   1.720   3.943
 2751TIP3   OH2 8129   2.968   0.999   3.574
 2751TIP3    H1 8130   2.954   0.956   3.659
 2751TIP3    H2 8131   3.017   1.079   3.599
 2752TIP3   OH2 8132   1.922   1.013   3.996
 2752TIP3    H1 8133   1.991   1.070   4.036
 2752TIP3    H2 8134   1.978   0.966   3.931
 2753TIP3   OH2 8135   1.988   1.860   4.107
 2753TIP3    H1 8136   1.963   1.947   4.069
 2753TIP3    H2 8137   1.910   1.845   4.165
 2754TIP3   OH2 8138   1.388   1.557   3.351
 2754TIP3    H1 8139   1.358   1.582   3.263
 2754TIP3    H2 8140   1.427   1.640   3.385
 2755TIP3   OH2 8141   2.824   2.067   3.586
 2755TIP3    H1 8142   2.734   2.059   3.624
 2755TIP3    H2 8143   2.817   2.153   3.541
 2756TIP3   OH2 8144   3.114   0.970   3.946
 2756TIP3    H1 8145   3.026   1.001   3.917
 2756TIP3    H2 8146   3.172   1.003   3.874
 2757TIP3   OH2 8147   2.416   0.612   3.927
 2757TIP3    H1 8148   2.401   0.518   3.951
 2757TIP3    H2 8149   2.338   0.653   3.971
 2758TIP3   OH2 8150   2.528   2.117   3.259
 2758TIP3    H1 8151   2.576   2.034   3.239
 2758TIP3    H2 8152   2.588   2.182   3.215
 2759TIP3   OH2 8153   2.668   1.902   3.161
 2759TIP3    H1 8154   2.638   1.821   3.119
 2759TIP3    H2 8155   2.702   1.867   3.247
 2760TIP3   OH2 8156   3.051   1.982   3.928
 2760TIP3    H1 8157   3.041   1.905   3.868
 2760TIP3    H2 8158   3.035   2.057   3.866
 2761TIP3   OH2 8159   2.347   1.389   3.191
 2761TIP3    H1 8160   2.260   1.418   3.159
 2761TIP3    H2 8161   2.397   1.382   3.107
 2762TIP3   OH2 8162   2.324   1.131   3.000
 2762TIP3    H1 8163   2.390   1.203   3.005
 2762TIP3    H2 8164   2.366   1.072   2.936
 2763TIP3   OH2 8165   3.245   1.615   3.770
 2763TIP3    H1 8166   3.164   1.670   3.776
 2763TIP3    H2 8167   3.276   1.640   3.680
 2764TIP3   OH2 8168   2.663   1.484   3.164
 2764TIP3    H1 8169   2.624   1.494   3.254
 2764TIP3    H2 8170   2.745   1.436   3.181
 2765TIP3   OH2 8171   2.925   1.499   4.066
 2765TIP3    H1 8172   2.920   1.584   4.111
 2765TIP3    H2 8173   2.838   1.498   4.021
 2766TIP3   OH2 8174   1.922   1.453   3.569
 2766TIP3    H1 8175   1.886   1.392   3.502
 2766TIP3    H2 8176   1.999   1.404   3.603
 2767TIP3   OH2 8177   2.054   1.871   3.719
 2767TIP3    H1 8178   2.032   1.818   3.641
 2767TIP3    H2 8179   2.143   1.838   3.740
 2768TIP3   OH2 8180   2.052   1.431   3.925
 2768TIP3    H1 8181   2.090   1.406   3.839
 2768TIP3    H2 8182   2.101   1.514   3.947
 2769TIP3   OH2 8183   2.580   2.065   3.702
 2769TIP3    H1 8184   2.570   2.144   3.758
 2769TIP3    H2 8185   2.569   1.991   3.765
 2770TIP3   OH2 8186   2.194   1.983   4.252
 2770TIP3    H1 8187   2.135   2.046   4.298
 2770TIP3    H2 8188   2.128   1.930   4.203
 2771TIP3   OH2 8189   2.528   1.317   2.989
 2771TIP3    H1 8190   2.592   1.373   3.039
 2771TIP3    H2 8191   2.558   1.335   2.897
 2772TIP3   OH2 8192   1.951   1.540   4.354
 2772TIP3    H1 8193   1.954   1.627   4.398
 2772TIP3    H2 8194   1.855   1.523   4.356
 2773TIP3   OH2 8195   2.271   1.999   3.248
 2773TIP3    H1 8196   2.350   2.047   3.279
 2773TIP3    H2 8197   2.209   2.069   3.228
 2774TIP3   OH2 8198   1.990   2.153   4.337
 2774TIP3    H1 8199   1.953   2.149   4.247
 2774TIP3    H2 8200   1.911   2.132   4.392
 2775TIP3   OH2 8201   3.047   0.558   3.028
 2775TIP3    H1 8202   2.966   0.573   3.082
 2775TIP3    H2 8203   3.055   0.644   2.983
 2776TIP3   OH2 8204   1.794   1.284   3.366
 2776TIP3    H1 8205   1.727   1.349   3.335
 2776TIP3    H2 8206   1.738   1.213   3.403
 2777TIP3   OH2 8207   2.844   1.924   2.574
 2777TIP3    H1 8208   2.852   2.021   2.564
 2777TIP3    H2 8209   2.937   1.895   2.563
 2778TIP3   OH2 8210   1.570   1.681   4.285
 2778TIP3    H1 8211   1.505   1.657   4.215
 2778TIP3    H2 8212   1.607   1.595   4.311
 2779TIP3   OH2 8213   1.422   1.878   3.912
 2779TIP3    H1 8214   1.518   1.866   3.909
 2779TIP3    H2 8215   1.414   1.954   3.973
 2780TIP3   OH2 8216   3.288   2.325   3.973
 2780TIP3    H1 8217   3.286   2.228   3.984
 2780TIP3    H2 8218   3.205   2.350   4.018
 2781TIP3   OH2 8219   2.393   2.113   4.107
 2781TIP3    H1 8220   2.394   2.206   4.139
 2781TIP3    H2 8221   2.322   2.075   4.163
 2782TIP3   OH2 8222   2.150   2.246   3.056
 2782TIP3    H1 8223   2.102   2.224   2.974
 2782TIP3    H2 8224   2.114   2.332   3.082
 2783TIP3   OH2 8225   1.592   2.091   3.443
 2783TIP3    H1 8226   1.641   2.084   3.528
 2783TIP3    H2 8227   1.539   2.009   3.447
 2784TIP3   OH2 8228   2.359   2.145   2.703
 2784TIP3    H1 8229   2.415   2.075   2.664
 2784TIP3    H2 8230   2.391   2.145   2.796
 2785TIP3   OH2 8231   2.405   2.189   2.973
 2785TIP3    H1 8232   2.318   2.196   3.019
 2785TIP3    H2 8233   2.458   2.145   3.042
 2786TIP3   OH2 8234   3.176   1.458   4.247
 2786TIP3    H1 8235   3.098   1.471   4.191
 2786TIP3    H2 8236   3.192   1.362   4.236
 2787TIP3   OH2 8237   1.774   1.865   4.275
 2787TIP3    H1 8238   1.824   1.849   4.357
 2787TIP3    H2 8239   1.700   1.801   4.283
 2788TIP3   OH2 8240   2.179   0.688   4.052
 2788TIP3    H1 8241   2.082   0.678   4.040
 2788TIP3    H2 8242   2.184   0.776   4.097
 2789TIP3   OH2 8243   2.707   0.807   4.252
 2789TIP3    H1 8244   2.773   0.776   4.316
 2789TIP3    H2 8245   2.622   0.782   4.295
 2790TIP3   OH2 8246   2.950   1.234   4.169
 2790TIP3    H1 8247   2.901   1.230   4.254
 2790TIP3    H2 8248   2.923   1.320   4.133
 2791TIP3   OH2 8249   2.604   1.366   2.725
 2791TIP3    H1 8250   2.586   1.360   2.630
 2791TIP3    H2 8251   2.690   1.412   2.729
 2792TIP3   OH2 8252   2.102   1.207   4.076
 2792TIP3    H1 8253   2.044   1.226   4.152
 2792TIP3    H2 8254   2.086   1.286   4.019
 2793TIP3   OH2 8255   1.986   1.090   3.591
 2793TIP3    H1 8256   1.891   1.069   3.600
 2793TIP3    H2 8257   2.005   1.049   3.503
 2794TIP3   OH2 8258   2.483   1.183   3.314
 2794TIP3    H1 8259   2.427   1.254   3.277
 2794TIP3    H2 8260   2.530   1.152   3.234
 2795TIP3   OH2 8261   2.658   1.460   4.405
 2795TIP3    H1 8262   2.637   1.387   4.467
 2795TIP3    H2 8263   2.753   1.472   4.424
 2796TIP3   OH2 8264   2.640   1.207   3.557
 2796TIP3    H1 8265   2.578   1.238   3.488
 2796TIP3    H2 8266   2.669   1.123   3.514
 2797TIP3   OH2 8267   1.929   1.234   4.287
 2797TIP3    H1 8268   1.926   1.298   4.358
 2797TIP3    H2 8269   1.906   1.150   4.333
 2798TIP3   OH2 8270   2.652   1.450   3.987
 2798TIP3    H1 8271   2.681   1.378   3.926
 2798TIP3    H2 8272   2.616   1.397   4.061
 2799TIP3   OH2 8273   2.316   0.910   3.653
 2799TIP3    H1 8274   2.232   0.911   3.704
 2799TIP3    H2 8275   2.381   0.917   3.724
 2800TIP3   OH2 8276   1.747   0.963   3.666
 2800TIP3    H1 8277   1.657   0.957   3.630
 2800TIP3    H2 8278   1.784   0.877   3.642
 2801TIP3   OH2 8279   2.053   0.976   3.353
 2801TIP3    H1 8280   2.149   0.984   3.341
 2801TIP3    H2 8281   2.017   1.020   3.276
 2802TIP3   OH2 8282   2.807   0.987   3.853
 2802TIP3    H1 8283   2.771   1.000   3.944
 2802TIP3    H2 8284   2.740   0.928   3.816
 2803TIP3   OH2 8285   2.977   2.675   4.071
 2803TIP3    H1 8286   2.976   2.703   3.978
 2803TIP3    H2 8287   3.054   2.726   4.105
 2804TIP3   OH2 8288   1.935   1.788   4.494
 2804TIP3    H1 8289   2.014   1.819   4.542
 2804TIP3    H2 8290   1.870   1.786   4.566
 2805TIP3   OH2 8291   2.396   1.244   3.742
 2805TIP3    H1 8292   2.472   1.196   3.706
 2805TIP3    H2 8293   2.396   1.214   3.836
 2806TIP3   OH2 8294   1.945   0.709   3.636
 2806TIP3    H1 8295   1.958   0.616   3.662
 2806TIP3    H2 8296   2.002   0.714   3.558
 2807TIP3   OH2 8297   2.386   1.166   4.002
 2807TIP3    H1 8298   2.301   1.140   4.042
 2807TIP3    H2 8299   2.439   1.186   4.080
 2808TIP3   OH2 8300   2.106   1.554   3.129
 2808TIP3    H1 8301   2.064   1.465   3.133
 2808TIP3    H2 8302   2.099   1.580   3.225
 2809TIP3   OH2 8303   3.015   1.765   3.764
 2809TIP3    H1 8304   3.039   1.813   3.682
 2809TIP3    H2 8305   2.929   1.724   3.740
 2810TIP3   OH2 8306   2.559   0.838   2.987
 2810TIP3    H1 8307   2.465   0.851   2.999
 2810TIP3    H2 8308   2.594   0.929   2.998
 2811TIP3   OH2 8309   2.517   1.849   4.130
 2811TIP3    H1 8310   2.528   1.821   4.221
 2811TIP3    H2 8311   2.474   1.936   4.137
 2812TIP3   OH2 8312   2.642   1.081   3.090
 2812TIP3    H1 8313   2.735   1.097   3.111
 2812TIP3    H2 8314   2.624   1.158   3.033
 2813TIP3   OH2 8315   1.805   1.551   3.809
 2813TIP3    H1 8316   1.841   1.521   3.724
 2813TIP3    H2 8317   1.844   1.488   3.871
 2814TIP3   OH2 8318   2.266   1.690   2.960
 2814TIP3    H1 8319   2.213   1.773   2.969
 2814TIP3    H2 8320   2.213   1.629   3.015
 2815TIP3   OH2 8321   1.685   1.469   4.421
 2815TIP3    H1 8322   1.702   1.458   4.517
 2815TIP3    H2 8323   1.614   1.405   4.407
 2816TIP3   OH2 8324   2.410   1.581   4.443
 2816TIP3    H1 8325   2.353   1.532   4.382
 2816TIP3    H2 8326   2.499   1.552   4.414
 2817TIP3   OH2 8327   2.674   2.107   4.023
 2817TIP3    H1 8328   2.577   2.103   4.036
 2817TIP3    H2 8329   2.701   2.158   4.102
 2818TIP3   OH2 8330   3.301   2.034   4.017
 2818TIP3    H1 8331   3.203   2.029   4.007
 2818TIP3    H2 8332   3.328   2.004   3.927
 2819TIP3   OH2 8333   2.775   1.995   2.840
 2819TIP3    H1 8334   2.765   1.925   2.906
 2819TIP3    H2 8335   2.795   1.945   2.759
 2820TIP3   OH2 8336   2.777   1.628   3.687
 2820TIP3    H1 8337   2.683   1.602   3.698
 2820TIP3    H2 8338   2.812   1.549   3.643
 2821TIP3   OH2 8339   1.903   1.852   3.433
 2821TIP3    H1 8340   1.905   1.934   3.381
 2821TIP3    H2 8341   1.809   1.836   3.443
 2822TIP3   OH2 8342   2.051   1.623   3.385
 2822TIP3    H1 8343   2.010   1.710   3.402
 2822TIP3    H2 8344   2.013   1.569   3.457
 2823TIP3   OH2 8345   2.174   2.198   3.904
 2823TIP3    H1 8346   2.216   2.270   3.855
 2823TIP3    H2 8347   2.250   2.163   3.954
 2824TIP3   OH2 8348   1.823   2.093   3.284
 2824TIP3    H1 8349   1.738   2.098   3.333
 2824TIP3    H2 8350   1.854   2.186   3.292
 2825TIP3   OH2 8351   2.566   1.834   3.860
 2825TIP3    H1 8352   2.558   1.830   3.958
 2825TIP3    H2 8353   2.643   1.777   3.845
 2826TIP3   OH2 8354   2.537   1.721   2.742
 2826TIP3    H1 8355   2.593   1.701   2.821
 2826TIP3    H2 8356   2.451   1.692   2.775
 2827TIP3   OH2 8357   2.813   2.366   3.914
 2827TIP3    H1 8358   2.735   2.309   3.906
 2827TIP3    H2 8359   2.797   2.431   3.842
 2828TIP3   OH2 8360   2.877   2.201   2.564
 2828TIP3    H1 8361   2.920   2.274   2.516
 2828TIP3    H2 8362   2.797   2.248   2.595
 2829TIP3   OH2 8363   1.904   1.003   4.449
 2829TIP3    H1 8364   1.807   0.991   4.446
 2829TIP3    H2 8365   1.931   0.915   4.481
 2830TIP3   OH2 8366   2.692   1.665   2.958
 2830TIP3    H1 8367   2.676   1.598   3.029
 2830TIP3    H2 8368   2.790   1.658   2.949
 2831TIP3   OH2 8369   1.613   2.061   4.063
 2831TIP3    H1 8370   1.665   1.985   4.094
 2831TIP3    H2 8371   1.639   2.128   4.128
 2832TIP3   OH2 8372   1.886   1.717   2.745
 2832TIP3    H1 8373   1.921   1.636   2.706
 2832TIP3    H2 8374   1.885   1.695   2.841
 2833TIP3   OH2 8375   1.861   1.709   3.018
 2833TIP3    H1 8376   1.931   1.672   3.075
 2833TIP3    H2 8377   1.871   1.805   3.032
 2834TIP3   OH2 8378   1.611   1.438   3.243
 2834TIP3    H1 8379   1.532   1.456   3.298
 2834TIP3    H2 8380   1.586   1.488   3.164
 2835TIP3   OH2 8381   2.732   1.044   4.113
 2835TIP3    H1 8382   2.815   1.076   4.151
 2835TIP3    H2 8383   2.716   0.962   4.165
 2836TIP3   OH2 8384   2.615   0.793   3.270
 2836TIP3    H1 8385   2.599   0.825   3.180
 2836TIP3    H2 8386   2.652   0.873   3.313
 2837TIP3   OH2 8387   2.109   1.911   2.959
 2837TIP3    H1 8388   2.025   1.939   3.000
 2837TIP3    H2 8389   2.133   1.990   2.908
 2838TIP3   OH2 8390   2.325   0.968   3.379
 2838TIP3    H1 8391   2.384   1.045   3.362
 2838TIP3    H2 8392   2.323   0.965   3.477
 2839TIP3   OH2 8393   2.572   1.289   4.196
 2839TIP3    H1 8394   2.599   1.345   4.271
 2839TIP3    H2 8395   2.632   1.213   4.202
 2840TIP3   OH2 8396   2.463   0.696   3.489
 2840TIP3    H1 8397   2.449   0.774   3.545
 2840TIP3    H2 8398   2.514   0.735   3.415
 2841TIP3   OH2 8399   1.854   1.985   3.031
 2841TIP3    H1 8400   1.825   2.057   2.971
 2841TIP3    H2 8401   1.838   2.025   3.120
 2842TIP3   OH2 8402   3.216   1.191   4.167
 2842TIP3    H1 8403   3.117   1.189   4.174
 2842TIP3    H2 8404   3.226   1.152   4.079
 2843TIP3   OH2 8405   2.861   1.388   3.562
 2843TIP3    H1 8406   2.786   1.328   3.571
 2843TIP3    H2 8407   2.933   1.340   3.608
 2844TIP3   OH2 8408   1.591   1.673   3.045
 2844TIP3    H1 8409   1.682   1.706   3.048
 2844TIP3    H2 8410   1.601   1.595   2.989
 2845TIP3   OH2 8411   2.832   2.339   3.505
 2845TIP3    H1 8412   2.791   2.386   3.428
 2845TIP3    H2 8413   2.926   2.359   3.487
 2846TIP3   OH2 8414   1.905   0.605   4.033
 2846TIP3    H1 8415   1.876   0.554   3.957
 2846TIP3    H2 8416   1.906   0.534   4.102
 2847TIP3   OH2 8417   1.454   1.843   3.412
 2847TIP3    H1 8418   1.371   1.863   3.456
 2847TIP3    H2 8419   1.436   1.868   3.319
 2848TIP3   OH2 8420   1.603   2.366   4.483
 2848TIP3    H1 8421   1.688   2.366   4.531
 2848TIP3    H2 8422   1.582   2.271   4.484
 2849TIP3   OH2 8423   2.087   2.336   4.529
 2849TIP3    H1 8424   2.182   2.319   4.537
 2849TIP3    H2 8425   2.064   2.278   4.454
 2850TIP3   OH2 8426   2.071   1.909   2.657
 2850TIP3    H1 8427   2.016   1.845   2.708
 2850TIP3    H2 8428   2.153   1.857   2.645
 2851TIP3   OH2 8429   2.725   2.239   4.259
 2851TIP3    H1 8430   2.717   2.170   4.329
 2851TIP3    H2 8431   2.801   2.293   4.291
 2852TIP3   OH2 8432   2.507   1.955   2.570
 2852TIP3    H1 8433   2.550   1.891   2.629
 2852TIP3    H2 8434   2.566   1.955   2.492
 2853TIP3   OH2 8435   1.735   1.775   4.684
 2853TIP3    H1 8436   1.752   1.679   4.689
 2853TIP3    H2 8437   1.646   1.778   4.643
 2854TIP3   OH2 8438   2.345   1.858   4.457
 2854TIP3    H1 8439   2.300   1.872   4.371
 2854TIP3    H2 8440   2.374   1.764   4.451
 2855TIP3   OH2 8441   2.230   1.645   2.697
 2855TIP3    H1 8442   2.244   1.662   2.792
 2855TIP3    H2 8443   2.221   1.547   2.701
 2856TIP3   OH2 8444   2.837   1.865   4.066
 2856TIP3    H1 8445   2.909   1.912   4.019
 2856TIP3    H2 8446   2.763   1.926   4.052
 2857TIP3   OH2 8447   1.853   1.512   4.666
 2857TIP3    H1 8448   1.912   1.438   4.657
 2857TIP3    H2 8449   1.875   1.544   4.756
 2858TIP3   OH2 8450   2.001   1.308   3.155
 2858TIP3    H1 8451   1.941   1.294   3.230
 2858TIP3    H2 8452   1.959   1.254   3.086
 2859TIP3   OH2 8453   2.186   1.384   4.348
 2859TIP3    H1 8454   2.111   1.446   4.342
 2859TIP3    H2 8455   2.235   1.408   4.267
 2860TIP3   OH2 8456   2.707   1.797   4.465
 2860TIP3    H1 8457   2.781   1.771   4.409
 2860TIP3    H2 8458   2.704   1.725   4.531
 2861TIP3   OH2 8459   2.869   1.469   2.603
 2861TIP3    H1 8460   2.827   1.419   2.532
 2861TIP3    H2 8461   2.829   1.557   2.589
 2862TIP3   OH2 8462   2.345   1.511   4.149
 2862TIP3    H1 8463   2.418   1.499   4.086
 2862TIP3    H2 8464   2.288   1.574   4.100
 2863TIP3   OH2 8465   2.929   1.473   4.519
 2863TIP3    H1 8466   2.972   1.387   4.527
 2863TIP3    H2 8467   2.999   1.525   4.476
 2864TIP3   OH2 8468   2.966   1.727   4.259
 2864TIP3    H1 8469   2.909   1.778   4.196
 2864TIP3    H2 8470   3.053   1.744   4.217
 2865TIP3   OH2 8471   2.201   1.294   4.669
 2865TIP3    H1 8472   2.126   1.235   4.691
 2865TIP3    H2 8473   2.175   1.338   4.586
 2866TIP3   OH2 8474   2.451   0.722   4.321
 2866TIP3    H1 8475   2.394   0.796   4.289
 2866TIP3    H2 8476   2.385   0.650   4.317
 2867TIP3   OH2 8477   2.585   1.245   4.553
 2867TIP3    H1 8478   2.599   1.237   4.649
 2867TIP3    H2 8479   2.494   1.213   4.547
 2868TIP3   OH2 8480   2.817   1.190   4.400
 2868TIP3    H1 8481   2.741   1.188   4.461
 2868TIP3    H2 8482   2.890   1.154   4.455
 2869TIP3   OH2 8483   3.042   1.125   4.552
 2869TIP3    H1 8484   3.054   1.030   4.570
 2869TIP3    H2 8485   3.038   1.164   4.642
 2870TIP3   OH2 8486   2.038   1.075   4.726
 2870TIP3    H1 8487   2.027   0.981   4.701
 2870TIP3    H2 8488   2.069   1.063   4.819
 2871TIP3   OH2 8489   2.542   0.747   4.581
 2871TIP3    H1 8490   2.609   0.676   4.580
 2871TIP3    H2 8491   2.502   0.734   4.492
 2872TIP3   OH2 8492   2.609   0.959   4.741
 2872TIP3    H1 8493   2.587   0.885   4.679
 2872TIP3    H2 8494   2.527   1.012   4.738
 2873TIP3   OH2 8495   1.825   2.184   2.842
 2873TIP3    H1 8496   1.921   2.181   2.824
 2873TIP3    H2 8497   1.797   2.240   2.767
 2874TIP3   OH2 8498   1.221   2.172   3.466
 2874TIP3    H1 8499   1.148   2.111   3.443
 2874TIP3    H2 8500   1.265   2.123   3.540
 2875TIP3   OH2 8501   1.353   2.037   3.664
 2875TIP3    H1 8502   1.349   1.959   3.722
 2875TIP3    H2 8503   1.405   2.097   3.720
 2876TIP3   OH2 8504   3.080   2.438   3.459
 2876TIP3    H1 8505   3.110   2.468   3.547
 2876TIP3    H2 8506   3.148   2.476   3.401
 2877TIP3   OH2 8507   3.113   2.452   3.741
 2877TIP3    H1 8508   3.073   2.363   3.739
 2877TIP3    H2 8509   3.191   2.434   3.796
 2878TIP3   OH2 8510   3.164   2.129   4.317
 2878TIP3    H1 8511   3.084   2.140   4.371
 2878TIP3    H2 8512   3.202   2.220   4.317
 2879TIP3   OH2 8513   2.970   1.662   2.937
 2879TIP3    H1 8514   3.049   1.714   2.912
 2879TIP3    H2 8515   3.003   1.613   3.014
 2880TIP3   OH2 8516   3.112   1.508   3.125
 2880TIP3    H1 8517   3.056   1.475   3.200
 2880TIP3    H2 8518   3.182   1.556   3.177
 2881TIP3   OH2 8519   3.156   1.899   3.571
 2881TIP3    H1 8520   3.211   1.836   3.519
 2881TIP3    H2 8521   3.149   1.974   3.509
 2882TIP3   OH2 8522   2.991   2.200   3.768
 2882TIP3    H1 8523   2.920   2.243   3.820
 2882TIP3    H2 8524   2.941   2.151   3.700
 2883TIP3   OH2 8525   2.957   1.090   2.715
 2883TIP3    H1 8526   2.887   1.157   2.720
 2883TIP3    H2 8527   2.909   1.008   2.738
 2884TIP3   OH2 8528   2.968   1.354   3.308
 2884TIP3    H1 8529   2.933   1.265   3.293
 2884TIP3    H2 8530   2.933   1.375   3.397
 2885TIP3   OH2 8531   1.545   1.442   4.031
 2885TIP3    H1 8532   1.544   1.410   3.938
 2885TIP3    H2 8533   1.642   1.443   4.048
 2886TIP3   OH2 8534   3.208   1.790   4.146
 2886TIP3    H1 8535   3.281   1.724   4.137
 2886TIP3    H2 8536   3.234   1.858   4.082
 2887TIP3   OH2 8537   3.393   1.598   4.169
 2887TIP3    H1 8538   3.318   1.545   4.204
 2887TIP3    H2 8539   3.466   1.533   4.179
 2888TIP3   OH2 8540   2.855   0.832   2.740
 2888TIP3    H1 8541   2.941   0.807   2.779
 2888TIP3    H2 8542   2.792   0.782   2.794
 2889TIP3   OH2 8543   2.907   1.074   3.209
 2889TIP3    H1 8544   2.957   0.990   3.201
 2889TIP3    H2 8545   2.932   1.123   3.129
 2890TIP3   OH2 8546   3.077   1.256   3.676
 2890TIP3    H1 8547   3.162   1.284   3.635
 2890TIP3    H2 8548   3.090   1.293   3.765
 2891TIP3   OH2 8549   3.145   1.399   3.910
 2891TIP3    H1 8550   3.066   1.433   3.956
 2891TIP3    H2 8551   3.177   1.479   3.863
 2892TIP3   OH2 8552   1.765   1.131   4.713
 2892TIP3    H1 8553   1.862   1.116   4.703
 2892TIP3    H2 8554   1.738   1.045   4.753
 2893TIP3   OH2 8555   3.596   0.989   4.466
 2893TIP3    H1 8556   3.654   0.922   4.423
 2893TIP3    H2 8557   3.571   1.045   4.390
 2894TIP3   OH2 8558   3.032   0.826   3.214
 2894TIP3    H1 8559   3.074   0.814   3.301
 2894TIP3    H2 8560   2.966   0.753   3.215
 2895TIP3   OH2 8561   1.727   0.822   4.058
 2895TIP3    H1 8562   1.787   0.745   4.056
 2895TIP3    H2 8563   1.790   0.895   4.042
 2896TIP3   OH2 8564   1.531   1.095   4.113
 2896TIP3    H1 8565   1.582   1.080   4.031
 2896TIP3    H2 8566   1.565   1.181   4.140
 2897TIP3   OH2 8567   3.470   1.132   4.272
 2897TIP3    H1 8568   3.381   1.169   4.290
 2897TIP3    H2 8569   3.445   1.059   4.212
 2898TIP3   OH2 8570   3.104   0.773   2.850
 2898TIP3    H1 8571   3.150   0.701   2.803
 2898TIP3    H2 8572   3.170   0.846   2.845
 2899TIP3   OH2 8573   2.660   2.306   3.111
 2899TIP3    H1 8574   2.720   2.282   3.038
 2899TIP3    H2 8575   2.718   2.360   3.168
 2900TIP3   OH2 8576   1.733   0.681   4.430
 2900TIP3    H1 8577   1.681   0.671   4.512
 2900TIP3    H2 8578   1.665   0.714   4.368
 2901TIP3   OH2 8579   1.770   2.100   4.505
 2901TIP3    H1 8580   1.679   2.072   4.488
 2901TIP3    H2 8581   1.779   2.083   4.600
 2902TIP3   OH2 8582   1.946   2.131   4.051
 2902TIP3    H1 8583   1.898   2.207   4.014
 2902TIP3    H2 8584   2.033   2.146   4.007
 2903TIP3   OH2 8585   2.395   2.380   4.188
 2903TIP3    H1 8586   2.435   2.382   4.278
 2903TIP3    H2 8587   2.461   2.430   4.137
 2904TIP3   OH2 8588   2.574   2.529   4.046
 2904TIP3    H1 8589   2.647   2.479   4.007
 2904TIP3    H2 8590   2.623   2.588   4.107
 2905TIP3   OH2 8591   3.367   0.893   4.148
 2905TIP3    H1 8592   3.275   0.888   4.117
 2905TIP3    H2 8593   3.396   0.800   4.136
 2906TIP3   OH2 8594   1.625   2.392   4.073
 2906TIP3    H1 8595   1.536   2.427   4.052
 2906TIP3    H2 8596   1.635   2.423   4.164
 2907TIP3   OH2 8597   1.861   2.369   3.931
 2907TIP3    H1 8598   1.775   2.382   3.978
 2907TIP3    H2 8599   1.839   2.404   3.842
 2908TIP3   OH2 8600   2.288   2.401   3.727
 2908TIP3    H1 8601   2.217   2.425   3.666
 2908TIP3    H2 8602   2.302   2.486   3.775
 2909TIP3   OH2 8603   2.556   2.339   3.779
 2909TIP3    H1 8604   2.462   2.357   3.760
 2909TIP3    H2 8605   2.599   2.418   3.743
 2910TIP3   OH2 8606   2.762   2.531   3.699
 2910TIP3    H1 8607   2.750   2.616   3.651
 2910TIP3    H2 8608   2.790   2.471   3.626
 2911TIP3   OH2 8609   1.537   2.186   3.820
 2911TIP3    H1 8610   1.562   2.161   3.911
 2911TIP3    H2 8611   1.609   2.141   3.771
 2912TIP3   OH2 8612   1.730   2.056   3.675
 2912TIP3    H1 8613   1.744   1.972   3.723
 2912TIP3    H2 8614   1.821   2.092   3.673
 2913TIP3   OH2 8615   1.996   2.152   3.677
 2913TIP3    H1 8616   2.027   2.060   3.667
 2913TIP3    H2 8617   2.037   2.174   3.762
 2914TIP3   OH2 8618   2.574   0.810   3.768
 2914TIP3    H1 8619   2.528   0.743   3.822
 2914TIP3    H2 8620   2.643   0.757   3.724
 2915TIP3   OH2 8621   3.098   0.685   3.670
 2915TIP3    H1 8622   3.134   0.741   3.598
 2915TIP3    H2 8623   3.003   0.707   3.668
 2916TIP3   OH2 8624   3.194   0.795   3.436
 2916TIP3    H1 8625   3.266   0.743   3.395
 2916TIP3    H2 8626   3.225   0.886   3.421
 2917TIP3   OH2 8627   2.255   0.564   3.649
 2917TIP3    H1 8628   2.323   0.622   3.611
 2917TIP3    H2 8629   2.269   0.576   3.744
 2918TIP3   OH2 8630   2.816   0.693   3.651
 2918TIP3    H1 8631   2.810   0.663   3.559
 2918TIP3    H2 8632   2.797   0.611   3.701
 2919TIP3   OH2 8633   2.844   0.616   3.207
 2919TIP3    H1 8634   2.756   0.658   3.211
 2919TIP3    H2 8635   2.824   0.530   3.250
 2920TIP3   OH2 8636   1.318   1.965   3.188
 2920TIP3    H1 8637   1.236   1.920   3.158
 2920TIP3    H2 8638   1.282   2.034   3.246
 2921TIP3   OH2 8639   2.247   0.717   3.308
 2921TIP3    H1 8640   2.302   0.677   3.376
 2921TIP3    H2 8641   2.277   0.810   3.316
 2922TIP3   OH2 8642   2.095   2.148   2.790
 2922TIP3    H1 8643   2.186   2.165   2.756
 2922TIP3    H2 8644   2.072   2.072   2.732
 2923TIP3   OH2 8645   2.813   2.260   2.886
 2923TIP3    H1 8646   2.803   2.162   2.873
 2923TIP3    H2 8647   2.775   2.293   2.803
 2924TIP3   OH2 8648   2.030   0.800   4.683
 2924TIP3    H1 8649   1.995   0.726   4.735
 2924TIP3    H2 8650   2.124   0.797   4.708
 2925TIP3   OH2 8651   2.282   0.794   4.793
 2925TIP3    H1 8652   2.364   0.760   4.755
 2925TIP3    H2 8653   2.264   0.726   4.862
 2926TIP3   OH2 8654   1.416   2.039   2.913
 2926TIP3    H1 8655   1.393   1.982   2.990
 2926TIP3    H2 8656   1.482   1.982   2.869
 2927TIP3   OH2 8657   3.101   0.856   4.583
 2927TIP3    H1 8658   3.120   0.823   4.673
 2927TIP3    H2 8659   3.189   0.849   4.540
 2928TIP3   OH2 8660   3.042   2.408   4.076
 2928TIP3    H1 8661   2.963   2.377   4.027
 2928TIP3    H2 8662   3.025   2.505   4.076
 2929TIP3   OH2 8663   4.309   1.780   2.841
 2929TIP3    H1 8664   4.281   1.872   2.822
 2929TIP3    H2 8665   4.229   1.732   2.813
 2930TIP3   OH2 8666   4.309   1.779   3.218
 2930TIP3    H1 8667   4.334   1.746   3.306
 2930TIP3    H2 8668   4.260   1.704   3.181
 2931TIP3   OH2 8669   3.603   1.682   3.595
 2931TIP3    H1 8670   3.643   1.616   3.653
 2931TIP3    H2 8671   3.680   1.714   3.545
 2932TIP3   OH2 8672   4.549   2.081   2.901
 2932TIP3    H1 8673   4.535   2.011   2.966
 2932TIP3    H2 8674   4.575   2.156   2.957
 2933TIP3   OH2 8675   3.572   2.081   3.310
 2933TIP3    H1 8676   3.554   1.991   3.276
 2933TIP3    H2 8677   3.669   2.082   3.307
 2934TIP3   OH2 8678   3.225   1.272   3.069
 2934TIP3    H1 8679   3.246   1.362   3.103
 2934TIP3    H2 8680   3.222   1.223   3.154
 2935TIP3   OH2 8681   3.353   1.579   3.256
 2935TIP3    H1 8682   3.417   1.517   3.295
 2935TIP3    H2 8683   3.413   1.645   3.213
 2936TIP3   OH2 8684   4.195   2.544   2.917
 2936TIP3    H1 8685   4.245   2.473   2.871
 2936TIP3    H2 8686   4.191   2.509   3.007
 2937TIP3   OH2 8687   4.104   2.007   3.269
 2937TIP3    H1 8688   4.136   1.930   3.220
 2937TIP3    H2 8689   4.190   2.048   3.292
 2938TIP3   OH2 8690   5.116   1.327   3.266
 2938TIP3    H1 8691   5.145   1.409   3.310
 2938TIP3    H2 8692   5.139   1.346   3.173
 2939TIP3   OH2 8693   4.518   1.509   3.304
 2939TIP3    H1 8694   4.560   1.423   3.323
 2939TIP3    H2 8695   4.487   1.495   3.213
 2940TIP3   OH2 8696   3.853   1.165   3.270
 2940TIP3    H1 8697   3.837   1.239   3.208
 2940TIP3    H2 8698   3.805   1.093   3.224
 2941TIP3   OH2 8699   4.547   1.256   2.891
 2941TIP3    H1 8700   4.620   1.241   2.956
 2941TIP3    H2 8701   4.598   1.293   2.817
 2942TIP3   OH2 8702   3.491   1.365   3.375
 2942TIP3    H1 8703   3.573   1.349   3.425
 2942TIP3    H2 8704   3.510   1.312   3.295
 2943TIP3   OH2 8705   3.936   1.574   3.178
 2943TIP3    H1 8706   4.026   1.537   3.184
 2943TIP3    H2 8707   3.887   1.504   3.131
 2944TIP3   OH2 8708   5.191   1.534   3.436
 2944TIP3    H1 8709   5.107   1.581   3.417
 2944TIP3    H2 8710   5.201   1.553   3.530
 2945TIP3   OH2 8711   3.851   1.149   3.702
 2945TIP3    H1 8712   3.793   1.188   3.635
 2945TIP3    H2 8713   3.800   1.169   3.783
 2946TIP3   OH2 8714   4.203   2.003   2.711
 2946TIP3    H1 8715   4.156   1.976   2.632
 2946TIP3    H2 8716   4.159   2.088   2.732
 2947TIP3   OH2 8717   3.962   1.927   3.502
 2947TIP3    H1 8718   3.895   1.990   3.538
 2947TIP3    H2 8719   3.999   1.979   3.428
 2948TIP3   OH2 8720   4.760   1.258   3.060
 2948TIP3    H1 8721   4.754   1.207   3.141
 2948TIP3    H2 8722   4.815   1.334   3.087
 2949TIP3   OH2 8723   3.722   1.264   3.488
 2949TIP3    H1 8724   3.784   1.338   3.510
 2949TIP3    H2 8725   3.771   1.224   3.413
 2950TIP3   OH2 8726   3.785   2.118   3.596
 2950TIP3    H1 8727   3.758   2.201   3.553
 2950TIP3    H2 8728   3.706   2.102   3.653
 2951TIP3   OH2 8729   3.186   1.810   2.835
 2951TIP3    H1 8730   3.143   1.848   2.757
 2951TIP3    H2 8731   3.225   1.888   2.879
 2952TIP3   OH2 8732   4.622   2.324   3.073
 2952TIP3    H1 8733   4.532   2.315   3.112
 2952TIP3    H2 8734   4.613   2.409   3.026
 2953TIP3   OH2 8735   4.910   1.228   3.434
 2953TIP3    H1 8736   4.822   1.257   3.404
 2953TIP3    H2 8737   4.968   1.259   3.361
 2954TIP3   OH2 8738   4.210   0.871   3.413
 2954TIP3    H1 8739   4.199   0.776   3.432
 2954TIP3    H2 8740   4.132   0.908   3.461
 2955TIP3   OH2 8741   4.327   2.372   2.749
 2955TIP3    H1 8742   4.375   2.290   2.726
 2955TIP3    H2 8743   4.385   2.438   2.705
 2956TIP3   OH2 8744   4.466   2.157   2.649
 2956TIP3    H1 8745   4.425   2.079   2.610
 2956TIP3    H2 8746   4.501   2.122   2.734
 2957TIP3   OH2 8747   4.849   2.240   3.414
 2957TIP3    H1 8748   4.836   2.161   3.356
 2957TIP3    H2 8749   4.830   2.313   3.352
 2958TIP3   OH2 8750   4.137   1.631   2.670
 2958TIP3    H1 8751   4.056   1.681   2.649
 2958TIP3    H2 8752   4.184   1.631   2.584
 2959TIP3   OH2 8753   4.096   1.416   2.389
 2959TIP3    H1 8754   4.164   1.465   2.439
 2959TIP3    H2 8755   4.153   1.352   2.342
 2960TIP3   OH2 8756   5.043   1.876   3.259
 2960TIP3    H1 8757   4.959   1.927   3.265
 2960TIP3    H2 8758   5.071   1.897   3.168
 2961TIP3   OH2 8759   4.485   1.714   2.643
 2961TIP3    H1 8760   4.430   1.739   2.722
 2961TIP3    H2 8761   4.568   1.687   2.688
 2962TIP3   OH2 8762   4.721   1.755   3.552
 2962TIP3    H1 8763   4.717   1.840   3.600
 2962TIP3    H2 8764   4.634   1.756   3.507
 2963TIP3   OH2 8765   3.846   2.126   3.207
 2963TIP3    H1 8766   3.820   2.074   3.129
 2963TIP3    H2 8767   3.936   2.091   3.225
 2964TIP3   OH2 8768   3.858   1.681   3.424
 2964TIP3    H1 8769   3.874   1.663   3.329
 2964TIP3    H2 8770   3.898   1.770   3.435
 2965TIP3   OH2 8771   4.380   2.321   3.190
 2965TIP3    H1 8772   4.365   2.400   3.245
 2965TIP3    H2 8773   4.366   2.247   3.253
 2966TIP3   OH2 8774   3.991   2.240   3.738
 2966TIP3    H1 8775   3.931   2.303   3.784
 2966TIP3    H2 8776   3.925   2.187   3.689
 2967TIP3   OH2 8777   4.327   1.572   2.469
 2967TIP3    H1 8778   4.386   1.630   2.522
 2967TIP3    H2 8779   4.354   1.598   2.377
 2968TIP3   OH2 8780   3.750   1.795   3.846
 2968TIP3    H1 8781   3.749   1.883   3.888
 2968TIP3    H2 8782   3.654   1.781   3.834
 2969TIP3   OH2 8783   4.070   2.253   2.740
 2969TIP3    H1 8784   4.144   2.309   2.767
 2969TIP3    H2 8785   4.005   2.318   2.709
 2970TIP3   OH2 8786   3.787   2.411   3.824
 2970TIP3    H1 8787   3.752   2.407   3.733
 2970TIP3    H2 8788   3.707   2.388   3.877
 2971TIP3   OH2 8789   4.842   0.815   2.516
 2971TIP3    H1 8790   4.761   0.834   2.568
 2971TIP3    H2 8791   4.853   0.898   2.467
 2972TIP3   OH2 8792   3.590   1.521   2.823
 2972TIP3    H1 8793   3.546   1.608   2.822
 2972TIP3    H2 8794   3.560   1.488   2.908
 2973TIP3   OH2 8795   4.640   2.181   2.065
 2973TIP3    H1 8796   4.648   2.278   2.051
 2973TIP3    H2 8797   4.732   2.152   2.052
 2974TIP3   OH2 8798   3.364   1.940   3.771
 2974TIP3    H1 8799   3.302   1.916   3.700
 2974TIP3    H2 8800   3.402   1.853   3.797
 2975TIP3   OH2 8801   3.218   2.132   3.407
 2975TIP3    H1 8802   3.313   2.118   3.392
 2975TIP3    H2 8803   3.218   2.211   3.462
 2976TIP3   OH2 8804   5.084   2.599   3.458
 2976TIP3    H1 8805   5.097   2.503   3.469
 2976TIP3    H2 8806   4.999   2.610   3.505
 2977TIP3   OH2 8807   4.191   2.369   3.595
 2977TIP3    H1 8808   4.190   2.462   3.626
 2977TIP3    H2 8809   4.118   2.331   3.649
 2978TIP3   OH2 8810   3.946   2.499   2.546
 2978TIP3    H1 8811   3.903   2.481   2.461
 2978TIP3    H2 8812   3.917   2.590   2.567
 2979TIP3   OH2 8813   3.387   2.348   2.930
 2979TIP3    H1 8814   3.436   2.339   3.014
 2979TIP3    H2 8815   3.335   2.266   2.932
 2980TIP3   OH2 8816   4.151   2.398   2.188
 2980TIP3    H1 8817   4.211   2.329   2.151
 2980TIP3    H2 8818   4.186   2.407   2.279
 2981TIP3   OH2 8819   4.200   2.447   2.458
 2981TIP3    H1 8820   4.112   2.456   2.502
 2981TIP3    H2 8821   4.252   2.405   2.529
 2982TIP3   OH2 8822   4.975   1.717   3.732
 2982TIP3    H1 8823   4.894   1.729   3.680
 2982TIP3    H2 8824   4.990   1.621   3.722
 2983TIP3   OH2 8825   3.570   2.122   3.763
 2983TIP3    H1 8826   3.620   2.105   3.845
 2983TIP3    H2 8827   3.496   2.058   3.769
 2984TIP3   OH2 8828   3.970   0.945   3.542
 2984TIP3    H1 8829   3.879   0.915   3.519
 2984TIP3    H2 8830   3.947   1.029   3.587
 2985TIP3   OH2 8831   4.502   1.062   3.738
 2985TIP3    H1 8832   4.570   1.034   3.802
 2985TIP3    H2 8833   4.418   1.041   3.783
 2986TIP3   OH2 8834   4.746   1.491   3.658
 2986TIP3    H1 8835   4.696   1.486   3.742
 2986TIP3    H2 8836   4.718   1.577   3.621
 2987TIP3   OH2 8837   4.400   1.623   2.211
 2987TIP3    H1 8838   4.370   1.594   2.123
 2987TIP3    H2 8839   4.482   1.671   2.188
 2988TIP3   OH2 8840   4.113   0.998   2.513
 2988TIP3    H1 8841   4.084   0.996   2.606
 2988TIP3    H2 8842   4.078   0.912   2.483
 2989TIP3   OH2 8843   3.903   1.456   3.564
 2989TIP3    H1 8844   3.852   1.481   3.644
 2989TIP3    H2 8845   3.891   1.537   3.509
 2990TIP3   OH2 8846   3.789   1.343   3.077
 2990TIP3    H1 8847   3.694   1.331   3.090
 2990TIP3    H2 8848   3.801   1.306   2.987
 2991TIP3   OH2 8849   4.275   1.433   2.803
 2991TIP3    H1 8850   4.221   1.504   2.763
 2991TIP3    H2 8851   4.330   1.405   2.727
 2992TIP3   OH2 8852   4.450   1.714   3.893
 2992TIP3    H1 8853   4.427   1.640   3.953
 2992TIP3    H2 8854   4.545   1.725   3.913
 2993TIP3   OH2 8855   4.435   1.463   3.044
 2993TIP3    H1 8856   4.375   1.494   2.974
 2993TIP3    H2 8857   4.466   1.380   3.001
 2994TIP3   OH2 8858   3.721   1.490   3.772
 2994TIP3    H1 8859   3.747   1.555   3.839
 2994TIP3    H2 8860   3.710   1.409   3.825
 2995TIP3   OH2 8861   3.767   0.964   2.481
 2995TIP3    H1 8862   3.767   0.963   2.579
 2995TIP3    H2 8863   3.690   1.020   2.463
 2996TIP3   OH2 8864   3.316   1.026   3.337
 2996TIP3    H1 8865   3.388   1.048   3.400
 2996TIP3    H2 8866   3.361   0.970   3.272
 2997TIP3   OH2 8867   3.289   0.996   2.873
 2997TIP3    H1 8868   3.328   1.025   2.788
 2997TIP3    H2 8869   3.255   1.081   2.905
 2998TIP3   OH2 8870   4.448   1.710   3.469
 2998TIP3    H1 8871   4.478   1.637   3.410
 2998TIP3    H2 8872   4.416   1.658   3.546
 2999TIP3   OH2 8873   4.110   1.168   3.138
 2999TIP3    H1 8874   4.028   1.168   3.191
 2999TIP3    H2 8875   4.178   1.171   3.208
 3000TIP3   OH2 8876   3.540   1.219   3.144
 3000TIP3    H1 8877   3.456   1.201   3.101
 3000TIP3    H2 8878   3.589   1.135   3.129
 3001TIP3   OH2 8879   3.818   1.217   2.833
 3001TIP3    H1 8880   3.912   1.238   2.815
 3001TIP3    H2 8881   3.771   1.248   2.753
 3002TIP3   OH2 8882   4.604   1.245   3.340
 3002TIP3    H1 8883   4.568   1.256   3.431
 3002TIP3    H2 8884   4.540   1.183   3.302
 3003TIP3   OH2 8885   3.655   1.241   2.607
 3003TIP3    H1 8886   3.580   1.209   2.554
 3003TIP3    H2 8887   3.708   1.287   2.539
 3004TIP3   OH2 8888   4.772   2.933   3.556
 3004TIP3    H1 8889   4.767   2.956   3.462
 3004TIP3    H2 8890   4.839   2.994   3.590
 3005TIP3   OH2 8891   3.730   2.044   3.982
 3005TIP3    H1 8892   3.810   2.075   4.028
 3005TIP3    H2 8893   3.666   2.046   4.056
 3006TIP3   OH2 8894   4.201   1.493   3.237
 3006TIP3    H1 8895   4.274   1.454   3.186
 3006TIP3    H2 8896   4.212   1.452   3.324
 3007TIP3   OH2 8897   3.715   0.989   3.111
 3007TIP3    H1 8898   3.687   0.906   3.156
 3007TIP3    H2 8899   3.774   0.957   3.042
 3008TIP3   OH2 8900   4.173   1.389   3.528
 3008TIP3    H1 8901   4.084   1.427   3.538
 3008TIP3    H2 8902   4.230   1.452   3.577
 3009TIP3   OH2 8903   3.908   1.786   2.622
 3009TIP3    H1 8904   3.837   1.720   2.611
 3009TIP3    H2 8905   3.891   1.818   2.714
 3010TIP3   OH2 8906   4.810   2.021   3.252
 3010TIP3    H1 8907   4.834   2.069   3.170
 3010TIP3    H2 8908   4.724   1.980   3.228
 3011TIP3   OH2 8909   4.367   1.099   2.479
 3011TIP3    H1 8910   4.270   1.085   2.487
 3011TIP3    H2 8911   4.379   1.193   2.503
 3012TIP3   OH2 8912   4.316   2.106   3.616
 3012TIP3    H1 8913   4.324   2.077   3.708
 3012TIP3    H2 8914   4.270   2.191   3.624
 3013TIP3   OH2 8915   4.438   1.343   2.583
 3013TIP3    H1 8916   4.534   1.349   2.600
 3013TIP3    H2 8917   4.421   1.423   2.530
 3014TIP3   OH2 8918   4.052   1.933   2.438
 3014TIP3    H1 8919   4.007   2.020   2.446
 3014TIP3    H2 8920   3.999   1.878   2.500
 3015TIP3   OH2 8921   3.475   1.731   3.912
 3015TIP3    H1 8922   3.502   1.714   4.004
 3015TIP3    H2 8923   3.411   1.659   3.895
 3016TIP3   OH2 8924   4.205   1.840   3.930
 3016TIP3    H1 8925   4.146   1.784   3.877
 3016TIP3    H2 8926   4.293   1.807   3.902
 3017TIP3   OH2 8927   4.471   2.366   3.510
 3017TIP3    H1 8928   4.375   2.359   3.522
 3017TIP3    H2 8929   4.497   2.415   3.591
 3018TIP3   OH2 8930   4.881   1.432   2.422
 3018TIP3    H1 8931   4.818   1.387   2.361
 3018TIP3    H2 8932   4.878   1.521   2.380
 3019TIP3   OH2 8933   5.100   2.291   3.502
 3019TIP3    H1 8934   5.002   2.289   3.495
 3019TIP3    H2 8935   5.124   2.262   3.412
 3020TIP3   OH2 8936   4.577   2.253   2.329
 3020TIP3    H1 8937   4.556   2.182   2.391
 3020TIP3    H2 8938   4.592   2.207   2.245
 3021TIP3   OH2 8939   4.575   1.882   3.172
 3021TIP3    H1 8940   4.482   1.855   3.184
 3021TIP3    H2 8941   4.610   1.803   3.125
 3022TIP3   OH2 8942   3.706   2.111   2.919
 3022TIP3    H1 8943   3.691   2.191   2.866
 3022TIP3    H2 8944   3.617   2.080   2.938
 3023TIP3   OH2 8945   3.248   1.418   2.628
 3023TIP3    H1 8946   3.315   1.488   2.646
 3023TIP3    H2 8947   3.167   1.467   2.648
 3024TIP3   OH2 8948   3.839   1.872   2.870
 3024TIP3    H1 8949   3.805   1.963   2.887
 3024TIP3    H2 8950   3.803   1.824   2.946
 3025TIP3   OH2 8951   3.970   2.455   3.392
 3025TIP3    H1 8952   4.010   2.527   3.340
 3025TIP3    H2 8953   4.047   2.420   3.440
 3026TIP3   OH2 8954   3.619   2.349   2.772
 3026TIP3    H1 8955   3.534   2.356   2.820
 3026TIP3    H2 8956   3.652   2.441   2.777
 3027TIP3   OH2 8957   4.363   2.089   3.347
 3027TIP3    H1 8958   4.354   2.087   3.445
 3027TIP3    H2 8959   4.440   2.032   3.334
 3028TIP3   OH2 8960   4.331   1.979   2.232
 3028TIP3    H1 8961   4.386   1.955   2.310
 3028TIP3    H2 8962   4.243   1.955   2.265
 3029TIP3   OH2 8963   4.610   2.624   3.401
 3029TIP3    H1 8964   4.532   2.565   3.394
 3029TIP3    H2 8965   4.593   2.687   3.328
 3030TIP3   OH2 8966   4.673   2.457   2.052
 3030TIP3    H1 8967   4.713   2.527   1.998
 3030TIP3    H2 8968   4.594   2.504   2.084
 3031TIP3   OH2 8969   3.695   1.233   3.920
 3031TIP3    H1 8970   3.598   1.237   3.933
 3031TIP3    H2 8971   3.722   1.171   3.989
 3032TIP3   OH2 8972   4.492   1.915   2.448
 3032TIP3    H1 8973   4.483   1.849   2.520
 3032TIP3    H2 8974   4.589   1.914   2.436
 3033TIP3   OH2 8975   3.407   2.319   3.551
 3033TIP3    H1 8976   3.460   2.242   3.575
 3033TIP3    H2 8977   3.440   2.384   3.614
 3034TIP3   OH2 8978   3.698   1.962   2.230
 3034TIP3    H1 8979   3.718   1.871   2.202
 3034TIP3    H2 8980   3.682   1.950   2.326
 3035TIP3   OH2 8981   3.645   1.965   2.503
 3035TIP3    H1 8982   3.714   1.936   2.565
 3035TIP3    H2 8983   3.652   2.063   2.511
 3036TIP3   OH2 8984   3.366   1.657   2.693
 3036TIP3    H1 8985   3.315   1.705   2.761
 3036TIP3    H2 8986   3.400   1.731   2.639
 3037TIP3   OH2 8987   4.528   1.298   3.599
 3037TIP3    H1 8988   4.609   1.334   3.638
 3037TIP3    H2 8989   4.513   1.217   3.652
 3038TIP3   OH2 8990   4.408   1.051   2.760
 3038TIP3    H1 8991   4.396   1.075   2.667
 3038TIP3    H2 8992   4.448   1.132   2.798
 3039TIP3   OH2 8993   3.910   2.164   2.450
 3039TIP3    H1 8994   3.825   2.193   2.488
 3039TIP3    H2 8995   3.929   2.237   2.390
 3040TIP3   OH2 8996   4.100   1.226   2.865
 3040TIP3    H1 8997   4.165   1.298   2.847
 3040TIP3    H2 8998   4.105   1.220   2.962
 3041TIP3   OH2 8999   4.368   1.548   3.674
 3041TIP3    H1 9000   4.386   1.602   3.753
 3041TIP3    H2 9001   4.424   1.470   3.688
 3042TIP3   OH2 9002   4.246   0.958   2.969
 3042TIP3    H1 9003   4.238   1.034   3.029
 3042TIP3    H2 9004   4.305   0.995   2.900
 3043TIP3   OH2 9005   3.651   2.239   2.518
 3043TIP3    H1 9006   3.623   2.310   2.456
 3043TIP3    H2 9007   3.637   2.282   2.605
 3044TIP3   OH2 9008   3.756   0.951   2.758
 3044TIP3    H1 9009   3.755   1.044   2.790
 3044TIP3    H2 9010   3.851   0.932   2.767
 3045TIP3   OH2 9011   5.012   1.448   3.652
 3045TIP3    H1 9012   4.914   1.447   3.661
 3045TIP3    H2 9013   5.020   1.404   3.566
 3046TIP3   OH2 9014   4.661   1.642   3.042
 3046TIP3    H1 9015   4.585   1.582   3.054
 3046TIP3    H2 9016   4.732   1.594   3.090
 3047TIP3   OH2 9017   3.370   1.881   2.506
 3047TIP3    H1 9018   3.438   1.949   2.521
 3047TIP3    H2 9019   3.419   1.824   2.444
 3048TIP3   OH2 9020   3.315   1.145   2.645
 3048TIP3    H1 9021   3.312   1.242   2.643
 3048TIP3    H2 9022   3.230   1.122   2.604
 3049TIP3   OH2 9023   4.628   2.596   2.993
 3049TIP3    H1 9024   4.585   2.643   2.918
 3049TIP3    H2 9025   4.722   2.614   2.972
 3050TIP3   OH2 9026   3.704   0.865   3.521
 3050TIP3    H1 9027   3.673   0.832   3.434
 3050TIP3    H2 9028   3.695   0.787   3.578
 3051TIP3   OH2 9029   3.248   2.097   2.905
 3051TIP3    H1 9030   3.166   2.121   2.951
 3051TIP3    H2 9031   3.229   2.127   2.814
 3052TIP3   OH2 9032   3.401   2.621   3.968
 3052TIP3    H1 9033   3.485   2.623   4.017
 3052TIP3    H2 9034   3.380   2.526   3.969
 3053TIP3   OH2 9035   3.885   2.592   4.016
 3053TIP3    H1 9036   3.979   2.571   4.022
 3053TIP3    H2 9037   3.858   2.535   3.941
 3054TIP3   OH2 9038   3.863   2.167   2.144
 3054TIP3    H1 9039   3.808   2.096   2.184
 3054TIP3    H2 9040   3.939   2.115   2.113
 3055TIP3   OH2 9041   4.522   2.496   3.748
 3055TIP3    H1 9042   4.512   2.426   3.816
 3055TIP3    H2 9043   4.599   2.547   3.781
 3056TIP3   OH2 9044   4.299   2.208   2.054
 3056TIP3    H1 9045   4.348   2.146   2.112
 3056TIP3    H2 9046   4.355   2.210   1.974
 3057TIP3   OH2 9047   3.530   2.029   4.173
 3057TIP3    H1 9048   3.549   1.933   4.171
 3057TIP3    H2 9049   3.443   2.032   4.127
 3058TIP3   OH2 9050   3.508   1.683   2.364
 3058TIP3    H1 9051   3.561   1.650   2.438
 3058TIP3    H2 9052   3.577   1.687   2.294
 3059TIP3   OH2 9053   4.140   2.115   3.944
 3059TIP3    H1 9054   4.096   2.129   3.858
 3059TIP3    H2 9055   4.169   2.022   3.938
 3060TIP3   OH2 9056   4.010   1.879   2.170
 3060TIP3    H1 9057   4.017   1.894   2.266
 3060TIP3    H2 9058   4.012   1.781   2.167
 3061TIP3   OH2 9059   4.633   2.121   3.552
 3061TIP3    H1 9060   4.704   2.171   3.506
 3061TIP3    H2 9061   4.558   2.181   3.540
 3062TIP3   OH2 9062   3.647   1.763   4.154
 3062TIP3    H1 9063   3.723   1.709   4.129
 3062TIP3    H2 9064   3.674   1.797   4.241
 3063TIP3   OH2 9065   3.714   1.588   2.584
 3063TIP3    H1 9066   3.677   1.552   2.668
 3063TIP3    H2 9067   3.750   1.508   2.542
 3064TIP3   OH2 9068   3.985   1.649   3.816
 3064TIP3    H1 9069   3.907   1.709   3.821
 3064TIP3    H2 9070   4.031   1.683   3.735
 3065TIP3   OH2 9071   3.815   1.375   2.429
 3065TIP3    H1 9072   3.789   1.379   2.335
 3065TIP3    H2 9073   3.912   1.385   2.423
 3066TIP3   OH2 9074   4.502   2.053   3.951
 3066TIP3    H1 9075   4.581   2.030   3.900
 3066TIP3    H2 9076   4.500   1.983   4.018
 3067TIP3   OH2 9077   4.639   1.712   2.089
 3067TIP3    H1 9078   4.619   1.664   2.006
 3067TIP3    H2 9079   4.608   1.802   2.063
 3068TIP3   OH2 9080   4.108   1.437   3.943
 3068TIP3    H1 9081   4.107   1.357   3.887
 3068TIP3    H2 9082   4.065   1.503   3.884
 3069TIP3   OH2 9083   4.110   1.223   3.748
 3069TIP3    H1 9084   4.137   1.266   3.664
 3069TIP3    H2 9085   4.016   1.201   3.730
 3070TIP3   OH2 9086   4.142   1.765   3.624
 3070TIP3    H1 9087   4.220   1.767   3.567
 3070TIP3    H2 9088   4.083   1.829   3.580
 3071TIP3   OH2 9089   4.723   1.729   4.005
 3071TIP3    H1 9090   4.769   1.644   4.012
 3071TIP3    H2 9091   4.792   1.786   3.969
 3072TIP3   OH2 9092   4.762   1.981   3.742
 3072TIP3    H1 9093   4.704   2.033   3.681
 3072TIP3    H2 9094   4.850   1.999   3.700
 3073TIP3   OH2 9095   3.984   1.553   4.171
 3073TIP3    H1 9096   3.916   1.484   4.183
 3073TIP3    H2 9097   4.020   1.529   4.084
 3074TIP3   OH2 9098   4.243   0.989   3.813
 3074TIP3    H1 9099   4.195   1.072   3.791
 3074TIP3    H2 9100   4.173   0.922   3.802
 3075TIP3   OH2 9101   4.368   1.495   4.031
 3075TIP3    H1 9102   4.358   1.483   4.127
 3075TIP3    H2 9103   4.278   1.470   4.001
 3076TIP3   OH2 9104   4.609   1.444   3.886
 3076TIP3    H1 9105   4.532   1.444   3.947
 3076TIP3    H2 9106   4.681   1.411   3.944
 3077TIP3   OH2 9107   4.840   1.383   4.039
 3077TIP3    H1 9108   4.851   1.287   4.057
 3077TIP3    H2 9109   4.835   1.422   4.128
 3078TIP3   OH2 9110   3.825   1.333   4.223
 3078TIP3    H1 9111   3.833   1.243   4.186
 3078TIP3    H2 9112   3.861   1.319   4.313
 3079TIP3   OH2 9113   4.339   0.999   4.071
 3079TIP3    H1 9114   4.406   0.928   4.066
 3079TIP3    H2 9115   4.299   0.992   3.982
 3080TIP3   OH2 9116   4.403   1.213   4.230
 3080TIP3    H1 9117   4.381   1.142   4.166
 3080TIP3    H2 9118   4.326   1.273   4.223
 3081TIP3   OH2 9119   3.622   2.441   2.330
 3081TIP3    H1 9120   3.718   2.439   2.313
 3081TIP3    H2 9121   3.593   2.491   2.251
 3082TIP3   OH2 9122   3.102   1.829   2.540
 3082TIP3    H1 9123   3.198   1.853   2.534
 3082TIP3    H2 9124   3.105   1.737   2.507
 3083TIP3   OH2 9125   3.013   2.436   2.962
 3083TIP3    H1 9126   2.949   2.369   2.929
 3083TIP3    H2 9127   3.061   2.383   3.029
 3084TIP3   OH2 9128   3.148   2.295   3.150
 3084TIP3    H1 9129   3.147   2.214   3.204
 3084TIP3    H2 9130   3.203   2.352   3.208
 3085TIP3   OH2 9131   4.881   2.687   2.947
 3085TIP3    H1 9132   4.908   2.724   3.032
 3085TIP3    H2 9133   4.938   2.734   2.885
 3086TIP3   OH2 9134   4.912   2.709   3.230
 3086TIP3    H1 9135   4.866   2.623   3.223
 3086TIP3    H2 9136   4.985   2.683   3.288
 3087TIP3   OH2 9137   4.958   2.385   3.802
 3087TIP3    H1 9138   4.883   2.391   3.865
 3087TIP3    H2 9139   4.995   2.475   3.807
 3088TIP3   OH2 9140   4.772   1.899   2.423
 3088TIP3    H1 9141   4.842   1.962   2.395
 3088TIP3    H2 9142   4.814   1.859   2.502
 3089TIP3   OH2 9143   4.900   1.767   2.626
 3089TIP3    H1 9144   4.835   1.723   2.685
 3089TIP3    H2 9145   4.964   1.805   2.689
 3090TIP3   OH2 9146   4.955   2.157   3.061
 3090TIP3    H1 9147   5.007   2.093   3.009
 3090TIP3    H2 9148   4.944   2.231   2.998
 3091TIP3   OH2 9149   4.788   2.458   3.255
 3091TIP3    H1 9150   4.716   2.499   3.306
 3091TIP3    H2 9151   4.738   2.409   3.186
 3092TIP3   OH2 9152   4.839   1.673   2.274
 3092TIP3    H1 9153   4.767   1.676   2.207
 3092TIP3    H2 9154   4.812   1.750   2.329
 3093TIP3   OH2 9155   4.708   1.348   2.231
 3093TIP3    H1 9156   4.671   1.387   2.151
 3093TIP3    H2 9157   4.683   1.253   2.219
 3094TIP3   OH2 9158   4.715   1.621   2.773
 3094TIP3    H1 9159   4.724   1.524   2.769
 3094TIP3    H2 9160   4.702   1.636   2.869
 3095TIP3   OH2 9161   3.341   1.694   3.518
 3095TIP3    H1 9162   3.343   1.668   3.424
 3095TIP3    H2 9163   3.438   1.699   3.538
 3096TIP3   OH2 9164   5.004   2.046   3.630
 3096TIP3    H1 9165   5.077   1.981   3.621
 3096TIP3    H2 9166   5.029   2.114   3.566
 3097TIP3   OH2 9167   5.193   1.856   3.652
 3097TIP3    H1 9168   5.116   1.805   3.688
 3097TIP3    H2 9169   5.264   1.789   3.664
 3098TIP3   OH2 9170   4.653   1.081   2.217
 3098TIP3    H1 9171   4.731   1.051   2.269
 3098TIP3    H2 9172   4.583   1.020   2.243
 3099TIP3   OH2 9173   4.710   1.337   2.670
 3099TIP3    H1 9174   4.751   1.249   2.685
 3099TIP3    H2 9175   4.769   1.370   2.600
 3100TIP3   OH2 9176   4.874   1.514   3.163
 3100TIP3    H1 9177   4.960   1.541   3.124
 3100TIP3    H2 9178   4.887   1.550   3.253
 3101TIP3   OH2 9179   4.941   1.656   3.397
 3101TIP3    H1 9180   4.862   1.690   3.444
 3101TIP3    H2 9181   4.973   1.737   3.351
 3102TIP3   OH2 9182   3.558   1.384   4.196
 3102TIP3    H1 9183   3.655   1.376   4.195
 3102TIP3    H2 9184   3.534   1.298   4.237
 3103TIP3   OH2 9185   5.392   1.245   3.952
 3103TIP3    H1 9186   5.451   1.179   3.910
 3103TIP3    H2 9187   5.367   1.302   3.877
 3104TIP3   OH2 9188   4.819   1.087   2.707
 3104TIP3    H1 9189   4.868   1.071   2.790
 3104TIP3    H2 9190   4.760   1.010   2.705
 3105TIP3   OH2 9191   3.518   1.071   3.522
 3105TIP3    H1 9192   3.582   0.999   3.536
 3105TIP3    H2 9193   3.577   1.148   3.520
 3106TIP3   OH2 9194   3.325   1.348   3.600
 3106TIP3    H1 9195   3.374   1.341   3.516
 3106TIP3    H2 9196   3.351   1.436   3.630
 3107TIP3   OH2 9197   5.266   1.389   3.758
 3107TIP3    H1 9198   5.177   1.426   3.778
 3107TIP3    H2 9199   5.241   1.316   3.699
 3108TIP3   OH2 9200   4.903   1.024   2.337
 3108TIP3    H1 9201   4.943   0.951   2.287
 3108TIP3    H2 9202   4.970   1.094   2.329
 3109TIP3   OH2 9203   3.305   0.849   3.100
 3109TIP3    H1 9204   3.212   0.844   3.128
 3109TIP3    H2 9205   3.300   0.905   3.020
 3110TIP3   OH2 9206   4.465   2.555   2.605
 3110TIP3    H1 9207   4.515   2.537   2.523
 3110TIP3    H2 9208   4.520   2.621   2.648
 3111TIP3   OH2 9209   3.526   0.933   3.915
 3111TIP3    H1 9210   3.475   0.926   3.997
 3111TIP3    H2 9211   3.458   0.971   3.855
 3112TIP3   OH2 9212   3.568   2.355   3.992
 3112TIP3    H1 9213   3.476   2.328   3.973
 3112TIP3    H2 9214   3.574   2.343   4.087
 3113TIP3   OH2 9215   3.742   2.390   3.539
 3113TIP3    H1 9216   3.695   2.466   3.500
 3113TIP3    H2 9217   3.828   2.403   3.495
 3114TIP3   OH2 9218   4.191   2.635   3.677
 3114TIP3    H1 9219   4.233   2.637   3.766
 3114TIP3    H2 9220   4.257   2.686   3.624
 3115TIP3   OH2 9221   4.369   2.786   3.533
 3115TIP3    H1 9222   4.440   2.734   3.493
 3115TIP3    H2 9223   4.420   2.843   3.595
 3116TIP3   OH2 9224   5.163   1.150   3.636
 3116TIP3    H1 9225   5.071   1.144   3.603
 3116TIP3    H2 9226   5.193   1.057   3.623
 3117TIP3   OH2 9227   3.422   2.648   3.561
 3117TIP3    H1 9228   3.333   2.683   3.538
 3117TIP3    H2 9229   3.431   2.682   3.651
 3118TIP3   OH2 9230   3.658   2.627   3.419
 3118TIP3    H1 9231   3.572   2.640   3.465
 3118TIP3    H2 9232   3.637   2.660   3.329
 3119TIP3   OH2 9233   4.084   2.657   3.216
 3119TIP3    H1 9234   4.014   2.678   3.151
 3119TIP3    H2 9235   4.096   2.744   3.260
 3120TIP3   OH2 9236   4.352   2.597   3.268
 3120TIP3    H1 9237   4.257   2.612   3.249
 3120TIP3    H2 9238   4.392   2.675   3.226
 3121TIP3   OH2 9239   4.563   2.789   3.185
 3121TIP3    H1 9240   4.547   2.873   3.137
 3121TIP3    H2 9241   4.586   2.728   3.112
 3122TIP3   OH2 9242   3.331   2.442   3.308
 3122TIP3    H1 9243   3.359   2.417   3.399
 3122TIP3    H2 9244   3.404   2.398   3.257
 3123TIP3   OH2 9245   3.525   2.314   3.163
 3123TIP3    H1 9246   3.541   2.228   3.208
 3123TIP3    H2 9247   3.616   2.349   3.158
 3124TIP3   OH2 9248   3.792   2.409   3.163
 3124TIP3    H1 9249   3.821   2.317   3.150
 3124TIP3    H2 9250   3.833   2.428   3.249
 3125TIP3   OH2 9251   4.368   1.065   3.253
 3125TIP3    H1 9252   4.324   0.996   3.306
 3125TIP3    H2 9253   4.439   1.015   3.208
 3126TIP3   OH2 9254   4.893   0.946   3.161
 3126TIP3    H1 9255   4.929   0.997   3.085
 3126TIP3    H2 9256   4.797   0.963   3.153
 3127TIP3   OH2 9257   4.987   1.046   2.924
 3127TIP3    H1 9258   5.059   0.995   2.883
 3127TIP3    H2 9259   5.020   1.138   2.908
 3128TIP3   OH2 9260   3.616   0.773   3.272
 3128TIP3    H1 9261   3.525   0.737   3.272
 3128TIP3    H2 9262   3.668   0.690   3.269
 3129TIP3   OH2 9263   3.394   0.640   2.916
 3129TIP3    H1 9264   3.432   0.698   2.847
 3129TIP3    H2 9265   3.372   0.705   2.986
 3130TIP3   OH2 9266   4.056   0.809   3.151
 3130TIP3    H1 9267   4.117   0.858   3.093
 3130TIP3    H2 9268   4.080   0.843   3.238
 3131TIP3   OH2 9269   4.610   0.951   3.136
 3131TIP3    H1 9270   4.606   0.916   3.046
 3131TIP3    H2 9271   4.595   0.870   3.190
 3132TIP3   OH2 9272   4.637   0.873   2.697
 3132TIP3    H1 9273   4.549   0.915   2.706
 3132TIP3    H2 9274   4.622   0.789   2.744
 3133TIP3   OH2 9275   3.119   2.209   2.696
 3133TIP3    H1 9276   3.034   2.179   2.660
 3133TIP3    H2 9277   3.109   2.305   2.688
 3134TIP3   OH2 9278   3.519   0.805   2.682
 3134TIP3    H1 9279   3.571   0.742   2.627
 3134TIP3    H2 9280   3.591   0.860   2.719
 3135TIP3   OH2 9281   4.034   0.975   2.781
 3135TIP3    H1 9282   4.094   0.931   2.842
 3135TIP3    H2 9283   4.052   1.069   2.805
 3136TIP3   OH2 9284   3.891   2.405   2.280
 3136TIP3    H1 9285   3.980   2.426   2.245
 3136TIP3    H2 9286   3.870   2.329   2.221
 3137TIP3   OH2 9287   4.610   2.520   2.373
 3137TIP3    H1 9288   4.601   2.422   2.359
 3137TIP3    H2 9289   4.566   2.553   2.291
 3138TIP3   OH2 9290   3.824   1.054   4.162
 3138TIP3    H1 9291   3.792   0.983   4.220
 3138TIP3    H2 9292   3.919   1.056   4.188
 3139TIP3   OH2 9293   4.073   1.052   4.281
 3139TIP3    H1 9294   4.158   1.026   4.241
 3139TIP3    H2 9295   4.061   0.982   4.348
 3140TIP3   OH2 9296   3.195   2.236   2.340
 3140TIP3    H1 9297   3.197   2.266   2.432
 3140TIP3    H2 9298   3.285   2.198   2.328
 3141TIP3   OH2 9299   4.897   1.112   4.069
 3141TIP3    H1 9300   4.917   1.080   4.160
 3141TIP3    H2 9301   4.985   1.107   4.026
 3142TIP3   OH2 9302   4.837   2.665   3.564
 3142TIP3    H1 9303   4.759   2.631   3.515
 3142TIP3    H2 9304   4.815   2.760   3.564
 3143TIP3   OH2 9305   6.094   2.036   2.342
 3143TIP3    H1 9306   6.071   2.127   2.315
 3143TIP3    H2 9307   6.025   1.986   2.295
 3144TIP3   OH2 9308   6.093   2.042   2.711
 3144TIP3    H1 9309   6.130   2.000   2.791
 3144TIP3    H2 9310   6.064   1.965   2.659
 3145TIP3   OH2 9311   5.402   1.935   3.075
 3145TIP3    H1 9312   5.434   1.867   3.137
 3145TIP3    H2 9313   5.484   1.984   3.058
 3146TIP3   OH2 9314   6.343   2.340   2.388
 3146TIP3    H1 9315   6.334   2.265   2.448
 3146TIP3    H2 9316   6.372   2.411   2.447
 3147TIP3   OH2 9317   5.376   2.342   2.807
 3147TIP3    H1 9318   5.365   2.244   2.806
 3147TIP3    H2 9319   5.472   2.348   2.789
 3148TIP3   OH2 9320   5.079   1.548   2.587
 3148TIP3    H1 9321   5.029   1.631   2.597
 3148TIP3    H2 9322   5.010   1.490   2.549
 3149TIP3   OH2 9323   5.141   1.834   2.753
 3149TIP3    H1 9324   5.189   1.757   2.791
 3149TIP3    H2 9325   5.198   1.857   2.678
 3150TIP3   OH2 9326   5.993   2.800   2.405
 3150TIP3    H1 9327   6.040   2.730   2.355
 3150TIP3    H2 9328   5.990   2.762   2.494
 3151TIP3   OH2 9329   5.900   2.262   2.757
 3151TIP3    H1 9330   5.936   2.184   2.712
 3151TIP3    H2 9331   5.986   2.306   2.779
 3152TIP3   OH2 9332   6.915   1.581   2.755
 3152TIP3    H1 9333   6.942   1.666   2.795
 3152TIP3    H2 9334   6.928   1.600   2.661
 3153TIP3   OH2 9335   6.303   1.760   2.796
 3153TIP3    H1 9336   6.354   1.678   2.809
 3153TIP3    H2 9337   6.290   1.759   2.700
 3154TIP3   OH2 9338   5.648   1.424   2.756
 3154TIP3    H1 9339   5.629   1.496   2.693
 3154TIP3    H2 9340   5.602   1.350   2.711
 3155TIP3   OH2 9341   6.346   1.516   2.377
 3155TIP3    H1 9342   6.422   1.500   2.437
 3155TIP3    H2 9343   6.389   1.571   2.309
 3156TIP3   OH2 9344   5.285   1.626   2.862
 3156TIP3    H1 9345   5.368   1.605   2.908
 3156TIP3    H2 9346   5.295   1.570   2.782
 3157TIP3   OH2 9347   5.725   1.824   2.656
 3157TIP3    H1 9348   5.819   1.798   2.667
 3157TIP3    H2 9349   5.687   1.740   2.622
 3158TIP3   OH2 9350   6.988   1.791   2.924
 3158TIP3    H1 9351   6.905   1.838   2.903
 3158TIP3    H2 9352   6.997   1.813   3.018
 3159TIP3   OH2 9353   5.648   1.407   3.189
 3159TIP3    H1 9354   5.587   1.443   3.121
 3159TIP3    H2 9355   5.596   1.425   3.270
 3160TIP3   OH2 9356   5.995   2.256   2.202
 3160TIP3    H1 9357   5.958   2.232   2.116
 3160TIP3    H2 9358   5.951   2.342   2.219
 3161TIP3   OH2 9359   5.755   2.182   2.987
 3161TIP3    H1 9360   5.690   2.247   3.023
 3161TIP3    H2 9361   5.796   2.232   2.914
 3162TIP3   OH2 9362   6.556   1.508   2.551
 3162TIP3    H1 9363   6.553   1.471   2.640
 3162TIP3    H2 9364   6.609   1.588   2.564
 3163TIP3   OH2 9365   5.518   1.522   2.974
 3163TIP3    H1 9366   5.581   1.594   2.996
 3163TIP3    H2 9367   5.565   1.480   2.898
 3164TIP3   OH2 9368   5.580   2.375   3.086
 3164TIP3    H1 9369   5.553   2.454   3.036
 3164TIP3    H2 9370   5.500   2.360   3.140
 3165TIP3   OH2 9371   4.978   2.065   2.318
 3165TIP3    H1 9372   4.937   2.090   2.233
 3165TIP3    H2 9373   5.007   2.151   2.354
 3166TIP3   OH2 9374   6.418   2.581   2.562
 3166TIP3    H1 9375   6.327   2.572   2.598
 3166TIP3    H2 9376   6.410   2.665   2.513
 3167TIP3   OH2 9377   6.706   1.483   2.920
 3167TIP3    H1 9378   6.618   1.512   2.890
 3167TIP3    H2 9379   6.764   1.515   2.848
 3168TIP3   OH2 9380   6.007   1.125   2.904
 3168TIP3    H1 9381   5.991   1.030   2.921
 3168TIP3    H2 9382   5.929   1.165   2.948
 3169TIP3   OH2 9383   6.119   2.629   2.234
 3169TIP3    H1 9384   6.168   2.546   2.212
 3169TIP3    H2 9385   6.179   2.694   2.191
 3170TIP3   OH2 9386   6.259   2.414   2.136
 3170TIP3    H1 9387   6.231   2.333   2.091
 3170TIP3    H2 9388   6.294   2.378   2.220
 3171TIP3   OH2 9389   6.643   2.495   2.901
 3171TIP3    H1 9390   6.633   2.418   2.842
 3171TIP3    H2 9391   6.626   2.570   2.839
 3172TIP3   OH2 9392   5.936   1.891   2.158
 3172TIP3    H1 9393   5.855   1.940   2.131
 3172TIP3    H2 9394   5.986   1.887   2.075
 3173TIP3   OH2 9395   5.893   1.672   1.878
 3173TIP3    H1 9396   5.962   1.722   1.925
 3173TIP3    H2 9397   5.949   1.608   1.829
 3174TIP3   OH2 9398   6.839   2.133   2.747
 3174TIP3    H1 9399   6.755   2.184   2.752
 3174TIP3    H2 9400   6.866   2.154   2.655
 3175TIP3   OH2 9401   6.265   1.986   2.127
 3175TIP3    H1 9402   6.230   2.001   2.218
 3175TIP3    H2 9403   6.343   1.928   2.146
 3176TIP3   OH2 9404   6.517   2.011   3.039
 3176TIP3    H1 9405   6.512   2.096   3.087
 3176TIP3    H2 9406   6.431   2.013   2.992
 3177TIP3   OH2 9407   5.513   1.970   2.547
 3177TIP3    H1 9408   5.471   1.912   2.480
 3177TIP3    H2 9409   5.590   1.916   2.575
 3178TIP3   OH2 9410   5.641   2.376   2.698
 3178TIP3    H1 9411   5.621   2.336   2.612
 3178TIP3    H2 9412   5.733   2.345   2.714
 3179TIP3   OH2 9413   5.649   1.941   2.902
 3179TIP3    H1 9414   5.682   1.918   2.813
 3179TIP3    H2 9415   5.694   2.026   2.920
 3180TIP3   OH2 9416   6.173   2.579   2.677
 3180TIP3    H1 9417   6.161   2.657   2.734
 3180TIP3    H2 9418   6.162   2.504   2.739
 3181TIP3   OH2 9419   5.786   2.500   3.223
 3181TIP3    H1 9420   5.723   2.552   3.275
 3181TIP3    H2 9421   5.724   2.442   3.173
 3182TIP3   OH2 9422   6.121   1.827   1.957
 3182TIP3    H1 9423   6.180   1.886   2.010
 3182TIP3    H2 9424   6.149   1.851   1.865
 3183TIP3   OH2 9425   5.541   2.057   3.324
 3183TIP3    H1 9426   5.542   2.141   3.373
 3183TIP3    H2 9427   5.446   2.034   3.328
 3184TIP3   OH2 9428   5.861   2.513   2.234
 3184TIP3    H1 9429   5.941   2.565   2.252
 3184TIP3    H2 9430   5.803   2.576   2.191
 3185TIP3   OH2 9431   5.547   2.655   3.309
 3185TIP3    H1 9432   5.564   2.672   3.213
 3185TIP3    H2 9433   5.466   2.603   3.299
 3186TIP3   OH2 9434   6.638   1.069   2.003
 3186TIP3    H1 9435   6.558   1.092   2.056
 3186TIP3    H2 9436   6.654   1.155   1.959
 3187TIP3   OH2 9437   5.378   1.812   2.356
 3187TIP3    H1 9438   5.315   1.857   2.295
 3187TIP3    H2 9439   5.338   1.725   2.363
 3188TIP3   OH2 9440   6.435   2.439   1.551
 3188TIP3    H1 9441   6.444   2.536   1.538
 3188TIP3    H2 9442   6.528   2.409   1.538
 3189TIP3   OH2 9443   5.167   2.200   3.255
 3189TIP3    H1 9444   5.099   2.176   3.188
 3189TIP3    H2 9445   5.200   2.111   3.282
 3190TIP3   OH2 9446   5.014   2.387   2.894
 3190TIP3    H1 9447   5.110   2.383   2.880
 3190TIP3    H2 9448   5.004   2.469   2.943
 3191TIP3   OH2 9449   6.881   2.838   2.946
 3191TIP3    H1 9450   6.879   2.741   2.958
 3191TIP3    H2 9451   6.797   2.863   2.991
 3192TIP3   OH2 9452   5.989   2.627   3.081
 3192TIP3    H1 9453   5.987   2.720   3.112
 3192TIP3    H2 9454   5.917   2.588   3.134
 3193TIP3   OH2 9455   5.743   2.755   2.034
 3193TIP3    H1 9456   5.700   2.735   1.948
 3193TIP3    H2 9457   5.713   2.845   2.053
 3194TIP3   OH2 9458   5.183   2.606   2.415
 3194TIP3    H1 9459   5.231   2.595   2.500
 3194TIP3    H2 9460   5.124   2.529   2.419
 3195TIP3   OH2 9461   5.948   2.656   1.674
 3195TIP3    H1 9462   6.007   2.586   1.637
 3195TIP3    H2 9463   5.982   2.664   1.766
 3196TIP3   OH2 9464   5.997   2.704   1.945
 3196TIP3    H1 9465   5.909   2.713   1.988
 3196TIP3    H2 9466   6.048   2.660   2.015
 3197TIP3   OH2 9467   6.770   1.972   3.220
 3197TIP3    H1 9468   6.691   1.985   3.166
 3197TIP3    H2 9469   6.785   1.876   3.209
 3198TIP3   OH2 9470   5.366   2.392   3.260
 3198TIP3    H1 9471   5.418   2.357   3.336
 3198TIP3    H2 9472   5.293   2.326   3.256
 3199TIP3   OH2 9473   5.766   1.202   3.028
 3199TIP3    H1 9474   5.676   1.171   3.004
 3199TIP3    H2 9475   5.742   1.286   3.073
 3200TIP3   OH2 9476   6.299   1.316   3.224
 3200TIP3    H1 9477   6.366   1.291   3.290
 3200TIP3    H2 9478   6.214   1.297   3.269
 3201TIP3   OH2 9479   6.542   1.747   3.144
 3201TIP3    H1 9480   6.492   1.743   3.229
 3201TIP3    H2 9481   6.515   1.833   3.107
 3202TIP3   OH2 9482   6.194   1.880   1.700
 3202TIP3    H1 9483   6.165   1.851   1.612
 3202TIP3    H2 9484   6.278   1.925   1.678
 3203TIP3   OH2 9485   5.909   1.254   2.000
 3203TIP3    H1 9486   5.879   1.251   2.093
 3203TIP3    H2 9487   5.874   1.169   1.968
 3204TIP3   OH2 9488   5.697   1.717   3.049
 3204TIP3    H1 9489   5.646   1.739   3.130
 3204TIP3    H2 9490   5.681   1.798   2.995
 3205TIP3   OH2 9491   5.581   1.604   2.563
 3205TIP3    H1 9492   5.488   1.577   2.579
 3205TIP3    H2 9493   5.596   1.564   2.475
 3206TIP3   OH2 9494   6.070   1.686   2.286
 3206TIP3    H1 9495   6.019   1.760   2.246
 3206TIP3    H2 9496   6.134   1.665   2.215
 3207TIP3   OH2 9497   6.246   1.972   3.381
 3207TIP3    H1 9498   6.224   1.897   3.441
 3207TIP3    H2 9499   6.341   1.982   3.399
 3208TIP3   OH2 9500   6.224   1.717   2.531
 3208TIP3    H1 9501   6.173   1.751   2.456
 3208TIP3    H2 9502   6.261   1.637   2.489
 3209TIP3   OH2 9503   5.516   1.748   3.259
 3209TIP3    H1 9504   5.545   1.808   3.329
 3209TIP3    H2 9505   5.504   1.664   3.308
 3210TIP3   OH2 9506   5.566   1.223   1.968
 3210TIP3    H1 9507   5.559   1.220   2.065
 3210TIP3    H2 9508   5.486   1.274   1.945
 3211TIP3   OH2 9509   5.109   1.271   2.839
 3211TIP3    H1 9510   5.186   1.301   2.891
 3211TIP3    H2 9511   5.148   1.236   2.757
 3212TIP3   OH2 9512   5.086   1.250   2.359
 3212TIP3    H1 9513   5.131   1.289   2.280
 3212TIP3    H2 9514   5.025   1.323   2.380
 3213TIP3   OH2 9515   6.242   1.966   2.956
 3213TIP3    H1 9516   6.271   1.893   2.897
 3213TIP3    H2 9517   6.212   1.914   3.033
 3214TIP3   OH2 9518   5.906   1.422   2.626
 3214TIP3    H1 9519   5.824   1.423   2.678
 3214TIP3    H2 9520   5.974   1.433   2.695
 3215TIP3   OH2 9521   5.342   1.480   2.635
 3215TIP3    H1 9522   5.248   1.487   2.607
 3215TIP3    H2 9523   5.367   1.389   2.610
 3216TIP3   OH2 9524   5.614   1.480   2.320
 3216TIP3    H1 9525   5.709   1.493   2.300
 3216TIP3    H2 9526   5.569   1.503   2.236
 3217TIP3   OH2 9527   6.404   1.499   2.831
 3217TIP3    H1 9528   6.363   1.513   2.919
 3217TIP3    H2 9529   6.337   1.442   2.788
 3218TIP3   OH2 9530   5.450   1.512   2.100
 3218TIP3    H1 9531   5.379   1.467   2.051
 3218TIP3    H2 9532   5.503   1.547   2.026
 3219TIP3   OH2 9533   6.568   3.190   3.044
 3219TIP3    H1 9534   6.566   3.213   2.949
 3219TIP3    H2 9535   6.646   3.241   3.075
 3220TIP3   OH2 9536   5.528   2.309   3.471
 3220TIP3    H1 9537   5.610   2.322   3.522
 3220TIP3    H2 9538   5.463   2.294   3.543
 3221TIP3   OH2 9539   5.992   1.748   2.719
 3221TIP3    H1 9540   6.068   1.720   2.666
 3221TIP3    H2 9541   6.012   1.710   2.806
 3222TIP3   OH2 9542   5.517   1.243   2.598
 3222TIP3    H1 9543   5.485   1.161   2.642
 3222TIP3    H2 9544   5.568   1.207   2.524
 3223TIP3   OH2 9545   5.968   1.644   3.018
 3223TIP3    H1 9546   5.880   1.684   3.026
 3223TIP3    H2 9547   6.027   1.707   3.064
 3224TIP3   OH2 9548   5.703   2.044   2.105
 3224TIP3    H1 9549   5.632   1.977   2.096
 3224TIP3    H2 9550   5.688   2.076   2.198
 3225TIP3   OH2 9551   6.606   2.278   2.739
 3225TIP3    H1 9552   6.630   2.325   2.656
 3225TIP3    H2 9553   6.520   2.236   2.715
 3226TIP3   OH2 9554   6.167   1.355   1.969
 3226TIP3    H1 9555   6.069   1.348   1.975
 3226TIP3    H2 9556   6.186   1.449   1.991
 3227TIP3   OH2 9557   6.103   2.357   3.104
 3227TIP3    H1 9558   6.128   2.335   3.195
 3227TIP3    H2 9559   6.070   2.448   3.111
 3228TIP3   OH2 9560   6.247   1.603   2.064
 3228TIP3    H1 9561   6.337   1.635   2.085
 3228TIP3    H2 9562   6.215   1.679   2.012
 3229TIP3   OH2 9563   5.398   2.064   2.784
 3229TIP3    H1 9564   5.434   2.037   2.698
 3229TIP3    H2 9565   5.436   1.998   2.843
 3230TIP3   OH2 9566   5.850   2.192   1.925
 3230TIP3    H1 9567   5.804   2.278   1.935
 3230TIP3    H2 9568   5.797   2.136   1.986
 3231TIP3   OH2 9569   5.274   1.986   3.396
 3231TIP3    H1 9570   5.295   1.968   3.490
 3231TIP3    H2 9571   5.207   1.919   3.377
 3232TIP3   OH2 9572   6.001   2.097   3.416
 3232TIP3    H1 9573   5.944   2.039   3.363
 3232TIP3    H2 9574   6.090   2.064   3.389
 3233TIP3   OH2 9575   6.267   2.619   3.000
 3233TIP3    H1 9576   6.171   2.617   3.009
 3233TIP3    H2 9577   6.293   2.672   3.078
 3234TIP3   OH2 9578   6.704   1.685   1.876
 3234TIP3    H1 9579   6.620   1.642   1.849
 3234TIP3    H2 9580   6.679   1.777   1.861
 3235TIP3   OH2 9581   6.893   2.548   2.990
 3235TIP3    H1 9582   6.795   2.542   2.981
 3235TIP3    H2 9583   6.919   2.517   2.899
 3236TIP3   OH2 9584   6.376   2.509   1.817
 3236TIP3    H1 9585   6.352   2.437   1.877
 3236TIP3    H2 9586   6.387   2.462   1.732
 3237TIP3   OH2 9587   6.368   2.146   2.665
 3237TIP3    H1 9588   6.275   2.119   2.671
 3237TIP3    H2 9589   6.406   2.064   2.626
 3238TIP3   OH2 9590   5.497   2.368   2.413
 3238TIP3    H1 9591   5.502   2.447   2.356
 3238TIP3    H2 9592   5.402   2.350   2.411
 3239TIP3   OH2 9593   5.060   1.672   2.109
 3239TIP3    H1 9594   5.108   1.755   2.129
 3239TIP3    H2 9595   4.984   1.678   2.170
 3240TIP3   OH2 9596   5.638   2.134   2.354
 3240TIP3    H1 9597   5.604   2.224   2.373
 3240TIP3    H2 9598   5.602   2.084   2.429
 3241TIP3   OH2 9599   5.767   2.711   2.879
 3241TIP3    H1 9600   5.806   2.783   2.825
 3241TIP3    H2 9601   5.847   2.676   2.922
 3242TIP3   OH2 9602   5.419   2.605   2.262
 3242TIP3    H1 9603   5.332   2.614   2.306
 3242TIP3    H2 9604   5.450   2.698   2.263
 3243TIP3   OH2 9605   6.159   2.348   2.834
 3243TIP3    H1 9606   6.151   2.340   2.932
 3243TIP3    H2 9607   6.235   2.290   2.816
 3244TIP3   OH2 9608   6.128   2.237   1.717
 3244TIP3    H1 9609   6.183   2.214   1.796
 3244TIP3    H2 9610   6.041   2.209   1.749
 3245TIP3   OH2 9611   6.404   2.882   2.888
 3245TIP3    H1 9612   6.326   2.824   2.878
 3245TIP3    H2 9613   6.390   2.946   2.815
 3246TIP3   OH2 9614   6.470   2.714   1.538
 3246TIP3    H1 9615   6.507   2.786   1.484
 3246TIP3    H2 9616   6.390   2.759   1.572
 3247TIP3   OH2 9617   5.490   1.491   3.406
 3247TIP3    H1 9618   5.394   1.494   3.419
 3247TIP3    H2 9619   5.518   1.428   3.475
 3248TIP3   OH2 9620   6.288   2.180   1.935
 3248TIP3    H1 9621   6.274   2.112   2.005
 3248TIP3    H2 9622   6.385   2.171   1.923
 3249TIP3   OH2 9623   5.205   2.577   3.034
 3249TIP3    H1 9624   5.252   2.497   3.063
 3249TIP3    H2 9625   5.233   2.642   3.099
 3250TIP3   OH2 9626   5.496   2.219   1.718
 3250TIP3    H1 9627   5.512   2.128   1.686
 3250TIP3    H2 9628   5.478   2.204   1.813
 3251TIP3   OH2 9629   5.442   2.222   1.992
 3251TIP3    H1 9630   5.516   2.195   2.048
 3251TIP3    H2 9631   5.448   2.320   1.997
 3252TIP3   OH2 9632   5.179   1.917   2.192
 3252TIP3    H1 9633   5.113   1.962   2.249
 3252TIP3    H2 9634   5.195   1.986   2.126
 3253TIP3   OH2 9635   6.321   1.557   3.089
 3253TIP3    H1 9636   6.405   1.591   3.123
 3253TIP3    H2 9637   6.309   1.474   3.139
 3254TIP3   OH2 9638   6.203   1.310   2.248
 3254TIP3    H1 9639   6.192   1.331   2.154
 3254TIP3    H2 9640   6.248   1.390   2.282
 3255TIP3   OH2 9641   5.707   2.422   1.941
 3255TIP3    H1 9642   5.620   2.452   1.974
 3255TIP3    H2 9643   5.724   2.488   1.873
 3256TIP3   OH2 9644   5.896   1.483   2.351
 3256TIP3    H1 9645   5.962   1.552   2.330
 3256TIP3    H2 9646   5.903   1.479   2.449
 3257TIP3   OH2 9647   6.163   1.804   3.162
 3257TIP3    H1 9648   6.184   1.856   3.242
 3257TIP3    H2 9649   6.220   1.726   3.172
 3258TIP3   OH2 9650   6.045   1.216   2.458
 3258TIP3    H1 9651   6.031   1.295   2.513
 3258TIP3    H2 9652   6.102   1.254   2.387
 3259TIP3   OH2 9653   5.448   2.497   2.005
 3259TIP3    H1 9654   5.419   2.566   1.941
 3259TIP3    H2 9655   5.433   2.541   2.091
 3260TIP3   OH2 9656   5.551   1.208   2.246
 3260TIP3    H1 9657   5.550   1.300   2.279
 3260TIP3    H2 9658   5.647   1.190   2.253
 3261TIP3   OH2 9659   6.808   1.704   3.139
 3261TIP3    H1 9660   6.710   1.702   3.148
 3261TIP3    H2 9661   6.817   1.666   3.050
 3262TIP3   OH2 9662   6.450   1.907   2.565
 3262TIP3    H1 9663   6.391   1.846   2.519
 3262TIP3    H2 9664   6.531   1.853   2.575
 3263TIP3   OH2 9665   5.167   2.130   1.999
 3263TIP3    H1 9666   5.233   2.202   2.008
 3263TIP3    H2 9667   5.214   2.075   1.932
 3264TIP3   OH2 9668   5.114   1.402   2.134
 3264TIP3    H1 9669   5.113   1.500   2.127
 3264TIP3    H2 9670   5.032   1.378   2.089
 3265TIP3   OH2 9671   6.424   2.853   2.480
 3265TIP3    H1 9672   6.382   2.900   2.405
 3265TIP3    H2 9673   6.518   2.871   2.459
 3266TIP3   OH2 9674   5.501   1.123   3.008
 3266TIP3    H1 9675   5.470   1.090   2.921
 3266TIP3    H2 9676   5.490   1.044   3.065
 3267TIP3   OH2 9677   5.044   2.344   2.392
 3267TIP3    H1 9678   4.965   2.374   2.438
 3267TIP3    H2 9679   5.026   2.380   2.302
 3268TIP3   OH2 9680   5.199   2.859   3.451
 3268TIP3    H1 9681   5.223   2.864   3.544
 3268TIP3    H2 9682   5.162   2.768   3.445
 3269TIP3   OH2 9683   5.664   2.820   3.508
 3269TIP3    H1 9684   5.757   2.843   3.529
 3269TIP3    H2 9685   5.671   2.805   3.412
 3270TIP3   OH2 9686   5.661   2.423   1.634
 3270TIP3    H1 9687   5.604   2.351   1.670
 3270TIP3    H2 9688   5.735   2.371   1.599
 3271TIP3   OH2 9689   6.313   2.755   3.238
 3271TIP3    H1 9690   6.308   2.683   3.305
 3271TIP3    H2 9691   6.394   2.803   3.266
 3272TIP3   OH2 9692   6.097   2.466   1.541
 3272TIP3    H1 9693   6.141   2.400   1.599
 3272TIP3    H2 9694   6.154   2.465   1.462
 3273TIP3   OH2 9695   5.328   2.287   3.659
 3273TIP3    H1 9696   5.342   2.191   3.666
 3273TIP3    H2 9697   5.240   2.289   3.615
 3274TIP3   OH2 9698   5.303   1.941   1.851
 3274TIP3    H1 9699   5.358   1.905   1.922
 3274TIP3    H2 9700   5.370   1.945   1.778
 3275TIP3   OH2 9701   5.930   2.369   3.433
 3275TIP3    H1 9702   5.897   2.382   3.343
 3275TIP3    H2 9703   5.966   2.277   3.429
 3276TIP3   OH2 9704   5.809   2.137   1.657
 3276TIP3    H1 9705   5.814   2.150   1.754
 3276TIP3    H2 9706   5.810   2.038   1.653
 3277TIP3   OH2 9707   6.429   2.380   3.040
 3277TIP3    H1 9708   6.502   2.424   2.993
 3277TIP3    H2 9709   6.356   2.443   3.023
 3278TIP3   OH2 9710   5.449   2.026   3.636
 3278TIP3    H1 9711   5.516   1.958   3.620
 3278TIP3    H2 9712   5.471   2.053   3.728
 3279TIP3   OH2 9713   5.513   1.841   2.075
 3279TIP3    H1 9714   5.489   1.797   2.157
 3279TIP3    H2 9715   5.549   1.767   2.021
 3280TIP3   OH2 9716   5.780   1.907   3.302
 3280TIP3    H1 9717   5.703   1.968   3.304
 3280TIP3    H2 9718   5.829   1.939   3.222
 3281TIP3   OH2 9719   5.612   1.635   1.916
 3281TIP3    H1 9720   5.586   1.635   1.821
 3281TIP3    H2 9721   5.709   1.642   1.908
 3282TIP3   OH2 9722   6.298   2.310   3.437
 3282TIP3    H1 9723   6.377   2.288   3.386
 3282TIP3    H2 9724   6.297   2.240   3.505
 3283TIP3   OH2 9725   6.434   1.969   1.573
 3283TIP3    H1 9726   6.411   1.920   1.492
 3283TIP3    H2 9727   6.401   2.059   1.548
 3284TIP3   OH2 9728   5.903   1.694   3.431
 3284TIP3    H1 9729   5.904   1.613   3.375
 3284TIP3    H2 9730   5.861   1.759   3.370
 3285TIP3   OH2 9731   5.906   1.480   3.237
 3285TIP3    H1 9732   5.934   1.522   3.153
 3285TIP3    H2 9733   5.813   1.457   3.217
 3286TIP3   OH2 9734   5.937   2.019   3.109
 3286TIP3    H1 9735   6.018   2.021   3.056
 3286TIP3    H2 9736   5.882   2.086   3.064
 3287TIP3   OH2 9737   6.519   1.986   3.492
 3287TIP3    H1 9738   6.565   1.901   3.500
 3287TIP3    H2 9739   6.588   2.043   3.455
 3288TIP3   OH2 9740   6.558   2.238   3.229
 3288TIP3    H1 9741   6.501   2.290   3.168
 3288TIP3    H2 9742   6.646   2.255   3.187
 3289TIP3   OH2 9743   5.778   1.812   3.656
 3289TIP3    H1 9744   5.712   1.742   3.670
 3289TIP3    H2 9745   5.816   1.784   3.570
 3290TIP3   OH2 9746   6.039   1.245   3.299
 3290TIP3    H1 9747   5.991   1.328   3.278
 3290TIP3    H2 9748   5.969   1.178   3.289
 3291TIP3   OH2 9749   6.164   1.753   3.518
 3291TIP3    H1 9750   6.155   1.739   3.614
 3291TIP3    H2 9751   6.075   1.726   3.489
 3292TIP3   OH2 9752   6.406   1.702   3.374
 3292TIP3    H1 9753   6.329   1.700   3.434
 3292TIP3    H2 9754   6.478   1.668   3.431
 3293TIP3   OH2 9755   6.636   1.639   3.525
 3293TIP3    H1 9756   6.646   1.543   3.545
 3293TIP3    H2 9757   6.630   1.679   3.615
 3294TIP3   OH2 9758   5.623   1.590   3.709
 3294TIP3    H1 9759   5.629   1.500   3.673
 3294TIP3    H2 9760   5.658   1.575   3.800
 3295TIP3   OH2 9761   6.134   1.256   3.557
 3295TIP3    H1 9762   6.202   1.185   3.553
 3295TIP3    H2 9763   6.094   1.248   3.468
 3296TIP3   OH2 9764   6.200   1.471   3.715
 3296TIP3    H1 9765   6.177   1.399   3.652
 3296TIP3    H2 9766   6.122   1.530   3.710
 3297TIP3   OH2 9767   5.419   2.699   1.818
 3297TIP3    H1 9768   5.514   2.697   1.799
 3297TIP3    H2 9769   5.387   2.746   1.739
 3298TIP3   OH2 9770   4.900   2.079   2.037
 3298TIP3    H1 9771   4.994   2.102   2.022
 3298TIP3    H2 9772   4.895   1.991   1.995
 3299TIP3   OH2 9773   4.812   2.693   2.447
 3299TIP3    H1 9774   4.744   2.630   2.412
 3299TIP3    H2 9775   4.857   2.637   2.514
 3300TIP3   OH2 9776   4.948   2.549   2.634
 3300TIP3    H1 9777   4.938   2.471   2.692
 3300TIP3    H2 9778   5.000   2.608   2.693
 3301TIP3   OH2 9779   6.676   2.945   2.433
 3301TIP3    H1 9780   6.703   2.980   2.520
 3301TIP3    H2 9781   6.735   2.992   2.373
 3302TIP3   OH2 9782   6.706   2.966   2.716
 3302TIP3    H1 9783   6.664   2.878   2.711
 3302TIP3    H2 9784   6.782   2.944   2.772
 3303TIP3   OH2 9785   6.753   2.642   3.289
 3303TIP3    H1 9786   6.679   2.650   3.352
 3303TIP3    H2 9787   6.794   2.731   3.294
 3304TIP3   OH2 9788   6.566   2.160   1.911
 3304TIP3    H1 9789   6.641   2.217   1.885
 3304TIP3    H2 9790   6.604   2.116   1.991
 3305TIP3   OH2 9791   6.696   2.027   2.110
 3305TIP3    H1 9792   6.633   1.960   2.146
 3305TIP3    H2 9793   6.746   2.054   2.189
 3306TIP3   OH2 9794   6.750   2.414   2.548
 3306TIP3    H1 9795   6.802   2.349   2.496
 3306TIP3    H2 9796   6.739   2.487   2.484
 3307TIP3   OH2 9797   6.584   2.715   2.742
 3307TIP3    H1 9798   6.512   2.756   2.793
 3307TIP3    H2 9799   6.535   2.665   2.673
 3308TIP3   OH2 9800   6.638   1.940   1.755
 3308TIP3    H1 9801   6.563   1.938   1.692
 3308TIP3    H2 9802   6.606   2.007   1.818
 3309TIP3   OH2 9803   6.495   1.603   1.712
 3309TIP3    H1 9804   6.457   1.640   1.632
 3309TIP3    H2 9805   6.474   1.507   1.702
 3310TIP3   OH2 9806   5.138   1.952   3.006
 3310TIP3    H1 9807   5.137   1.922   2.912
 3310TIP3    H2 9808   5.235   1.954   3.023
 3311TIP3   OH2 9809   6.799   2.302   3.117
 3311TIP3    H1 9810   6.872   2.237   3.108
 3311TIP3    H2 9811   6.826   2.372   3.054
 3312TIP3   OH2 9812   6.987   2.111   3.139
 3312TIP3    H1 9813   6.911   2.060   3.175
 3312TIP3    H2 9814   7.059   2.046   3.151
 3313TIP3   OH2 9815   6.453   1.331   1.697
 3313TIP3    H1 9816   6.526   1.311   1.759
 3313TIP3    H2 9817   6.379   1.279   1.730
 3314TIP3   OH2 9818   6.675   1.763   2.650
 3314TIP3    H1 9819   6.759   1.793   2.609
 3314TIP3    H2 9820   6.684   1.805   2.738
 3315TIP3   OH2 9821   6.739   1.913   2.885
 3315TIP3    H1 9822   6.658   1.946   2.930
 3315TIP3    H2 9823   6.769   1.993   2.837
 3316TIP3   OH2 9824   5.356   1.642   3.685
 3316TIP3    H1 9825   5.453   1.632   3.683
 3316TIP3    H2 9826   5.330   1.556   3.724
 3317TIP3   OH2 9827   7.191   1.503   3.440
 3317TIP3    H1 9828   7.247   1.436   3.396
 3317TIP3    H2 9829   7.162   1.559   3.364
 3318TIP3   OH2 9830   6.639   1.319   2.181
 3318TIP3    H1 9831   6.664   1.329   2.274
 3318TIP3    H2 9832   6.560   1.263   2.188
 3319TIP3   OH2 9833   5.316   1.331   3.014
 3319TIP3    H1 9834   5.378   1.256   3.023
 3319TIP3    H2 9835   5.378   1.405   3.007
 3320TIP3   OH2 9836   5.120   1.606   3.087
 3320TIP3    H1 9837   5.168   1.595   3.002
 3320TIP3    H2 9838   5.152   1.693   3.114
 3321TIP3   OH2 9839   7.062   1.645   3.247
 3321TIP3    H1 9840   6.974   1.683   3.266
 3321TIP3    H2 9841   7.036   1.573   3.186
 3322TIP3   OH2 9842   6.698   1.286   1.830
 3322TIP3    H1 9843   6.732   1.213   1.774
 3322TIP3    H2 9844   6.766   1.355   1.819
 3323TIP3   OH2 9845   5.102   1.112   2.589
 3323TIP3    H1 9846   5.007   1.108   2.611
 3323TIP3    H2 9847   5.102   1.167   2.509
 3324TIP3   OH2 9848   6.261   2.811   2.092
 3324TIP3    H1 9849   6.311   2.793   2.010
 3324TIP3    H2 9850   6.317   2.878   2.135
 3325TIP3   OH2 9851   5.323   1.191   3.403
 3325TIP3    H1 9852   5.271   1.182   3.485
 3325TIP3    H2 9853   5.255   1.227   3.342
 3326TIP3   OH2 9854   5.546   2.653   3.032
 3326TIP3    H1 9855   5.494   2.723   2.988
 3326TIP3    H2 9856   5.629   2.664   2.980
 3327TIP3   OH2 9857   5.985   2.895   3.165
 3327TIP3    H1 9858   6.031   2.894   3.252
 3327TIP3    H2 9859   6.051   2.942   3.110
 3328TIP3   OH2 9860   6.164   3.041   3.022
 3328TIP3    H1 9861   6.235   2.992   2.977
 3328TIP3    H2 9862   6.217   3.099   3.081
 3329TIP3   OH2 9863   6.959   1.407   3.123
 3329TIP3    H1 9864   6.868   1.405   3.088
 3329TIP3    H2 9865   6.988   1.314   3.109
 3330TIP3   OH2 9866   5.218   2.904   3.050
 3330TIP3    H1 9867   5.131   2.938   3.020
 3330TIP3    H2 9868   5.219   2.937   3.140
 3331TIP3   OH2 9869   5.454   2.882   2.906
 3331TIP3    H1 9870   5.367   2.896   2.950
 3331TIP3    H2 9871   5.434   2.915   2.816
 3332TIP3   OH2 9872   5.878   2.912   2.706
 3332TIP3    H1 9873   5.812   2.933   2.637
 3332TIP3    H2 9874   5.893   3.000   2.745
 3333TIP3   OH2 9875   6.147   2.854   2.758
 3333TIP3    H1 9876   6.053   2.869   2.735
 3333TIP3    H2 9877   6.190   2.928   2.712
 3334TIP3   OH2 9878   6.357   3.045   2.672
 3334TIP3    H1 9879   6.342   3.130   2.624
 3334TIP3    H2 9880   6.382   2.985   2.598
 3335TIP3   OH2 9881   5.128   2.700   2.794
 3335TIP3    H1 9882   5.155   2.673   2.884
 3335TIP3    H2 9883   5.200   2.656   2.742
 3336TIP3   OH2 9884   5.320   2.570   2.650
 3336TIP3    H1 9885   5.338   2.485   2.697
 3336TIP3    H2 9886   5.411   2.607   2.643
 3337TIP3   OH2 9887   5.586   2.666   2.651
 3337TIP3    H1 9888   5.619   2.577   2.634
 3337TIP3    H2 9889   5.630   2.685   2.736
 3338TIP3   OH2 9890   6.166   1.324   2.745
 3338TIP3    H1 9891   6.119   1.254   2.794
 3338TIP3    H2 9892   6.232   1.275   2.694
 3339TIP3   OH2 9893   6.685   1.196   2.647
 3339TIP3    H1 9894   6.727   1.247   2.574
 3339TIP3    H2 9895   6.592   1.224   2.640
 3340TIP3   OH2 9896   6.787   1.301   2.419
 3340TIP3    H1 9897   6.855   1.252   2.368
 3340TIP3    H2 9898   6.815   1.394   2.399
 3341TIP3   OH2 9899   5.413   1.030   2.759
 3341TIP3    H1 9900   5.321   0.997   2.758
 3341TIP3    H2 9901   5.463   0.946   2.756
 3342TIP3   OH2 9902   5.197   0.898   2.404
 3342TIP3    H1 9903   5.229   0.956   2.332
 3342TIP3    H2 9904   5.169   0.964   2.471
 3343TIP3   OH2 9905   5.856   1.063   2.637
 3343TIP3    H1 9906   5.913   1.116   2.579
 3343TIP3    H2 9907   5.874   1.102   2.724
 3344TIP3   OH2 9908   6.401   1.201   2.626
 3344TIP3    H1 9909   6.393   1.188   2.531
 3344TIP3    H2 9910   6.386   1.111   2.661
 3345TIP3   OH2 9911   6.431   1.129   2.185
 3345TIP3    H1 9912   6.346   1.175   2.189
 3345TIP3    H2 9913   6.410   1.044   2.228
 3346TIP3   OH2 9914   4.916   2.468   2.188
 3346TIP3    H1 9915   4.832   2.435   2.151
 3346TIP3    H2 9916   4.904   2.563   2.171
 3347TIP3   OH2 9917   5.315   1.059   2.170
 3347TIP3    H1 9918   5.364   0.997   2.113
 3347TIP3    H2 9919   5.388   1.114   2.206
 3348TIP3   OH2 9920   5.828   1.232   2.268
 3348TIP3    H1 9921   5.889   1.185   2.327
 3348TIP3    H2 9922   5.851   1.325   2.293
 3349TIP3   OH2 9923   5.688   2.662   1.767
 3349TIP3    H1 9924   5.777   2.683   1.731
 3349TIP3    H2 9925   5.666   2.586   1.708
 3350TIP3   OH2 9926   6.406   2.776   1.860
 3350TIP3    H1 9927   6.398   2.678   1.846
 3350TIP3    H2 9928   6.362   2.809   1.779
 3351TIP3   OH2 9929   5.620   1.313   3.650
 3351TIP3    H1 9930   5.588   1.241   3.707
 3351TIP3    H2 9931   5.715   1.313   3.675
 3352TIP3   OH2 9932   5.869   1.308   3.768
 3352TIP3    H1 9933   5.954   1.283   3.729
 3352TIP3    H2 9934   5.857   1.238   3.835
 3353TIP3   OH2 9935   4.993   2.497   1.825
 3353TIP3    H1 9936   4.994   2.525   1.918
 3353TIP3    H2 9937   5.081   2.455   1.815
 3354TIP3   OH2 9938   6.693   1.368   3.556
 3354TIP3    H1 9939   6.713   1.337   3.647
 3354TIP3    H2 9940   6.781   1.363   3.514
 3355TIP3   OH2 9941   6.635   2.922   3.048
 3355TIP3    H1 9942   6.556   2.890   3.000
 3355TIP3    H2 9943   6.615   3.018   3.049
 3356TIP3   OH2 9944   7.901   2.295   1.814
 3356TIP3    H1 9945   7.872   2.386   1.794
 3356TIP3    H2 9946   7.823   2.245   1.784
 3357TIP3   OH2 9947   7.901   2.293   2.192
 3357TIP3    H1 9948   7.928   2.259   2.280
 3357TIP3    H2 9949   7.856   2.216   2.154
 3358TIP3   OH2 9950   7.200   2.190   2.558
 3358TIP3    H1 9951   7.232   2.123   2.621
 3358TIP3    H2 9952   7.277   2.248   2.552
 3359TIP3   OH2 9953   8.145   2.593   1.874
 3359TIP3    H1 9954   8.124   2.524   1.939
 3359TIP3    H2 9955   8.165   2.669   1.930
 3360TIP3   OH2 9956   7.169   2.600   2.288
 3360TIP3    H1 9957   7.160   2.502   2.291
 3360TIP3    H2 9958   7.266   2.607   2.282
 3361TIP3   OH2 9959   6.874   1.808   2.078
 3361TIP3    H1 9960   6.819   1.889   2.080
 3361TIP3    H2 9961   6.804   1.743   2.059
 3362TIP3   OH2 9962   6.944   2.095   2.247
 3362TIP3    H1 9963   6.988   2.014   2.280
 3362TIP3    H2 9964   6.982   2.103   2.158
 3363TIP3   OH2 9965   7.788   3.057   1.889
 3363TIP3    H1 9966   7.839   2.985   1.846
 3363TIP3    H2 9967   7.779   3.024   1.979
 3364TIP3   OH2 9968   7.697   2.519   2.242
 3364TIP3    H1 9969   7.732   2.442   2.193
 3364TIP3    H2 9970   7.782   2.562   2.265
 3365TIP3   OH2 9971   8.645   1.862   2.252
 3365TIP3    H1 9972   8.707   1.917   2.304
 3365TIP3    H2 9973   8.685   1.868   2.164
 3366TIP3   OH2 9974   8.112   2.024   2.277
 3366TIP3    H1 9975   8.151   1.936   2.296
 3366TIP3    H2 9976   8.079   2.009   2.186
 3367TIP3   OH2 9977   7.447   1.681   2.241
 3367TIP3    H1 9978   7.423   1.753   2.179
 3367TIP3    H2 9979   7.399   1.606   2.199
 3368TIP3   OH2 9980   8.141   1.769   1.867
 3368TIP3    H1 9981   8.214   1.749   1.929
 3368TIP3    H2 9982   8.192   1.803   1.791
 3369TIP3   OH2 9983   7.081   1.882   2.349
 3369TIP3    H1 9984   7.164   1.858   2.394
 3369TIP3    H2 9985   7.088   1.825   2.269
 3370TIP3   OH2 9986   7.522   2.081   2.137
 3370TIP3    H1 9987   7.614   2.053   2.154
 3370TIP3    H2 9988   7.481   1.997   2.107
 3371TIP3   OH2 9989   8.780   2.045   2.406
 3371TIP3    H1 9990   8.695   2.094   2.403
 3371TIP3    H2 9991   8.818   2.076   2.490
 3372TIP3   OH2 9992   7.445   1.664   2.676
 3372TIP3    H1 9993   7.384   1.699   2.608
 3372TIP3    H2 9994   7.392   1.681   2.757
 3373TIP3   OH2 9995   7.799   2.519   1.681
 3373TIP3    H1 9996   7.747   2.489   1.606
 3373TIP3    H2 9997   7.752   2.602   1.704
 3374TIP3   OH2 9998   7.552   2.439   2.474
 3374TIP3    H1 9999   7.485   2.501   2.512
 3374TIP3    H210000   7.590   2.492   2.402
 3375TIP3   OH210001   8.359   1.768   2.034
 3375TIP3    H110002   8.341   1.722   2.117
 3375TIP3    H210003   8.409   1.845   2.063
 3376TIP3   OH210004   7.316   1.779   2.460
 3376TIP3    H110005   7.378   1.851   2.482
 3376TIP3    H210006   7.363   1.737   2.385
 3377TIP3   OH210007   7.377   2.630   2.569
 3377TIP3    H110008   7.351   2.715   2.528
 3377TIP3    H210009   7.299   2.615   2.626
 3378TIP3   OH210010   6.778   2.321   1.804
 3378TIP3    H110011   6.730   2.346   1.723
 3378TIP3    H210012   6.803   2.407   1.841
 3379TIP3   OH210013   8.217   2.837   2.045
 3379TIP3    H110014   8.127   2.828   2.086
 3379TIP3    H210015   8.206   2.922   1.999
 3380TIP3   OH210016   8.482   1.732   2.419
 3380TIP3    H110017   8.394   1.761   2.389
 3380TIP3    H210018   8.540   1.773   2.351
 3381TIP3   OH210019   7.804   1.385   2.390
 3381TIP3    H110020   7.790   1.289   2.404
 3381TIP3    H210021   7.725   1.421   2.435
 3382TIP3   OH210022   7.922   2.884   1.725
 3382TIP3    H110023   7.970   2.803   1.698
 3382TIP3    H210024   7.979   2.951   1.679
 3383TIP3   OH210025   8.061   2.668   1.621
 3383TIP3    H110026   8.008   2.594   1.590
 3383TIP3    H210027   8.096   2.634   1.706
 3384TIP3   OH210028   8.439   2.752   2.386
 3384TIP3    H110029   8.423   2.674   2.329
 3384TIP3    H210030   8.417   2.826   2.326
 3385TIP3   OH210031   7.731   2.146   1.644
 3385TIP3    H110032   7.648   2.194   1.624
 3385TIP3    H210033   7.773   2.141   1.557
 3386TIP3   OH210034   7.687   1.933   1.364
 3386TIP3    H110035   7.763   1.974   1.410
 3386TIP3    H210036   7.727   1.855   1.323
 3387TIP3   OH210037   8.633   2.391   2.236
 3387TIP3    H110038   8.548   2.440   2.238
 3387TIP3    H210039   8.660   2.404   2.143
 3388TIP3   OH210040   8.078   2.229   1.618
 3388TIP3    H110041   8.021   2.254   1.695
 3388TIP3    H210042   8.159   2.200   1.664
 3389TIP3   OH210043   8.313   2.271   2.525
 3389TIP3    H110044   8.305   2.353   2.575
 3389TIP3    H210045   8.225   2.268   2.481
 3390TIP3   OH210046   7.310   2.227   2.030
 3390TIP3    H110047   7.266   2.168   1.965
 3390TIP3    H210048   7.386   2.172   2.059
 3391TIP3   OH210049   7.440   2.639   2.181
 3391TIP3    H110050   7.416   2.591   2.100
 3391TIP3    H210051   7.530   2.604   2.199
 3392TIP3   OH210052   7.455   2.194   2.390
 3392TIP3    H110053   7.479   2.178   2.296
 3392TIP3    H210054   7.491   2.283   2.407
 3393TIP3   OH210055   7.976   2.834   2.165
 3393TIP3    H110056   7.957   2.914   2.216
 3393TIP3    H210057   7.959   2.761   2.228
 3394TIP3   OH210058   7.583   2.753   2.711
 3394TIP3    H110059   7.523   2.816   2.757
 3394TIP3    H210060   7.517   2.700   2.662
 3395TIP3   OH210061   7.924   2.079   1.447
 3395TIP3    H110062   7.978   2.141   1.501
 3395TIP3    H210063   7.949   2.109   1.356
 3396TIP3   OH210064   7.337   2.311   2.810
 3396TIP3    H110065   7.341   2.397   2.857
 3396TIP3    H210066   7.242   2.291   2.818
 3397TIP3   OH210067   7.662   2.766   1.716
 3397TIP3    H110068   7.734   2.825   1.743
 3397TIP3    H210069   7.597   2.827   1.679
 3398TIP3   OH210070   7.379   2.923   2.798
 3398TIP3    H110071   7.344   2.920   2.707
 3398TIP3    H210072   7.300   2.901   2.852
 3399TIP3   OH210073   7.177   2.067   1.837
 3399TIP3    H110074   7.111   2.113   1.781
 3399TIP3    H210075   7.131   1.984   1.855
 3400TIP3   OH210076   8.229   2.695   1.035
 3400TIP3    H110077   8.234   2.792   1.025
 3400TIP3    H210078   8.323   2.670   1.024
 3401TIP3   OH210079   6.958   2.452   2.744
 3401TIP3    H110080   6.892   2.430   2.675
 3401TIP3    H210081   6.993   2.364   2.769
 3402TIP3   OH210082   6.810   2.645   2.379
 3402TIP3    H110083   6.906   2.639   2.369
 3402TIP3    H210084   6.801   2.726   2.431
 3403TIP3   OH210085   8.673   3.103   2.429
 3403TIP3    H110086   8.673   3.006   2.432
 3403TIP3    H210087   8.589   3.123   2.477
 3404TIP3   OH210088   7.784   2.881   2.569
 3404TIP3    H110089   7.783   2.974   2.600
 3404TIP3    H210090   7.711   2.843   2.622
 3405TIP3   OH210091   7.543   3.014   1.519
 3405TIP3    H110092   7.494   2.994   1.437
 3405TIP3    H210093   7.510   3.102   1.542
 3406TIP3   OH210094   6.981   2.862   1.901
 3406TIP3    H110095   7.027   2.851   1.987
 3406TIP3    H210096   6.921   2.785   1.904
 3407TIP3   OH210097   7.745   2.914   1.160
 3407TIP3    H110098   7.803   2.843   1.125
 3407TIP3    H210099   7.777   2.922   1.253
 3408TIP3   OH210100   7.794   2.960   1.431
 3408TIP3    H110101   7.705   2.971   1.471
 3408TIP3    H210102   7.841   2.917   1.504
 3409TIP3   OH210103   8.573   2.234   2.698
 3409TIP3    H110104   8.488   2.241   2.652
 3409TIP3    H210105   8.588   2.138   2.694
 3410TIP3   OH210106   7.163   2.635   2.736
 3410TIP3    H110107   7.212   2.617   2.819
 3410TIP3    H210108   7.089   2.571   2.742
 3411TIP3   OH210109   7.563   1.460   2.515
 3411TIP3    H110110   7.474   1.427   2.491
 3411TIP3    H210111   7.537   1.542   2.561
 3412TIP3   OH210112   8.094   1.576   2.712
 3412TIP3    H110113   8.161   1.547   2.777
 3412TIP3    H210114   8.009   1.554   2.756
 3413TIP3   OH210115   8.336   2.005   2.631
 3413TIP3    H110116   8.287   1.999   2.716
 3413TIP3    H210117   8.306   2.091   2.595
 3414TIP3   OH210118   7.999   2.138   1.196
 3414TIP3    H110119   7.963   2.106   1.111
 3414TIP3    H210120   8.073   2.193   1.165
 3415TIP3   OH210121   7.732   1.509   1.496
 3415TIP3    H110122   7.698   1.519   1.587
 3415TIP3    H210123   7.676   1.435   1.466
 3416TIP3   OH210124   7.496   1.972   2.538
 3416TIP3    H110125   7.442   1.992   2.617
 3416TIP3    H210126   7.480   2.053   2.483
 3417TIP3   OH210127   7.376   1.860   2.050
 3417TIP3    H110128   7.283   1.834   2.067
 3417TIP3    H210129   7.389   1.819   1.962
 3418TIP3   OH210130   7.869   1.948   1.778
 3418TIP3    H110131   7.814   2.018   1.737
 3418TIP3    H210132   7.920   1.915   1.702
 3419TIP3   OH210133   8.043   2.228   2.867
 3419TIP3    H110134   8.019   2.154   2.927
 3419TIP3    H210135   8.138   2.237   2.888
 3420TIP3   OH210136   8.027   1.977   2.017
 3420TIP3    H110137   7.966   2.005   1.946
 3420TIP3    H210138   8.059   1.893   1.976
 3421TIP3   OH210139   7.315   2.004   2.745
 3421TIP3    H110140   7.333   2.067   2.816
 3421TIP3    H210141   7.299   1.921   2.795
 3422TIP3   OH210142   7.361   1.479   1.460
 3422TIP3    H110143   7.349   1.476   1.557
 3422TIP3    H210144   7.281   1.528   1.433
 3423TIP3   OH210145   6.906   1.524   2.331
 3423TIP3    H110146   6.987   1.554   2.377
 3423TIP3    H210147   6.937   1.495   2.244
 3424TIP3   OH210148   6.898   1.502   1.841
 3424TIP3    H110149   6.940   1.544   1.763
 3424TIP3    H210150   6.831   1.572   1.862
 3425TIP3   OH210151   8.042   2.224   2.442
 3425TIP3    H110152   8.071   2.151   2.383
 3425TIP3    H210153   8.009   2.172   2.519
 3426TIP3   OH210154   7.703   1.684   2.112
 3426TIP3    H110155   7.618   1.680   2.161
 3426TIP3    H210156   7.767   1.684   2.185
 3427TIP3   OH210157   7.137   1.739   2.118
 3427TIP3    H110158   7.041   1.748   2.093
 3427TIP3    H210159   7.155   1.646   2.095
 3428TIP3   OH210160   7.411   1.734   1.808
 3428TIP3    H110161   7.504   1.753   1.786
 3428TIP3    H210162   7.362   1.758   1.726
 3429TIP3   OH210163   8.193   1.758   2.312
 3429TIP3    H110164   8.158   1.769   2.403
 3429TIP3    H210165   8.128   1.695   2.275
 3430TIP3   OH210166   7.250   1.767   1.591
 3430TIP3    H110167   7.172   1.727   1.547
 3430TIP3    H210168   7.298   1.801   1.513
 3431TIP3   OH210169   8.367   3.442   2.531
 3431TIP3    H110170   8.361   3.468   2.437
 3431TIP3    H210171   8.435   3.502   2.564
 3432TIP3   OH210172   7.324   2.557   2.955
 3432TIP3    H110173   7.403   2.588   3.003
 3432TIP3    H210174   7.258   2.556   3.027
 3433TIP3   OH210175   7.790   2.012   2.211
 3433TIP3    H110176   7.858   1.966   2.160
 3433TIP3    H210177   7.797   1.968   2.298
 3434TIP3   OH210178   7.317   1.497   2.087
 3434TIP3    H110179   7.279   1.419   2.132
 3434TIP3    H210180   7.364   1.457   2.013
 3435TIP3   OH210181   7.765   1.906   2.497
 3435TIP3    H110182   7.675   1.940   2.512
 3435TIP3    H210183   7.821   1.966   2.550
 3436TIP3   OH210184   7.503   2.299   1.595
 3436TIP3    H110185   7.431   2.233   1.584
 3436TIP3    H210186   7.484   2.332   1.686
 3437TIP3   OH210187   8.400   2.534   2.225
 3437TIP3    H110188   8.421   2.580   2.141
 3437TIP3    H210189   8.314   2.491   2.204
 3438TIP3   OH210190   7.947   1.644   1.396
 3438TIP3    H110191   7.873   1.593   1.436
 3438TIP3    H210192   7.969   1.709   1.466
 3439TIP3   OH210193   7.912   2.621   2.591
 3439TIP3    H110194   7.913   2.589   2.681
 3439TIP3    H210195   7.862   2.705   2.598
 3440TIP3   OH210196   8.034   1.851   1.558
 3440TIP3    H110197   8.129   1.861   1.577
 3440TIP3    H210198   8.013   1.932   1.508
 3441TIP3   OH210199   7.202   2.326   2.273
 3441TIP3    H110200   7.231   2.292   2.186
 3441TIP3    H210201   7.221   2.252   2.331
 3442TIP3   OH210202   7.646   2.448   1.414
 3442TIP3    H110203   7.600   2.535   1.421
 3442TIP3    H210204   7.592   2.393   1.474
 3443TIP3   OH210205   7.073   2.240   2.882
 3443TIP3    H110206   7.092   2.224   2.977
 3443TIP3    H210207   7.003   2.175   2.865
 3444TIP3   OH210208   7.797   2.354   2.903
 3444TIP3    H110209   7.737   2.295   2.854
 3444TIP3    H210210   7.884   2.319   2.874
 3445TIP3   OH210211   8.064   2.877   2.483
 3445TIP3    H110212   7.968   2.871   2.495
 3445TIP3    H210213   8.089   2.928   2.563
 3446TIP3   OH210214   8.467   1.945   1.408
 3446TIP3    H110215   8.422   1.883   1.350
 3446TIP3    H210216   8.457   2.028   1.356
 3447TIP3   OH210217   8.688   2.799   2.467
 3447TIP3    H110218   8.590   2.794   2.456
 3447TIP3    H210219   8.716   2.767   2.379
 3448TIP3   OH210220   8.174   2.766   1.303
 3448TIP3    H110221   8.145   2.699   1.367
 3448TIP3    H210222   8.182   2.716   1.220
 3449TIP3   OH210223   8.168   2.395   2.147
 3449TIP3    H110224   8.075   2.369   2.159
 3449TIP3    H210225   8.201   2.316   2.098
 3450TIP3   OH210226   7.293   2.622   1.893
 3450TIP3    H110227   7.292   2.705   1.841
 3450TIP3    H210228   7.198   2.606   1.904
 3451TIP3   OH210229   6.858   1.929   1.596
 3451TIP3    H110230   6.903   2.012   1.619
 3451TIP3    H210231   6.780   1.932   1.656
 3452TIP3   OH210232   7.439   2.392   1.842
 3452TIP3    H110233   7.400   2.480   1.858
 3452TIP3    H210234   7.399   2.340   1.914
 3453TIP3   OH210235   7.562   2.968   2.365
 3453TIP3    H110236   7.601   3.041   2.313
 3453TIP3    H210237   7.640   2.936   2.414
 3454TIP3   OH210238   7.215   2.861   1.748
 3454TIP3    H110239   7.129   2.869   1.793
 3454TIP3    H210240   7.246   2.954   1.751
 3455TIP3   OH210241   7.955   2.602   2.322
 3455TIP3    H110242   7.946   2.601   2.420
 3455TIP3    H210243   8.031   2.543   2.309
 3456TIP3   OH210244   7.925   2.488   1.202
 3456TIP3    H110245   7.976   2.465   1.284
 3456TIP3    H210246   7.835   2.468   1.232
 3457TIP3   OH210247   8.204   3.136   2.372
 3457TIP3    H110248   8.124   3.079   2.366
 3457TIP3    H210249   8.186   3.201   2.300
 3458TIP3   OH210250   8.264   2.970   1.025
 3458TIP3    H110251   8.297   3.043   0.969
 3458TIP3    H210252   8.185   3.015   1.061
 3459TIP3   OH210253   7.286   1.747   2.893
 3459TIP3    H110254   7.189   1.751   2.905
 3459TIP3    H210255   7.312   1.683   2.962
 3460TIP3   OH210256   8.083   2.425   1.418
 3460TIP3    H110257   8.073   2.362   1.493
 3460TIP3    H210258   8.181   2.428   1.411
 3461TIP3   OH210259   7.002   2.832   2.524
 3461TIP3    H110260   7.052   2.754   2.553
 3461TIP3    H210261   7.032   2.898   2.588
 3462TIP3   OH210262   7.297   2.473   1.203
 3462TIP3    H110263   7.306   2.381   1.174
 3462TIP3    H210264   7.277   2.462   1.298
 3463TIP3   OH210265   7.241   2.480   1.474
 3463TIP3    H110266   7.304   2.452   1.541
 3463TIP3    H210267   7.244   2.578   1.482
 3464TIP3   OH210268   6.979   2.176   1.679
 3464TIP3    H110269   6.910   2.217   1.737
 3464TIP3    H210270   6.988   2.247   1.613
 3465TIP3   OH210271   8.121   1.811   2.571
 3465TIP3    H110272   8.202   1.846   2.613
 3465TIP3    H210273   8.105   1.730   2.624
 3466TIP3   OH210274   7.969   1.585   1.733
 3466TIP3    H110275   7.990   1.592   1.639
 3466TIP3    H210276   8.032   1.648   1.773
 3467TIP3   OH210277   7.505   2.680   1.426
 3467TIP3    H110278   7.418   2.705   1.462
 3467TIP3    H210279   7.519   2.751   1.362
 3468TIP3   OH210280   7.692   1.740   1.837
 3468TIP3    H110281   7.760   1.808   1.820
 3468TIP3    H210282   7.695   1.733   1.935
 3469TIP3   OH210283   7.962   2.062   2.647
 3469TIP3    H110284   7.978   2.115   2.727
 3469TIP3    H210285   8.016   1.983   2.663
 3470TIP3   OH210286   7.838   1.471   1.945
 3470TIP3    H110287   7.829   1.549   2.003
 3470TIP3    H210288   7.891   1.511   1.871
 3471TIP3   OH210289   7.247   2.753   1.492
 3471TIP3    H110290   7.216   2.821   1.429
 3471TIP3    H210291   7.229   2.797   1.578
 3472TIP3   OH210292   7.351   1.464   1.734
 3472TIP3    H110293   7.341   1.555   1.769
 3472TIP3    H210294   7.447   1.452   1.745
 3473TIP3   OH210295   8.601   1.962   2.626
 3473TIP3    H110296   8.503   1.959   2.633
 3473TIP3    H210297   8.613   1.928   2.537
 3474TIP3   OH210298   8.246   2.160   2.012
 3474TIP3    H110299   8.172   2.098   2.025
 3474TIP3    H210300   8.319   2.115   2.060
 3475TIP3   OH210301   6.964   2.386   1.487
 3475TIP3    H110302   7.025   2.461   1.494
 3475TIP3    H210303   7.011   2.333   1.419
 3476TIP3   OH210304   6.914   1.658   1.610
 3476TIP3    H110305   6.907   1.755   1.613
 3476TIP3    H210306   6.821   1.633   1.601
 3477TIP3   OH210307   8.222   3.108   1.966
 3477TIP3    H110308   8.177   3.154   1.892
 3477TIP3    H210309   8.315   3.128   1.944
 3478TIP3   OH210310   7.300   1.378   2.494
 3478TIP3    H110311   7.266   1.347   2.407
 3478TIP3    H210312   7.286   1.300   2.550
 3479TIP3   OH210313   6.841   2.603   1.878
 3479TIP3    H110314   6.763   2.630   1.928
 3479TIP3    H210315   6.818   2.639   1.789
 3480TIP3   OH210316   6.991   3.135   2.945
 3480TIP3    H110317   7.077   3.134   2.992
 3480TIP3    H210318   6.969   3.040   2.943
 3481TIP3   OH210319   7.477   3.106   2.989
 3481TIP3    H110320   7.571   3.085   2.996
 3481TIP3    H210321   7.450   3.048   2.915
 3482TIP3   OH210322   7.455   2.681   1.119
 3482TIP3    H110323   7.400   2.609   1.157
 3482TIP3    H210324   7.529   2.630   1.083
 3483TIP3   OH210325   8.117   3.008   2.718
 3483TIP3    H110326   8.104   2.939   2.788
 3483TIP3    H210327   8.187   3.064   2.756
 3484TIP3   OH210328   7.895   2.723   1.030
 3484TIP3    H110329   7.943   2.659   1.086
 3484TIP3    H210330   7.948   2.725   0.948
 3485TIP3   OH210331   7.123   2.544   3.145
 3485TIP3    H110332   7.140   2.448   3.148
 3485TIP3    H210333   7.035   2.547   3.102
 3486TIP3   OH210334   7.101   2.200   1.334
 3486TIP3    H110335   7.150   2.161   1.409
 3486TIP3    H210336   7.171   2.202   1.266
 3487TIP3   OH210337   7.734   2.629   2.917
 3487TIP3    H110338   7.687   2.642   2.832
 3487TIP3    H210339   7.762   2.535   2.912
 3488TIP3   OH210340   7.612   2.391   1.146
 3488TIP3    H110341   7.609   2.406   1.242
 3488TIP3    H210342   7.607   2.294   1.142
 3489TIP3   OH210343   8.226   2.633   2.527
 3489TIP3    H110344   8.292   2.686   2.478
 3489TIP3    H210345   8.147   2.689   2.517
 3490TIP3   OH210346   7.242   2.278   3.126
 3490TIP3    H110347   7.313   2.216   3.109
 3490TIP3    H210348   7.266   2.311   3.216
 3491TIP3   OH210349   7.314   2.099   1.564
 3491TIP3    H110350   7.280   2.058   1.645
 3491TIP3    H210351   7.345   2.021   1.513
 3492TIP3   OH210352   7.579   2.167   2.792
 3492TIP3    H110353   7.499   2.223   2.795
 3492TIP3    H210354   7.623   2.197   2.710
 3493TIP3   OH210355   7.407   1.891   1.403
 3493TIP3    H110356   7.378   1.888   1.309
 3493TIP3    H210357   7.504   1.900   1.393
 3494TIP3   OH210358   8.096   2.568   2.925
 3494TIP3    H110359   8.171   2.538   2.872
 3494TIP3    H210360   8.089   2.497   2.992
 3495TIP3   OH210361   8.230   2.220   1.044
 3495TIP3    H110362   8.202   2.180   0.960
 3495TIP3    H210363   8.200   2.313   1.029
 3496TIP3   OH210364   7.702   1.951   2.916
 3496TIP3    H110365   7.699   1.870   2.861
 3496TIP3    H210366   7.657   2.016   2.858
 3497TIP3   OH210367   7.703   1.738   2.721
 3497TIP3    H110368   7.729   1.777   2.635
 3497TIP3    H210369   7.609   1.714   2.704
 3498TIP3   OH210370   7.736   2.278   2.596
 3498TIP3    H110371   7.812   2.280   2.538
 3498TIP3    H210372   7.676   2.342   2.553
 3499TIP3   OH210373   8.316   2.242   2.978
 3499TIP3    H110374   8.359   2.156   2.991
 3499TIP3    H210375   8.389   2.295   2.944
 3500TIP3   OH210376   8.355   2.497   2.719
 3500TIP3    H110377   8.297   2.546   2.656
 3500TIP3    H210378   8.442   2.511   2.675
 3501TIP3   OH210379   7.578   2.066   3.144
 3501TIP3    H110380   7.509   1.999   3.158
 3501TIP3    H210381   7.613   2.040   3.056
 3502TIP3   OH210382   7.835   1.502   2.786
 3502TIP3    H110383   7.786   1.585   2.765
 3502TIP3    H210384   7.765   1.435   2.775
 3503TIP3   OH210385   7.961   2.009   3.004
 3503TIP3    H110386   7.949   1.996   3.100
 3503TIP3    H210387   7.871   1.983   2.974
 3504TIP3   OH210388   8.202   1.957   2.860
 3504TIP3    H110389   8.124   1.956   2.920
 3504TIP3    H210390   8.273   1.923   2.918
 3505TIP3   OH210391   8.434   1.895   3.012
 3505TIP3    H110392   8.442   1.800   3.031
 3505TIP3    H210393   8.426   1.936   3.101
 3506TIP3   OH210394   7.419   1.846   3.196
 3506TIP3    H110395   7.424   1.756   3.159
 3506TIP3    H210396   7.453   1.832   3.286
 3507TIP3   OH210397   7.932   1.513   3.043
 3507TIP3    H110398   7.998   1.441   3.038
 3507TIP3    H210399   7.890   1.505   2.955
 3508TIP3   OH210400   7.996   1.727   3.203
 3508TIP3    H110401   7.973   1.656   3.140
 3508TIP3    H210402   7.918   1.786   3.198
 3509TIP3   OH210403   7.215   2.954   1.305
 3509TIP3    H110404   7.310   2.955   1.284
 3509TIP3    H210405   7.181   3.002   1.227
 3510TIP3   OH210406   6.695   2.338   1.520
 3510TIP3    H110407   6.790   2.358   1.509
 3510TIP3    H210408   6.690   2.248   1.480
 3511TIP3   OH210409   6.608   2.949   1.933
 3511TIP3    H110410   6.541   2.887   1.899
 3511TIP3    H210411   6.653   2.893   2.000
 3512TIP3   OH210412   6.745   2.805   2.121
 3512TIP3    H110413   6.734   2.728   2.179
 3512TIP3    H210414   6.796   2.864   2.180
 3513TIP3   OH210415   8.475   3.197   1.920
 3513TIP3    H110416   8.499   3.236   2.006
 3513TIP3    H210417   8.530   3.247   1.859
 3514TIP3   OH210418   8.503   3.223   2.203
 3514TIP3    H110419   8.460   3.135   2.197
 3514TIP3    H210420   8.580   3.200   2.258
 3515TIP3   OH210421   8.362   2.415   1.394
 3515TIP3    H110422   8.431   2.480   1.372
 3515TIP3    H210423   8.402   2.373   1.474
 3516TIP3   OH210424   8.479   2.279   1.596
 3516TIP3    H110425   8.413   2.233   1.654
 3516TIP3    H210426   8.539   2.319   1.662
 3517TIP3   OH210427   8.547   2.663   2.029
 3517TIP3    H110428   8.588   2.614   1.958
 3517TIP3    H210429   8.528   2.748   1.985
 3518TIP3   OH210430   8.379   2.970   2.229
 3518TIP3    H110431   8.309   3.016   2.279
 3518TIP3    H210432   8.327   2.924   2.159
 3519TIP3   OH210433   8.399   2.177   1.260
 3519TIP3    H110434   8.337   2.188   1.185
 3519TIP3    H210435   8.375   2.255   1.315
 3520TIP3   OH210436   8.269   1.844   1.215
 3520TIP3    H110437   8.305   1.908   1.152
 3520TIP3    H210438   8.312   1.762   1.188
 3521TIP3   OH210439   8.308   2.131   1.747
 3521TIP3    H110440   8.315   2.034   1.744
 3521TIP3    H210441   8.291   2.148   1.843
 3522TIP3   OH210442   6.934   2.209   2.495
 3522TIP3    H110443   6.932   2.179   2.402
 3522TIP3    H210444   7.032   2.210   2.511
 3523TIP3   OH210445   8.601   2.561   2.611
 3523TIP3    H110446   8.671   2.493   2.601
 3523TIP3    H210447   8.620   2.621   2.538
 3524TIP3   OH210448   8.794   2.374   2.631
 3524TIP3    H110449   8.715   2.323   2.659
 3524TIP3    H210450   8.860   2.302   2.638
 3525TIP3   OH210451   8.306   1.846   1.641
 3525TIP3    H110452   8.350   1.759   1.659
 3525TIP3    H210453   8.368   1.882   1.574
 3526TIP3   OH210454   8.456   2.042   2.130
 3526TIP3    H110455   8.541   2.073   2.092
 3526TIP3    H210456   8.475   2.053   2.225
 3527TIP3   OH210457   8.534   2.170   2.375
 3527TIP3    H110458   8.453   2.202   2.420
 3527TIP3    H210459   8.562   2.250   2.326
 3528TIP3   OH210460   7.151   1.898   3.171
 3528TIP3    H110461   7.249   1.889   3.169
 3528TIP3    H210462   7.126   1.812   3.211
 3529TIP3   OH210463   8.420   1.597   1.690
 3529TIP3    H110464   8.452   1.589   1.782
 3529TIP3    H210465   8.354   1.524   1.691
 3530TIP3   OH210466   7.116   1.587   2.501
 3530TIP3    H110467   7.178   1.512   2.510
 3530TIP3    H210468   7.177   1.662   2.496
 3531TIP3   OH210469   6.920   1.862   2.577
 3531TIP3    H110470   6.962   1.849   2.490
 3531TIP3    H210471   6.947   1.953   2.597
 3532TIP3   OH210472   8.843   1.892   2.748
 3532TIP3    H110473   8.762   1.942   2.767
 3532TIP3    H210474   8.809   1.833   2.678
 3533TIP3   OH210475   6.899   1.369   2.077
 3533TIP3    H110476   6.804   1.361   2.102
 3533TIP3    H210477   6.895   1.424   1.996
 3534TIP3   OH210478   8.060   3.064   1.579
 3534TIP3    H110479   8.110   3.051   1.496
 3534TIP3    H210480   8.109   3.137   1.621
 3535TIP3   OH210481   7.119   1.445   2.889
 3535TIP3    H110482   7.067   1.440   2.971
 3535TIP3    H210483   7.053   1.484   2.828
 3536TIP3   OH210484   7.160   2.870   2.966
 3536TIP3    H110485   7.068   2.842   2.947
 3536TIP3    H210486   7.165   2.853   3.061
 3537TIP3   OH210487   7.336   2.902   2.514
 3537TIP3    H110488   7.285   2.976   2.475
 3537TIP3    H210489   7.421   2.917   2.468
 3538TIP3   OH210490   7.783   3.147   2.650
 3538TIP3    H110491   7.824   3.151   2.739
 3538TIP3    H210492   7.848   3.199   2.597
 3539TIP3   OH210493   7.961   3.298   2.508
 3539TIP3    H110494   8.032   3.249   2.466
 3539TIP3    H210495   8.012   3.357   2.569
 3540TIP3   OH210496   8.749   1.666   2.613
 3540TIP3    H110497   8.660   1.667   2.573
 3540TIP3    H210498   8.781   1.579   2.584
 3541TIP3   OH210499   7.015   3.162   2.535
 3541TIP3    H110500   6.927   3.196   2.509
 3541TIP3    H210501   7.020   3.194   2.626
 3542TIP3   OH210502   7.250   3.139   2.392
 3542TIP3    H110503   7.165   3.152   2.438
 3542TIP3    H210504   7.229   3.173   2.303
 3543TIP3   OH210505   7.677   3.170   2.189
 3543TIP3    H110506   7.607   3.189   2.125
 3543TIP3    H210507   7.689   3.257   2.232
 3544TIP3   OH210508   7.944   3.110   2.241
 3544TIP3    H110509   7.849   3.124   2.223
 3544TIP3    H210510   7.983   3.189   2.200
 3545TIP3   OH210511   8.158   3.303   2.159
 3545TIP3    H110512   8.139   3.387   2.112
 3545TIP3    H210513   8.177   3.243   2.085
 3546TIP3   OH210514   6.925   2.956   2.282
 3546TIP3    H110515   6.951   2.930   2.372
 3546TIP3    H210516   6.996   2.912   2.230
 3547TIP3   OH210517   7.117   2.826   2.136
 3547TIP3    H110518   7.133   2.742   2.185
 3547TIP3    H210519   7.207   2.863   2.131
 3548TIP3   OH210520   7.384   2.922   2.137
 3548TIP3    H110521   7.414   2.830   2.125
 3548TIP3    H210522   7.424   2.943   2.223
 3549TIP3   OH210523   7.962   1.579   2.230
 3549TIP3    H110524   7.916   1.511   2.282
 3549TIP3    H210525   8.027   1.526   2.180
 3550TIP3   OH210526   8.483   1.451   2.144
 3550TIP3    H110527   8.521   1.503   2.069
 3550TIP3    H210528   8.388   1.470   2.136
 3551TIP3   OH210529   8.585   1.553   1.913
 3551TIP3    H110530   8.661   1.522   1.862
 3551TIP3    H210531   8.597   1.650   1.905
 3552TIP3   OH210532   7.210   1.289   2.245
 3552TIP3    H110533   7.117   1.257   2.243
 3552TIP3    H210534   7.257   1.203   2.243
 3553TIP3   OH210535   6.998   1.155   1.889
 3553TIP3    H110536   7.022   1.217   1.818
 3553TIP3    H210537   6.963   1.216   1.956
 3554TIP3   OH210538   7.651   1.322   2.119
 3554TIP3    H110539   7.715   1.375   2.070
 3554TIP3    H210540   7.665   1.354   2.209
 3555TIP3   OH210541   8.208   1.465   2.101
 3555TIP3    H110542   8.190   1.438   2.010
 3555TIP3    H210543   8.187   1.383   2.153
 3556TIP3   OH210544   8.220   1.423   1.775
 3556TIP3    H110545   8.169   1.431   1.693
 3556TIP3    H210546   8.216   1.326   1.788
 3557TIP3   OH210547   6.713   2.724   1.672
 3557TIP3    H110548   6.629   2.691   1.638
 3557TIP3    H210549   6.700   2.819   1.657
 3558TIP3   OH210550   7.111   1.317   1.660
 3558TIP3    H110551   7.158   1.261   1.596
 3558TIP3    H210552   7.183   1.370   1.698
 3559TIP3   OH210553   7.630   1.485   1.758
 3559TIP3    H110554   7.690   1.449   1.826
 3559TIP3    H210555   7.643   1.581   1.777
 3560TIP3   OH210556   7.484   2.918   1.254
 3560TIP3    H110557   7.572   2.941   1.216
 3560TIP3    H210558   7.461   2.843   1.195
 3561TIP3   OH210559   8.205   3.033   1.345
 3561TIP3    H110560   8.195   2.936   1.332
 3561TIP3    H210561   8.157   3.067   1.267
 3562TIP3   OH210562   7.417   1.569   3.137
 3562TIP3    H110563   7.384   1.497   3.193
 3562TIP3    H210564   7.511   1.569   3.162
 3563TIP3   OH210565   7.666   1.566   3.255
 3563TIP3    H110566   7.750   1.537   3.215
 3563TIP3    H210567   7.652   1.495   3.322
 3564TIP3   OH210568   6.789   2.755   1.312
 3564TIP3    H110569   6.784   2.782   1.405
 3564TIP3    H210570   6.878   2.714   1.305
 3565TIP3   OH210571   8.487   1.624   3.044
 3565TIP3    H110572   8.509   1.594   3.135
 3565TIP3    H210573   8.575   1.621   3.000
 3566TIP3   OH210574   8.427   3.173   2.540
 3566TIP3    H110575   8.349   3.144   2.488
 3566TIP3    H210576   8.412   3.270   2.539
 3567TIP3   OH210577   8.653   2.062   1.576
 3567TIP3    H110578   8.586   2.133   1.576
 3567TIP3    H210579   8.606   1.995   1.522
 3568TIP3   OH210580   8.709   2.351   1.727
 3568TIP3    H110581   8.747   2.270   1.763
 3568TIP3    H210582   8.745   2.348   1.637
 3569TIP3   OH210583   8.567   2.583   1.311
 3569TIP3    H110584   8.538   2.599   1.220
 3569TIP3    H210585   8.596   2.673   1.337
 3570TIP3   OH210586   8.753   2.692   2.219
 3570TIP3    H110587   8.680   2.665   2.160
 3570TIP3    H210588   8.784   2.607   2.257
 3571TIP3   OH210589   8.612   2.900   1.871
 3571TIP3    H110590   8.707   2.910   1.861
 3571TIP3    H210591   8.589   2.984   1.915
 3572TIP3   OH210592   8.746   3.122   1.407
 3572TIP3    H110593   8.801   3.117   1.488
 3572TIP3    H210594   8.692   3.042   1.416
 3573TIP3   OH210595   8.887   2.922   2.242
 3573TIP3    H110596   8.935   2.896   2.321
 3573TIP3    H210597   8.832   2.843   2.226
 3574TIP3   OH210598   8.664   1.805   1.849
 3574TIP3    H110599   8.731   1.844   1.905
 3574TIP3    H210600   8.698   1.821   1.759
 3575TIP3   OH210601   8.852   2.492   2.378
 3575TIP3    H110602   8.876   2.457   2.466
 3575TIP3    H210603   8.786   2.426   2.348
 3576TIP3   OH210604   8.622   2.256   1.120
 3576TIP3    H110605   8.656   2.339   1.156
 3576TIP3    H210606   8.553   2.232   1.185
 3577TIP3   OH210607   8.797   3.092   2.014
 3577TIP3    H110608   8.833   3.017   2.065
 3577TIP3    H210609   8.827   3.167   2.068
 3578TIP3   OH210610   8.629   2.850   1.365
 3578TIP3    H110611   8.550   2.882   1.411
 3578TIP3    H210612   8.617   2.894   1.278
 3579TIP3   OH210613   8.784   3.388   2.429
 3579TIP3    H110614   8.872   3.377   2.469
 3579TIP3    H210615   8.755   3.295   2.425
 3580TIP3   OH210616   8.904   2.822   2.631
 3580TIP3    H110617   8.950   2.738   2.644
 3580TIP3    H210618   8.833   2.800   2.567
 3581TIP3   OH210619   8.491   2.598   1.000
 3581TIP3    H110620   8.587   2.590   1.012
 3581TIP3    H210621   8.471   2.509   0.961
 3582TIP3   OH210622   8.406   3.207   1.420
 3582TIP3    H110623   8.337   3.145   1.386
 3582TIP3    H210624   8.450   3.150   1.487
 3583TIP3   OH210625   8.539   3.058   1.610
 3583TIP3    H110626   8.524   2.985   1.673
 3583TIP3    H210627   8.591   3.119   1.665
 3584TIP3   OH210628   8.760   2.449   1.980
 3584TIP3    H110629   8.730   2.428   1.889
 3584TIP3    H210630   8.838   2.505   1.963
 3585TIP3   OH210631   8.931   2.142   2.638
 3585TIP3    H110632   9.022   2.173   2.650
 3585TIP3    H210633   8.926   2.065   2.698
 3586TIP3   OH210634   8.698   2.141   2.036
 3586TIP3    H110635   8.765   2.072   2.025
 3586TIP3    H210636   8.748   2.219   2.062
 3587TIP3   OH210637   8.954   3.127   2.467
 3587TIP3    H110638   8.867   3.100   2.432
 3587TIP3    H210639   8.949   3.098   2.559
 3588TIP3   OH210640   8.801   3.412   2.024
 3588TIP3    H110641   8.716   3.453   1.997
 3588TIP3    H210642   8.810   3.448   2.113
 3589TIP3   OH210643   9.050   3.397   1.890
 3589TIP3    H110644   8.959   3.405   1.923
 3589TIP3    H210645   9.041   3.430   1.799
 3590TIP3   OH210646   8.722   3.210   1.765
 3590TIP3    H110647   8.749   3.190   1.857
 3590TIP3    H210648   8.800   3.176   1.717
 3591TIP3   OH210649   8.925   3.098   1.613
 3591TIP3    H110650   8.949   3.004   1.616
 3591TIP3    H210651   9.014   3.140   1.621
 3592TIP3   OH210652   8.509   2.978   1.159
 3592TIP3    H110653   8.422   2.950   1.124
 3592TIP3    H210654   8.500   3.074   1.149
 3593TIP3   OH210655   8.603   3.018   0.810
 3593TIP3    H110656   8.570   3.050   0.895
 3593TIP3    H210657   8.668   2.952   0.837
 3594TIP3   OH210658   0.376   3.099   3.529
 3594TIP3    H110659   0.339   3.188   3.516
 3594TIP3    H210660   0.306   3.045   3.488
 3595TIP3   OH210661   0.338   3.081   3.888
 3595TIP3    H110662   0.379   3.057   3.973
 3595TIP3    H210663   0.311   2.994   3.854
 3596TIP3   OH210664  -0.350   2.981   4.246
 3596TIP3    H110665  -0.327   2.909   4.308
 3596TIP3    H210666  -0.277   3.042   4.262
 3597TIP3   OH210667   0.587   3.383   3.567
 3597TIP3    H110668   0.587   3.312   3.633
 3597TIP3    H210669   0.622   3.458   3.620
 3598TIP3   OH210670  -0.373   3.384   3.966
 3598TIP3    H110671  -0.391   3.289   3.977
 3598TIP3    H210672  -0.280   3.389   3.993
 3599TIP3   OH210673   0.235   3.841   3.580
 3599TIP3    H110674   0.285   3.770   3.535
 3599TIP3    H210675   0.242   3.816   3.673
 3600TIP3   OH210676   0.154   3.305   3.922
 3600TIP3    H110677   0.198   3.222   3.893
 3600TIP3    H210678   0.234   3.353   3.951
 3601TIP3   OH210679   1.159   2.629   3.929
 3601TIP3    H110680   1.189   2.709   3.977
 3601TIP3    H210681   1.182   2.653   3.838
 3602TIP3   OH210682   0.565   2.813   3.968
 3602TIP3    H110683   0.604   2.725   3.989
 3602TIP3    H210684   0.530   2.796   3.878
 3603TIP3   OH210685  -0.101   2.489   3.907
 3603TIP3    H110686  -0.129   2.533   3.826
 3603TIP3    H210687  -0.082   2.400   3.872
 3604TIP3   OH210688   0.592   2.570   3.579
 3604TIP3    H110689   0.670   2.552   3.636
 3604TIP3    H210690   0.635   2.607   3.501
 3605TIP3   OH210691  -0.470   2.668   4.036
 3605TIP3    H110692  -0.393   2.647   4.092
 3605TIP3    H210693  -0.438   2.642   3.949
 3606TIP3   OH210694  -0.018   2.868   3.820
 3606TIP3    H110695   0.076   2.853   3.843
 3606TIP3    H210696  -0.049   2.777   3.813
 3607TIP3   OH210697   1.233   2.833   4.100
 3607TIP3    H110698   1.150   2.882   4.084
 3607TIP3    H210699   1.252   2.858   4.192
 3608TIP3   OH210700  -0.110   2.452   4.359
 3608TIP3    H110701  -0.176   2.488   4.297
 3608TIP3    H210702  -0.154   2.469   4.445
 3609TIP3   OH210703   0.219   3.307   3.405
 3609TIP3    H110704   0.209   3.275   3.312
 3609TIP3    H210705   0.281   3.381   3.390
 3610TIP3   OH210706   0.001   3.225   4.161
 3610TIP3    H110707  -0.064   3.286   4.203
 3610TIP3    H210708   0.047   3.285   4.100
 3611TIP3   OH210709   0.816   2.558   3.726
 3611TIP3    H110710   0.800   2.509   3.808
 3611TIP3    H210711   0.866   2.635   3.757
 3612TIP3   OH210712  -0.227   2.579   4.139
 3612TIP3    H110713  -0.172   2.651   4.176
 3612TIP3    H210714  -0.164   2.542   4.074
 3613TIP3   OH210715  -0.172   3.416   4.250
 3613TIP3    H110716  -0.193   3.507   4.221
 3613TIP3    H210717  -0.246   3.402   4.313
 3614TIP3   OH210718   0.661   3.622   3.731
 3614TIP3    H110719   0.572   3.617   3.772
 3614TIP3    H210720   0.658   3.711   3.690
 3615TIP3   OH210721   0.954   2.528   4.096
 3615TIP3    H110722   0.867   2.561   4.068
 3615TIP3    H210723   1.013   2.560   4.024
 3616TIP3   OH210724   0.265   2.184   4.084
 3616TIP3    H110725   0.249   2.088   4.095
 3616TIP3    H210726   0.181   2.217   4.121
 3617TIP3   OH210727   0.357   3.667   3.403
 3617TIP3    H110728   0.411   3.588   3.382
 3617TIP3    H210729   0.417   3.737   3.368
 3618TIP3   OH210730   0.478   3.436   3.321
 3618TIP3    H110731   0.505   3.369   3.256
 3618TIP3    H210732   0.533   3.413   3.399
 3619TIP3   OH210733   0.889   3.541   4.078
 3619TIP3    H110734   0.882   3.463   4.019
 3619TIP3    H210735   0.876   3.615   4.016
 3620TIP3   OH210736   0.212   2.975   3.360
 3620TIP3    H110737   0.121   3.000   3.332
 3620TIP3    H210738   0.259   2.979   3.274
 3621TIP3   OH210739   1.086   3.172   3.919
 3621TIP3    H110740   1.005   3.227   3.927
 3621TIP3    H210741   1.116   3.198   3.830
 3622TIP3   OH210742   0.537   3.027   3.316
 3622TIP3    H110743   0.489   3.050   3.398
 3622TIP3    H210744   0.618   2.987   3.354
 3623TIP3   OH210745   0.765   3.056   4.216
 3623TIP3    H110746   0.765   3.139   4.269
 3623TIP3    H210747   0.679   3.063   4.171
 3624TIP3   OH210748  -0.214   3.021   3.707
 3624TIP3    H110749  -0.281   2.952   3.688
 3624TIP3    H210750  -0.145   2.967   3.751
 3625TIP3   OH210751  -0.092   3.436   3.858
 3625TIP3    H110752  -0.128   3.360   3.811
 3625TIP3    H210753  -0.006   3.401   3.888
 3626TIP3   OH210754  -0.097   2.985   4.071
 3626TIP3    H110755  -0.055   2.972   3.984
 3626TIP3    H210756  -0.058   3.070   4.101
 3627TIP3   OH210757   0.419   3.621   3.852
 3627TIP3    H110758   0.411   3.702   3.906
 3627TIP3    H210759   0.410   3.550   3.918
 3628TIP3   OH210760   0.035   3.542   4.399
 3628TIP3    H110761  -0.022   3.606   4.448
 3628TIP3    H210762  -0.033   3.489   4.353
 3629TIP3   OH210763   0.368   2.897   3.141
 3629TIP3    H110764   0.444   2.933   3.191
 3629TIP3    H210765   0.404   2.895   3.049
 3630TIP3   OH210766  -0.201   3.106   4.487
 3630TIP3    H110767  -0.199   3.192   4.535
 3630TIP3    H210768  -0.293   3.078   4.508
 3631TIP3   OH210769   0.079   3.546   3.427
 3631TIP3    H110770   0.166   3.590   3.440
 3631TIP3    H210771   0.032   3.617   3.380
 3632TIP3   OH210772  -0.166   3.715   4.488
 3632TIP3    H110773  -0.204   3.705   4.398
 3632TIP3    H210774  -0.237   3.677   4.545
 3633TIP3   OH210775   0.687   3.488   2.729
 3633TIP3    H110776   0.694   3.585   2.714
 3633TIP3    H210777   0.780   3.460   2.716
 3634TIP3   OH210778  -0.583   3.256   4.426
 3634TIP3    H110779  -0.649   3.217   4.366
 3634TIP3    H210780  -0.555   3.176   4.474
 3635TIP3   OH210781   1.128   3.881   4.121
 3635TIP3    H110782   1.128   3.785   4.138
 3635TIP3    H210783   1.045   3.907   4.168
 3636TIP3   OH210784   0.232   3.673   4.255
 3636TIP3    H110785   0.234   3.765   4.290
 3636TIP3    H210786   0.163   3.633   4.312
 3637TIP3   OH210787  -0.007   3.794   3.218
 3637TIP3    H110788  -0.042   3.783   3.128
 3637TIP3    H210789  -0.033   3.886   3.239
 3638TIP3   OH210790  -0.541   3.635   3.568
 3638TIP3    H110791  -0.504   3.623   3.658
 3638TIP3    H210792  -0.601   3.559   3.561
 3639TIP3   OH210793   0.201   3.698   2.853
 3639TIP3    H110794   0.265   3.633   2.812
 3639TIP3    H210795   0.241   3.710   2.941
 3640TIP3   OH210796   0.246   3.748   3.123
 3640TIP3    H110797   0.160   3.759   3.170
 3640TIP3    H210798   0.304   3.717   3.194
 3641TIP3   OH210799   1.019   3.016   4.398
 3641TIP3    H110800   0.939   3.028   4.346
 3641TIP3    H210801   1.035   2.920   4.388
 3642TIP3   OH210802  -0.375   3.428   4.424
 3642TIP3    H110803  -0.332   3.420   4.511
 3642TIP3    H210804  -0.447   3.363   4.431
 3643TIP3   OH210805   0.011   2.254   4.204
 3643TIP3    H110806  -0.070   2.219   4.165
 3643TIP3    H210807  -0.023   2.327   4.259
 3644TIP3   OH210808   0.547   2.365   4.402
 3644TIP3    H110809   0.615   2.335   4.466
 3644TIP3    H210810   0.463   2.342   4.447
 3645TIP3   OH210811   0.788   2.791   4.319
 3645TIP3    H110812   0.741   2.786   4.405
 3645TIP3    H210813   0.763   2.879   4.286
 3646TIP3   OH210814   0.462   2.919   2.881
 3646TIP3    H110815   0.388   2.915   2.819
 3646TIP3    H210816   0.517   2.990   2.845
 3647TIP3   OH210817  -0.051   2.767   4.227
 3647TIP3    H110818  -0.102   2.786   4.309
 3647TIP3    H210819  -0.071   2.848   4.174
 3648TIP3   OH210820   0.307   2.749   3.481
 3648TIP3    H110821   0.266   2.826   3.437
 3648TIP3    H210822   0.377   2.726   3.415
 3649TIP3   OH210823   0.494   3.015   4.555
 3649TIP3    H110824   0.473   2.941   4.616
 3649TIP3    H210825   0.588   3.029   4.576
 3650TIP3   OH210826   0.472   2.774   3.713
 3650TIP3    H110827   0.412   2.798   3.639
 3650TIP3    H210828   0.508   2.690   3.676
 3651TIP3   OH210829  -0.232   2.792   4.433
 3651TIP3    H110830  -0.220   2.856   4.504
 3651TIP3    H210831  -0.246   2.709   4.482
 3652TIP3   OH210832   0.483   3.013   4.128
 3652TIP3    H110833   0.520   2.939   4.073
 3652TIP3    H210834   0.459   2.962   4.208
 3653TIP3   OH210835   0.176   2.492   3.813
 3653TIP3    H110836   0.102   2.504   3.874
 3653TIP3    H210837   0.250   2.474   3.874
 3654TIP3   OH210838   0.646   2.547   4.000
 3654TIP3    H110839   0.614   2.558   4.093
 3654TIP3    H210840   0.583   2.481   3.967
 3655TIP3   OH210841   0.816   4.236   4.221
 3655TIP3    H110842   0.817   4.259   4.126
 3655TIP3    H210843   0.896   4.282   4.253
 3656TIP3   OH210844  -0.215   3.340   4.643
 3656TIP3    H110845  -0.137   3.375   4.691
 3656TIP3    H210846  -0.283   3.349   4.713
 3657TIP3   OH210847   0.237   2.801   3.900
 3657TIP3    H110848   0.305   2.755   3.849
 3657TIP3    H210849   0.249   2.762   3.989
 3658TIP3   OH210850   0.217   2.697   4.183
 3658TIP3    H110851   0.128   2.732   4.205
 3658TIP3    H210852   0.276   2.752   4.239
 3659TIP3   OH210853  -0.035   3.077   3.322
 3659TIP3    H110854  -0.103   3.040   3.264
 3659TIP3    H210855  -0.083   3.094   3.405
 3660TIP3   OH210856   0.856   3.323   3.914
 3660TIP3    H110857   0.882   3.371   3.832
 3660TIP3    H210858   0.770   3.283   3.890
 3661TIP3   OH210859   0.349   3.402   4.281
 3661TIP3    H110860   0.377   3.378   4.370
 3661TIP3    H210861   0.315   3.493   4.292
 3662TIP3   OH210862   0.499   2.688   3.301
 3662TIP3    H110863   0.594   2.666   3.294
 3662TIP3    H210864   0.472   2.697   3.208
 3663TIP3   OH210865  -0.353   3.108   3.960
 3663TIP3    H110866  -0.307   3.073   3.881
 3663TIP3    H210867  -0.324   3.046   4.030
 3664TIP3   OH210868   0.112   3.266   3.162
 3664TIP3    H110869   0.053   3.339   3.133
 3664TIP3    H210870   0.050   3.192   3.172
 3665TIP3   OH210871  -0.444   3.023   4.574
 3665TIP3    H110872  -0.436   3.018   4.671
 3665TIP3    H210873  -0.537   2.995   4.560
 3666TIP3   OH210874   0.250   3.142   4.593
 3666TIP3    H110875   0.192   3.080   4.545
 3666TIP3    H210876   0.339   3.109   4.566
 3667TIP3   OH210877   0.512   3.663   4.175
 3667TIP3    H110878   0.416   3.664   4.189
 3667TIP3    H210879   0.543   3.714   4.253
 3668TIP3   OH210880   0.924   2.728   3.083
 3668TIP3    H110881   0.866   2.690   3.013
 3668TIP3    H210882   0.926   2.821   3.051
 3669TIP3   OH210883   1.140   3.590   4.168
 3669TIP3    H110884   1.042   3.586   4.159
 3669TIP3    H210885   1.166   3.562   4.078
 3670TIP3   OH210886   0.619   3.553   2.992
 3670TIP3    H110887   0.603   3.475   3.046
 3670TIP3    H210888   0.636   3.515   2.904
 3671TIP3   OH210889   0.619   3.186   3.830
 3671TIP3    H110890   0.528   3.158   3.845
 3671TIP3    H210891   0.656   3.105   3.787
 3672TIP3   OH210892  -0.267   3.412   3.555
 3672TIP3    H110893  -0.269   3.505   3.523
 3672TIP3    H210894  -0.355   3.404   3.596
 3673TIP3   OH210895  -0.087   3.219   3.557
 3673TIP3    H110896  -0.166   3.278   3.565
 3673TIP3    H210897  -0.119   3.143   3.611
 3674TIP3   OH210898   0.016   3.757   4.052
 3674TIP3    H110899   0.060   3.829   4.003
 3674TIP3    H210900   0.091   3.723   4.105
 3675TIP3   OH210901  -0.310   3.656   3.433
 3675TIP3    H110902  -0.400   3.660   3.472
 3675TIP3    H210903  -0.285   3.752   3.439
 3676TIP3   OH210904   0.405   3.389   4.012
 3676TIP3    H110905   0.396   3.388   4.110
 3676TIP3    H210906   0.489   3.341   4.001
 3677TIP3   OH210907   0.375   3.273   2.891
 3677TIP3    H110908   0.418   3.260   2.978
 3677TIP3    H210909   0.290   3.226   2.905
 3678TIP3   OH210910   0.652   3.925   4.064
 3678TIP3    H110911   0.574   3.867   4.055
 3678TIP3    H210912   0.638   3.990   3.992
 3679TIP3   OH210913   0.718   3.759   2.716
 3679TIP3    H110914   0.759   3.830   2.663
 3679TIP3    H210915   0.638   3.808   2.746
 3680TIP3   OH210916  -0.252   2.532   4.588
 3680TIP3    H110917  -0.344   2.542   4.615
 3680TIP3    H210918  -0.220   2.467   4.653
 3681TIP3   OH210919   0.540   3.228   3.125
 3681TIP3    H110920   0.530   3.154   3.188
 3681TIP3    H210921   0.635   3.218   3.103
 3682TIP3   OH210922  -0.510   3.640   4.206
 3682TIP3    H110923  -0.488   3.548   4.223
 3682TIP3    H210924  -0.515   3.674   4.296
 3683TIP3   OH210925  -0.317   3.298   3.228
 3683TIP3    H110926  -0.292   3.304   3.322
 3683TIP3    H210927  -0.330   3.393   3.207
 3684TIP3   OH210928   0.573   2.598   4.260
 3684TIP3    H110929   0.652   2.636   4.301
 3684TIP3    H210930   0.558   2.518   4.314
 3685TIP3   OH210931   0.546   2.389   3.384
 3685TIP3    H110932   0.450   2.377   3.371
 3685TIP3    H210933   0.547   2.448   3.462
 3686TIP3   OH210934  -0.054   3.468   3.094
 3686TIP3    H110935  -0.140   3.494   3.134
 3686TIP3    H210936  -0.022   3.555   3.065
 3687TIP3   OH210937   0.222   2.493   3.524
 3687TIP3    H110938   0.248   2.585   3.502
 3687TIP3    H210939   0.182   2.507   3.612
 3688TIP3   OH210940   0.415   2.850   4.337
 3688TIP3    H110941   0.433   2.903   4.418
 3688TIP3    H210942   0.471   2.771   4.353
 3689TIP3   OH210943   0.341   2.268   3.651
 3689TIP3    H110944   0.312   2.310   3.733
 3689TIP3    H210945   0.366   2.345   3.599
 3690TIP3   OH210946  -0.296   3.562   3.178
 3690TIP3    H110947  -0.313   3.636   3.116
 3690TIP3    H210948  -0.307   3.607   3.265
 3691TIP3   OH210949   1.055   2.749   4.316
 3691TIP3    H110950   0.957   2.746   4.324
 3691TIP3    H210951   1.066   2.708   4.230
 3692TIP3   OH210952   0.706   2.944   3.704
 3692TIP3    H110953   0.629   2.886   3.721
 3692TIP3    H210954   0.778   2.898   3.753
 3693TIP3   OH210955   0.673   3.894   3.654
 3693TIP3    H110956   0.632   3.943   3.579
 3693TIP3    H210957   0.767   3.915   3.637
 3694TIP3   OH210958   4.950   9.078   9.203
 3694TIP3    H110959   4.853   9.081   9.200
 3694TIP3    H210960   4.970   9.032   9.120
 3695TIP3   OH210961  -0.074   3.902   4.675
 3695TIP3    H110962   0.018   3.876   4.690
 3695TIP3    H210963  -0.099   3.839   4.604
 3696TIP3   OH210964   0.567   3.796   4.410
 3696TIP3    H110965   0.558   3.727   4.480
 3696TIP3    H210966   0.645   3.846   4.441
 3697TIP3   OH210967   0.354   3.518   2.723
 3697TIP3    H110968   0.381   3.442   2.777
 3697TIP3    H210969   0.419   3.517   2.650
 3698TIP3   OH210970  -0.405   3.317   4.841
 3698TIP3    H110971  -0.373   3.225   4.839
 3698TIP3    H210972  -0.500   3.300   4.824
 3699TIP3   OH210973   0.185   3.416   4.607
 3699TIP3    H110974   0.143   3.428   4.520
 3699TIP3    H210975   0.217   3.323   4.603
 3700TIP3   OH210976   0.674   3.422   4.210
 3700TIP3    H110977   0.750   3.468   4.169
 3700TIP3    H210978   0.606   3.491   4.202
 3701TIP3   OH210979  -0.316   3.050   4.830
 3701TIP3    H110980  -0.237   3.002   4.801
 3701TIP3    H210981  -0.286   3.085   4.917
 3702TIP3   OH210982   0.033   2.953   4.480
 3702TIP3    H110983  -0.045   3.013   4.481
 3702TIP3    H210984   0.079   2.984   4.399
 3703TIP3   OH210985   0.545   3.353   4.611
 3703TIP3    H110986   0.630   3.335   4.569
 3703TIP3    H210987   0.545   3.286   4.683
 3704TIP3   OH210988   0.691   3.011   2.720
 3704TIP3    H110989   0.663   3.003   2.628
 3704TIP3    H210990   0.663   3.105   2.733
 3705TIP3   OH210991   0.151   2.738   4.608
 3705TIP3    H110992   0.152   2.658   4.553
 3705TIP3    H210993   0.109   2.804   4.549
 3706TIP3   OH210994   0.151   2.527   4.411
 3706TIP3    H110995   0.182   2.563   4.325
 3706TIP3    H210996   0.059   2.502   4.390
 3707TIP3   OH210997   0.185   3.059   4.280
 3707TIP3    H110998   0.269   3.066   4.234
 3707TIP3    H210999   0.131   3.130   4.239
 3708TIP3   OH211000   0.766   3.030   4.667
 3708TIP3    H111001   0.814   2.946   4.680
 3708TIP3    H211002   0.837   3.088   4.635
 3709TIP3   OH211003   0.807   3.280   4.400
 3709TIP3    H111004   0.749   3.334   4.340
 3709TIP3    H211005   0.895   3.300   4.360
 3710TIP3   OH211006   0.025   2.857   4.832
 3710TIP3    H111007  -0.040   2.785   4.847
 3710TIP3    H211008   0.065   2.830   4.747
 3711TIP3   OH211009   0.289   2.292   4.477
 3711TIP3    H111010   0.238   2.373   4.455
 3711TIP3    H211011   0.221   2.223   4.466
 3712TIP3   OH211012   0.413   2.797   4.694
 3712TIP3    H111013   0.407   2.785   4.791
 3712TIP3    H211014   0.323   2.770   4.668
 3713TIP3   OH211015   0.653   2.743   4.548
 3713TIP3    H111016   0.578   2.744   4.610
 3713TIP3    H211017   0.727   2.712   4.606
 3714TIP3   OH211018   0.880   2.683   4.700
 3714TIP3    H111019   0.894   2.587   4.721
 3714TIP3    H211020   0.877   2.723   4.790
 3715TIP3   OH211021  -0.131   2.637   4.887
 3715TIP3    H111022  -0.123   2.546   4.851
 3715TIP3    H211023  -0.093   2.623   4.977
 3716TIP3   OH211024   0.382   2.300   4.735
 3716TIP3    H111025   0.451   2.230   4.731
 3716TIP3    H211026   0.343   2.292   4.645
 3717TIP3   OH211027   0.448   2.515   4.894
 3717TIP3    H111028   0.425   2.443   4.830
 3717TIP3    H211029   0.370   2.574   4.887
 3718TIP3   OH211030  -0.321   3.762   2.991
 3718TIP3    H111031  -0.227   3.775   2.971
 3718TIP3    H211032  -0.361   3.798   2.910
 3719TIP3   OH211033   0.922   3.992   3.610
 3719TIP3    H111034   0.952   4.025   3.697
 3719TIP3    H211035   0.985   4.034   3.550
 3720TIP3   OH211036   0.954   4.010   3.893
 3720TIP3    H111037   0.915   3.920   3.889
 3720TIP3    H211038   1.032   3.993   3.949
 3721TIP3   OH211039   1.000   3.687   4.464
 3721TIP3    H111040   0.928   3.695   4.530
 3721TIP3    H211041   1.043   3.775   4.470
 3722TIP3   OH211042   0.817   3.199   3.085
 3722TIP3    H111043   0.886   3.264   3.058
 3722TIP3    H211044   0.859   3.160   3.165
 3723TIP3   OH211045   0.943   3.067   3.288
 3723TIP3    H111046   0.881   3.024   3.351
 3723TIP3    H211047   1.011   3.104   3.348
 3724TIP3   OH211048   0.993   3.455   3.717
 3724TIP3    H111049   1.053   3.395   3.669
 3724TIP3    H211050   0.991   3.534   3.659
 3725TIP3   OH211051   0.832   3.758   3.917
 3725TIP3    H111052   0.763   3.800   3.971
 3725TIP3    H211053   0.779   3.709   3.850
 3726TIP3   OH211054   0.879   2.972   2.937
 3726TIP3    H111055   0.811   2.981   2.867
 3726TIP3    H211056   0.856   3.048   2.994
 3727TIP3   OH211057   0.759   2.639   2.881
 3727TIP3    H111058   0.693   2.707   2.863
 3727TIP3    H211059   0.706   2.559   2.873
 3728TIP3   OH211060   0.761   2.919   3.437
 3728TIP3    H111061   0.769   2.823   3.434
 3728TIP3    H211062   0.748   2.936   3.533
 3729TIP3   OH211063  -0.605   3.025   4.142
 3729TIP3    H111064  -0.592   2.942   4.094
 3729TIP3    H211065  -0.521   3.026   4.193
 3730TIP3   OH211066   1.048   3.347   4.291
 3730TIP3    H111067   1.121   3.282   4.285
 3730TIP3    H211068   1.080   3.419   4.235
 3731TIP3   OH211069   1.234   3.155   4.312
 3731TIP3    H111070   1.161   3.103   4.352
 3731TIP3    H211071   1.308   3.093   4.325
 3732TIP3   OH211072   0.772   2.637   3.332
 3732TIP3    H111073   0.808   2.548   3.349
 3732TIP3    H211074   0.833   2.669   3.263
 3733TIP3   OH211075   0.918   2.815   3.826
 3733TIP3    H111076   1.004   2.842   3.787
 3733TIP3    H211077   0.930   2.850   3.916
 3734TIP3   OH211078   0.983   2.956   4.059
 3734TIP3    H111079   0.907   2.991   4.109
 3734TIP3    H211080   1.017   3.037   4.015
 3735TIP3   OH211081  -0.405   2.662   4.863
 3735TIP3    H111082  -0.311   2.682   4.848
 3735TIP3    H211083  -0.397   2.595   4.931
 3736TIP3   OH211084   1.436   2.545   4.616
 3736TIP3    H111085   1.495   2.480   4.573
 3736TIP3    H211086   1.411   2.603   4.541
 3737TIP3   OH211087   0.873   2.377   3.359
 3737TIP3    H111088   0.923   2.370   3.444
 3737TIP3    H211089   0.797   2.320   3.379
 3738TIP3   OH211090  -0.598   2.657   4.289
 3738TIP3    H111091  -0.576   2.655   4.195
 3738TIP3    H211092  -0.642   2.742   4.299
 3739TIP3   OH211093   1.311   2.690   4.423
 3739TIP3    H111094   1.224   2.727   4.447
 3739TIP3    H211095   1.283   2.617   4.364
 3740TIP3   OH211096   1.091   2.286   2.964
 3740TIP3    H111097   1.004   2.268   2.927
 3740TIP3    H211098   1.086   2.382   2.984
 3741TIP3   OH211099   0.507   3.850   3.271
 3741TIP3    H111100   0.559   3.839   3.188
 3741TIP3    H211101   0.558   3.919   3.316
 3742TIP3   OH211102  -0.434   2.242   4.590
 3742TIP3    H111103  -0.488   2.222   4.667
 3742TIP3    H211104  -0.498   2.279   4.529
 3743TIP3   OH211105  -0.358   3.622   4.660
 3743TIP3    H111106  -0.445   3.664   4.645
 3743TIP3    H211107  -0.358   3.616   4.757
 3744TIP3   OH211108  -0.203   3.684   4.204
 3744TIP3    H111109  -0.263   3.752   4.169
 3744TIP3    H211110  -0.121   3.708   4.157
 3745TIP3   OH211111   0.236   3.938   4.340
 3745TIP3    H111112   0.277   3.937   4.429
 3745TIP3    H211113   0.304   3.987   4.289
 3746TIP3   OH211114   0.416   4.087   4.196
 3746TIP3    H111115   0.489   4.036   4.158
 3746TIP3    H211116   0.465   4.145   4.258
 3747TIP3   OH211117   1.208   2.451   4.298
 3747TIP3    H111118   1.116   2.445   4.268
 3747TIP3    H211119   1.238   2.358   4.286
 3748TIP3   OH211120  -0.301   3.928   4.089
 3748TIP3    H111121  -0.388   3.933   4.131
 3748TIP3    H211122  -0.320   3.962   3.999
 3749TIP3   OH211123   0.129   3.959   3.879
 3749TIP3    H111124   0.061   3.983   3.813
 3749TIP3    H211125   0.144   4.045   3.925
 3750TIP3   OH211126   0.397   3.895   3.927
 3750TIP3    H111127   0.303   3.915   3.911
 3750TIP3    H211128   0.441   3.974   3.892
 3751TIP3   OH211129   0.601   4.088   3.848
 3751TIP3    H111130   0.590   4.174   3.801
 3751TIP3    H211131   0.630   4.030   3.774
 3752TIP3   OH211132  -0.574   3.763   3.956
 3752TIP3    H111133  -0.556   3.724   4.044
 3752TIP3    H211134  -0.519   3.702   3.901
 3753TIP3   OH211135  -0.418   3.598   3.806
 3753TIP3    H111136  -0.408   3.518   3.864
 3753TIP3    H211137  -0.329   3.638   3.814
 3754TIP3   OH211138  -0.161   3.710   3.830
 3754TIP3    H111139  -0.129   3.618   3.821
 3754TIP3    H211140  -0.118   3.733   3.914
 3755TIP3   OH211141   0.408   2.366   3.920
 3755TIP3    H111142   0.367   2.299   3.978
 3755TIP3    H211143   0.477   2.313   3.876
 3756TIP3   OH211144   0.941   2.248   3.823
 3756TIP3    H111145   0.974   2.302   3.748
 3756TIP3    H211146   0.845   2.262   3.818
 3757TIP3   OH211147   1.033   2.348   3.580
 3757TIP3    H111148   1.110   2.299   3.544
 3757TIP3    H211149   1.066   2.441   3.573
 3758TIP3   OH211150   0.660   2.256   3.799
 3758TIP3    H111151   0.648   2.216   3.712
 3758TIP3    H211152   0.645   2.178   3.858
 3759TIP3   OH211153  -0.050   3.710   2.950
 3759TIP3    H111154   0.041   3.718   2.913
 3759TIP3    H211155  -0.097   3.671   2.875
 3760TIP3   OH211156   0.651   3.820   3.037
 3760TIP3    H111157   0.643   3.723   3.020
 3760TIP3    H211158   0.611   3.856   2.955
 3761TIP3   OH211159  -0.133   2.360   4.828
 3761TIP3    H111160  -0.166   2.285   4.881
 3761TIP3    H211161  -0.038   2.357   4.853
 3762TIP3   OH211162   0.118   2.352   4.945
 3762TIP3    H111163   0.202   2.328   4.904
 3762TIP3    H211164   0.106   2.279   5.009
 3763TIP3   OH211165   0.942   2.413   4.733
 3763TIP3    H111166   0.962   2.381   4.824
 3763TIP3    H211167   1.030   2.408   4.691
 3764TIP3   OH211168   0.883   3.967   4.224
 3764TIP3    H111169   0.803   3.936   4.178
 3764TIP3    H211170   0.865   4.063   4.227
 3765TIP3   OH211171   2.146   3.333   2.993
 3765TIP3    H111172   2.125   3.427   2.978
 3765TIP3    H211173   2.065   3.293   2.958
 3766TIP3   OH211174   2.149   3.334   3.368
 3766TIP3    H111175   2.178   3.312   3.459
 3766TIP3    H211176   2.101   3.254   3.341
 3767TIP3   OH211177   1.447   3.234   3.736
 3767TIP3    H111178   1.479   3.168   3.801
 3767TIP3    H211179   1.522   3.296   3.736
 3768TIP3   OH211180   2.389   3.635   3.054
 3768TIP3    H111181   2.379   3.571   3.126
 3768TIP3    H211182   2.417   3.715   3.102
 3769TIP3   OH211183   1.415   3.640   3.462
 3769TIP3    H111184   1.408   3.543   3.466
 3769TIP3    H211185   1.512   3.651   3.459
 3770TIP3   OH211186   1.127   2.849   3.245
 3770TIP3    H111187   1.082   2.934   3.263
 3770TIP3    H211188   1.052   2.792   3.226
 3771TIP3   OH211189   1.183   3.132   3.412
 3771TIP3    H111190   1.233   3.058   3.455
 3771TIP3    H211191   1.249   3.169   3.353
 3772TIP3   OH211192   2.034   4.100   3.066
 3772TIP3    H111193   2.084   4.030   3.021
 3772TIP3    H211194   2.035   4.069   3.158
 3773TIP3   OH211195   1.947   3.562   3.418
 3773TIP3    H111196   1.987   3.488   3.370
 3773TIP3    H211197   2.030   3.608   3.444
 3774TIP3   OH211198   2.955   2.886   3.416
 3774TIP3    H111199   2.984   2.966   3.465
 3774TIP3    H211200   2.982   2.909   3.325
 3775TIP3   OH211201   2.358   3.068   3.457
 3775TIP3    H111202   2.400   2.982   3.478
 3775TIP3    H211203   2.330   3.053   3.365
 3776TIP3   OH211204   1.694   2.724   3.417
 3776TIP3    H111205   1.673   2.798   3.356
 3776TIP3    H211206   1.643   2.652   3.375
 3777TIP3   OH211207   1.330   2.929   3.524
 3777TIP3    H111208   1.412   2.909   3.573
 3777TIP3    H211209   1.343   2.872   3.446
 3778TIP3   OH211210   1.772   3.125   3.311
 3778TIP3    H111211   1.864   3.098   3.331
 3778TIP3    H211212   1.732   3.041   3.284
 3779TIP3   OH211213   3.028   3.088   3.589
 3779TIP3    H111214   2.946   3.140   3.573
 3779TIP3    H211215   3.051   3.118   3.678
 3780TIP3   OH211216   1.692   2.707   3.851
 3780TIP3    H111217   1.631   2.746   3.786
 3780TIP3    H211218   1.643   2.724   3.934
 3781TIP3   OH211219   2.038   3.555   2.863
 3781TIP3    H111220   2.001   3.540   2.776
 3781TIP3    H211221   2.000   3.642   2.886
 3782TIP3   OH211222   1.797   3.482   3.649
 3782TIP3    H111223   1.734   3.547   3.688
 3782TIP3    H211224   1.841   3.536   3.581
 3783TIP3   OH211225   2.597   2.820   3.199
 3783TIP3    H111226   2.581   2.773   3.282
 3783TIP3    H211227   2.653   2.894   3.230
 3784TIP3   OH211228   1.562   2.824   3.636
 3784TIP3    H111229   1.623   2.897   3.661
 3784TIP3    H211230   1.613   2.783   3.563
 3785TIP3   OH211231   1.623   3.674   3.743
 3785TIP3    H111232   1.600   3.762   3.705
 3785TIP3    H211233   1.546   3.661   3.802
 3786TIP3   OH211234   1.021   3.366   2.983
 3786TIP3    H111235   0.983   3.395   2.898
 3786TIP3    H211236   1.052   3.452   3.021
 3787TIP3   OH211237   2.461   3.880   3.220
 3787TIP3    H111238   2.371   3.873   3.260
 3787TIP3    H211239   2.455   3.967   3.176
 3788TIP3   OH211240   2.751   2.780   3.579
 3788TIP3    H111241   2.667   2.821   3.556
 3788TIP3    H211242   2.812   2.815   3.511
 3789TIP3   OH211243   2.049   2.430   3.562
 3789TIP3    H111244   2.041   2.335   3.584
 3789TIP3    H211245   1.972   2.466   3.611
 3790TIP3   OH211246   2.165   3.929   2.897
 3790TIP3    H111247   2.215   3.848   2.873
 3790TIP3    H211248   2.224   3.996   2.856
 3791TIP3   OH211249   2.304   3.713   2.802
 3791TIP3    H111250   2.275   3.634   2.756
 3791TIP3    H211251   2.339   3.677   2.886
 3792TIP3   OH211252   2.687   3.797   3.565
 3792TIP3    H111253   2.678   3.720   3.506
 3792TIP3    H211254   2.671   3.872   3.503
 3793TIP3   OH211255   1.973   3.186   2.824
 3793TIP3    H111256   1.895   3.242   2.800
 3793TIP3    H211257   2.024   3.187   2.741
 3794TIP3   OH211258   1.940   2.971   2.542
 3794TIP3    H111259   2.007   3.025   2.588
 3794TIP3    H211260   1.999   2.906   2.497
 3795TIP3   OH211261   2.882   3.428   3.406
 3795TIP3    H111262   2.801   3.484   3.414
 3795TIP3    H211263   2.913   3.455   3.317
 3796TIP3   OH211264   2.324   3.266   2.795
 3796TIP3    H111265   2.271   3.297   2.872
 3796TIP3    H211266   2.408   3.242   2.838
 3797TIP3   OH211267   2.562   3.313   3.704
 3797TIP3    H111268   2.562   3.394   3.757
 3797TIP3    H211269   2.476   3.322   3.658
 3798TIP3   OH211270   1.558   3.270   3.210
 3798TIP3    H111271   1.519   3.212   3.141
 3798TIP3    H211272   1.637   3.218   3.238
 3799TIP3   OH211273   1.687   3.679   3.360
 3799TIP3    H111274   1.670   3.635   3.275
 3799TIP3    H211275   1.778   3.650   3.380
 3800TIP3   OH211276   1.696   3.242   3.561
 3800TIP3    H111277   1.732   3.227   3.472
 3800TIP3    H211278   1.738   3.327   3.587
 3801TIP3   OH211279   2.219   3.878   3.341
 3801TIP3    H111280   2.206   3.959   3.393
 3801TIP3    H211281   2.206   3.807   3.406
 3802TIP3   OH211282   1.832   3.797   3.886
 3802TIP3    H111283   1.776   3.861   3.936
 3802TIP3    H211284   1.763   3.745   3.840
 3803TIP3   OH211285   2.165   3.119   2.626
 3803TIP3    H111286   2.229   3.173   2.677
 3803TIP3    H211287   2.193   3.140   2.534
 3804TIP3   OH211288   1.584   3.357   3.984
 3804TIP3    H111289   1.591   3.443   4.032
 3804TIP3    H211290   1.489   3.338   3.998
 3805TIP3   OH211291   1.908   3.812   2.896
 3805TIP3    H111292   1.986   3.866   2.916
 3805TIP3    H211293   1.848   3.878   2.857
 3806TIP3   OH211294   1.627   3.966   3.973
 3806TIP3    H111295   1.591   3.964   3.883
 3806TIP3    H211296   1.548   3.947   4.029
 3807TIP3   OH211297   2.683   2.375   2.670
 3807TIP3    H111298   2.595   2.391   2.708
 3807TIP3    H211299   2.696   2.454   2.613
 3808TIP3   OH211300   1.427   3.110   3.011
 3808TIP3    H111301   1.363   3.159   2.956
 3808TIP3    H211302   1.378   3.030   3.032
 3809TIP3   OH211303   2.480   3.738   2.217
 3809TIP3    H111304   2.487   3.835   2.200
 3809TIP3    H211305   2.574   3.711   2.204
 3810TIP3   OH211306   1.205   3.496   3.923
 3810TIP3    H111307   1.144   3.469   3.852
 3810TIP3    H211308   1.244   3.410   3.951
 3811TIP3   OH211309   1.060   3.688   3.557
 3811TIP3    H111310   1.156   3.682   3.546
 3811TIP3    H211311   1.053   3.769   3.611
 3812TIP3   OH211312   2.925   4.139   3.608
 3812TIP3    H111313   2.924   4.043   3.623
 3812TIP3    H211314   2.842   4.165   3.654
 3813TIP3   OH211315   2.031   3.929   3.743
 3813TIP3    H111316   2.031   4.021   3.777
 3813TIP3    H211317   1.961   3.889   3.799
 3814TIP3   OH211318   1.787   4.055   2.698
 3814TIP3    H111319   1.746   4.039   2.611
 3814TIP3    H211320   1.759   4.146   2.718
 3815TIP3   OH211321   1.227   3.905   3.079
 3815TIP3    H111322   1.279   3.897   3.162
 3815TIP3    H211323   1.163   3.834   3.091
 3816TIP3   OH211324   1.992   3.955   2.338
 3816TIP3    H111325   2.052   3.887   2.300
 3816TIP3    H211326   2.029   3.966   2.428
 3817TIP3   OH211327   2.041   4.005   2.609
 3817TIP3    H111328   1.954   4.014   2.653
 3817TIP3    H211329   2.095   3.967   2.680
 3818TIP3   OH211330   2.818   3.273   3.883
 3818TIP3    H111331   2.735   3.285   3.834
 3818TIP3    H211332   2.831   3.177   3.877
 3819TIP3   OH211333   1.412   3.679   3.913
 3819TIP3    H111334   1.462   3.664   3.995
 3819TIP3    H211335   1.338   3.615   3.923
 3820TIP3   OH211336   1.810   2.505   3.691
 3820TIP3    H111337   1.720   2.474   3.669
 3820TIP3    H211338   1.787   2.587   3.739
 3821TIP3   OH211339   2.343   2.617   3.888
 3821TIP3    H111340   2.412   2.594   3.953
 3821TIP3    H211341   2.260   2.599   3.935
 3822TIP3   OH211342   2.581   3.046   3.803
 3822TIP3    H111343   2.537   3.042   3.891
 3822TIP3    H211344   2.560   3.137   3.773
 3823TIP3   OH211345   2.240   3.171   2.367
 3823TIP3    H111346   2.210   3.152   2.276
 3823TIP3    H211347   2.317   3.228   2.347
 3824TIP3   OH211348   1.983   2.547   2.670
 3824TIP3    H111349   1.935   2.553   2.755
 3824TIP3    H211350   1.933   2.472   2.631
 3825TIP3   OH211351   1.740   3.018   3.711
 3825TIP3    H111352   1.694   3.041   3.794
 3825TIP3    H211353   1.725   3.100   3.658
 3826TIP3   OH211354   1.627   2.903   3.225
 3826TIP3    H111355   1.533   2.879   3.243
 3826TIP3    H211356   1.639   2.862   3.137
 3827TIP3   OH211357   2.123   2.990   2.940
 3827TIP3    H111358   2.054   3.060   2.928
 3827TIP3    H211359   2.168   3.001   2.855
 3828TIP3   OH211360   2.290   3.270   4.039
 3828TIP3    H111361   2.269   3.198   4.102
 3828TIP3    H211362   2.383   3.288   4.062
 3829TIP3   OH211363   2.275   3.025   3.199
 3829TIP3    H111364   2.224   3.062   3.125
 3829TIP3    H211365   2.302   2.939   3.164
 3830TIP3   OH211366   1.559   3.048   3.923
 3830TIP3    H111367   1.590   3.112   3.989
 3830TIP3    H211368   1.550   2.967   3.975
 3831TIP3   OH211369   1.605   2.524   2.635
 3831TIP3    H111370   1.598   2.511   2.732
 3831TIP3    H211371   1.532   2.586   2.621
 3832TIP3   OH211372   1.151   2.579   3.504
 3832TIP3    H111373   1.230   2.605   3.556
 3832TIP3    H211374   1.189   2.540   3.423
 3833TIP3   OH211375   1.137   2.555   3.020
 3833TIP3    H111376   1.178   2.603   2.944
 3833TIP3    H211377   1.081   2.628   3.054
 3834TIP3   OH211378   2.278   3.269   3.617
 3834TIP3    H111379   2.315   3.196   3.562
 3834TIP3    H211380   2.255   3.218   3.698
 3835TIP3   OH211381   1.949   2.726   3.289
 3835TIP3    H111382   1.866   2.725   3.341
 3835TIP3    H211383   2.015   2.732   3.359
 3836TIP3   OH211384   1.389   2.782   3.296
 3836TIP3    H111385   1.294   2.789   3.270
 3836TIP3    H211386   1.411   2.690   3.275
 3837TIP3   OH211387   1.662   2.778   2.982
 3837TIP3    H111388   1.754   2.798   2.958
 3837TIP3    H211389   1.612   2.801   2.901
 3838TIP3   OH211390   2.441   2.804   3.483
 3838TIP3    H111391   2.415   2.815   3.578
 3838TIP3    H211392   2.376   2.738   3.455
 3839TIP3   OH211393   1.497   2.806   2.763
 3839TIP3    H111394   1.421   2.773   2.712
 3839TIP3    H211395   1.550   2.847   2.691
 3840TIP3   OH211396   2.613   4.491   3.708
 3840TIP3    H111397   2.612   4.515   3.613
 3840TIP3    H211398   2.691   4.541   3.739
 3841TIP3   OH211399   1.573   3.601   4.132
 3841TIP3    H111400   1.654   3.630   4.179
 3841TIP3    H211401   1.509   3.603   4.206
 3842TIP3   OH211402   2.035   3.050   3.386
 3842TIP3    H111403   2.115   3.018   3.343
 3842TIP3    H211404   2.044   3.017   3.477
 3843TIP3   OH211405   1.559   2.543   3.261
 3843TIP3    H111406   1.528   2.464   3.310
 3843TIP3    H211407   1.622   2.506   3.198
 3844TIP3   OH211408   2.014   2.952   3.675
 3844TIP3    H111409   1.925   2.989   3.691
 3844TIP3    H211410   2.073   3.009   3.728
 3845TIP3   OH211411   1.750   3.342   2.770
 3845TIP3    H111412   1.675   3.280   2.760
 3845TIP3    H211413   1.734   3.377   2.861
 3846TIP3   OH211414   2.653   3.579   3.401
 3846TIP3    H111415   2.678   3.628   3.320
 3846TIP3    H211416   2.566   3.541   3.377
 3847TIP3   OH211417   2.227   2.689   2.669
 3847TIP3    H111418   2.138   2.647   2.672
 3847TIP3    H211419   2.211   2.754   2.598
 3848TIP3   OH211420   2.146   3.658   3.769
 3848TIP3    H111421   2.173   3.639   3.860
 3848TIP3    H211422   2.111   3.748   3.776
 3849TIP3   OH211423   1.436   3.357   3.448
 3849TIP3    H111424   1.480   3.334   3.364
 3849TIP3    H211425   1.483   3.301   3.511
 3850TIP3   OH211426   1.895   3.492   2.590
 3850TIP3    H111427   1.849   3.579   2.596
 3850TIP3    H211428   1.842   3.438   2.651
 3851TIP3   OH211429   1.321   3.287   4.061
 3851TIP3    H111430   1.348   3.275   4.154
 3851TIP3    H211431   1.255   3.216   4.051
 3852TIP3   OH211432   2.047   3.398   4.079
 3852TIP3    H111433   1.992   3.338   4.028
 3852TIP3    H211434   2.137   3.368   4.054
 3853TIP3   OH211435   2.310   3.916   3.663
 3853TIP3    H111436   2.213   3.920   3.675
 3853TIP3    H211437   2.339   3.969   3.741
 3854TIP3   OH211438   2.731   2.993   2.561
 3854TIP3    H111439   2.662   2.950   2.507
 3854TIP3    H211440   2.722   3.083   2.524
 3855TIP3   OH211441   2.937   3.847   3.654
 3855TIP3    H111442   2.839   3.843   3.646
 3855TIP3    H211443   2.963   3.819   3.564
 3856TIP3   OH211444   2.414   3.811   2.478
 3856TIP3    H111445   2.400   3.736   2.537
 3856TIP3    H211446   2.434   3.769   2.392
 3857TIP3   OH211447   2.415   3.443   3.320
 3857TIP3    H111448   2.322   3.416   3.334
 3857TIP3    H211449   2.451   3.364   3.276
 3858TIP3   OH211450   1.542   3.665   3.069
 3858TIP3    H111451   1.548   3.748   3.018
 3858TIP3    H211452   1.447   3.658   3.080
 3859TIP3   OH211453   1.109   2.980   2.783
 3859TIP3    H111454   1.157   3.063   2.804
 3859TIP3    H211455   1.033   2.987   2.845
 3860TIP3   OH211456   1.683   3.433   3.016
 3860TIP3    H111457   1.649   3.524   3.032
 3860TIP3    H211458   1.646   3.386   3.093
 3861TIP3   OH211459   1.811   4.011   3.541
 3861TIP3    H111460   1.851   4.085   3.491
 3861TIP3    H211461   1.887   3.980   3.592
 3862TIP3   OH211462   1.464   3.906   2.925
 3862TIP3    H111463   1.378   3.916   2.969
 3862TIP3    H211464   1.497   3.999   2.927
 3863TIP3   OH211465   2.201   3.644   3.500
 3863TIP3    H111466   2.192   3.644   3.598
 3863TIP3    H211467   2.286   3.599   3.488
 3864TIP3   OH211468   2.172   3.530   2.383
 3864TIP3    H111469   2.226   3.510   2.463
 3864TIP3    H211470   2.083   3.514   2.417
 3865TIP3   OH211471   2.449   4.181   3.550
 3865TIP3    H111472   2.370   4.125   3.541
 3865TIP3    H211473   2.435   4.246   3.478
 3866TIP3   OH211474   2.512   4.009   2.203
 3866TIP3    H111475   2.562   4.075   2.151
 3866TIP3    H211476   2.437   4.065   2.230
 3867TIP3   OH211477   1.537   2.789   4.069
 3867TIP3    H111478   1.442   2.797   4.087
 3867TIP3    H211479   1.566   2.731   4.141
 3868TIP3   OH211480   2.332   3.473   2.603
 3868TIP3    H111481   2.325   3.403   2.670
 3868TIP3    H211482   2.429   3.472   2.587
 3869TIP3   OH211483   1.249   3.875   3.703
 3869TIP3    H111484   1.304   3.801   3.733
 3869TIP3    H211485   1.279   3.945   3.761
 3870TIP3   OH211486   1.541   3.520   2.381
 3870TIP3    H111487   1.558   3.429   2.350
 3870TIP3    H211488   1.524   3.506   2.476
 3871TIP3   OH211489   1.488   3.523   2.656
 3871TIP3    H111490   1.560   3.501   2.716
 3871TIP3    H211491   1.489   3.621   2.658
 3872TIP3   OH211492   1.223   3.221   2.858
 3872TIP3    H111493   1.159   3.268   2.915
 3872TIP3    H211494   1.241   3.289   2.791
 3873TIP3   OH211495   2.374   2.849   3.742
 3873TIP3    H111496   2.446   2.896   3.788
 3873TIP3    H211497   2.358   2.773   3.801
 3874TIP3   OH211498   1.750   3.720   2.602
 3874TIP3    H111499   1.665   3.753   2.637
 3874TIP3    H211500   1.772   3.792   2.540
 3875TIP3   OH211501   1.951   2.780   3.014
 3875TIP3    H111502   2.010   2.857   2.996
 3875TIP3    H211503   1.948   2.779   3.112
 3876TIP3   OH211504   2.210   3.104   3.826
 3876TIP3    H111505   2.226   3.163   3.903
 3876TIP3    H211506   2.268   3.029   3.847
 3877TIP3   OH211507   2.084   2.520   3.126
 3877TIP3    H111508   2.075   2.578   3.204
 3877TIP3    H211509   2.131   2.579   3.066
 3878TIP3   OH211510   1.490   3.796   2.668
 3878TIP3    H111511   1.464   3.866   2.604
 3878TIP3    H211512   1.478   3.842   2.754
 3879TIP3   OH211513   1.598   2.499   2.912
 3879TIP3    H111514   1.589   2.590   2.945
 3879TIP3    H211515   1.696   2.489   2.919
 3880TIP3   OH211516   2.849   3.004   3.805
 3880TIP3    H111517   2.751   3.001   3.810
 3880TIP3    H211518   2.864   2.972   3.715
 3881TIP3   OH211519   2.503   3.203   3.193
 3881TIP3    H111520   2.428   3.145   3.213
 3881TIP3    H211521   2.577   3.159   3.241
 3882TIP3   OH211522   1.211   3.432   2.663
 3882TIP3    H111523   1.271   3.507   2.673
 3882TIP3    H211524   1.262   3.381   2.596
 3883TIP3   OH211525   1.156   2.710   2.800
 3883TIP3    H111526   1.162   2.808   2.796
 3883TIP3    H211527   1.074   2.694   2.753
 3884TIP3   OH211528   2.469   4.152   3.143
 3884TIP3    H111529   2.427   4.200   3.068
 3884TIP3    H211530   2.563   4.172   3.122
 3885TIP3   OH211531   1.546   2.423   3.670
 3885TIP3    H111532   1.514   2.389   3.585
 3885TIP3    H211533   1.537   2.345   3.729
 3886TIP3   OH211534   1.084   3.634   3.054
 3886TIP3    H111535   1.011   3.674   3.102
 3886TIP3    H211536   1.073   3.678   2.967
 3887TIP3   OH211537   1.240   4.181   4.123
 3887TIP3    H111538   1.327   4.182   4.169
 3887TIP3    H211539   1.222   4.085   4.121
 3888TIP3   OH211540   1.722   4.155   4.161
 3888TIP3    H111541   1.815   4.134   4.182
 3888TIP3    H211542   1.704   4.093   4.088
 3889TIP3   OH211543   1.705   3.725   2.295
 3889TIP3    H111544   1.650   3.653   2.333
 3889TIP3    H211545   1.780   3.675   2.260
 3890TIP3   OH211546   2.366   4.051   3.896
 3890TIP3    H111547   2.354   3.983   3.966
 3890TIP3    H211548   2.441   4.104   3.930
 3891TIP3   OH211549   2.139   3.765   2.203
 3891TIP3    H111550   2.197   3.711   2.260
 3891TIP3    H211551   2.193   3.772   2.121
 3892TIP3   OH211552   1.371   3.589   4.321
 3892TIP3    H111553   1.390   3.494   4.327
 3892TIP3    H211554   1.283   3.590   4.279
 3893TIP3   OH211555   1.351   3.241   2.517
 3893TIP3    H111556   1.409   3.211   2.588
 3893TIP3    H211557   1.416   3.246   2.443
 3894TIP3   OH211558   1.982   3.674   4.094
 3894TIP3    H111559   1.940   3.687   4.007
 3894TIP3    H211560   2.013   3.581   4.090
 3895TIP3   OH211561   1.852   3.436   2.321
 3895TIP3    H111562   1.858   3.452   2.417
 3895TIP3    H211563   1.852   3.339   2.318
 3896TIP3   OH211564   2.471   3.679   3.697
 3896TIP3    H111565   2.546   3.726   3.656
 3896TIP3    H211566   2.401   3.746   3.689
 3897TIP3   OH211567   1.490   3.318   4.301
 3897TIP3    H111568   1.568   3.263   4.286
 3897TIP3    H211569   1.512   3.355   4.390
 3898TIP3   OH211570   1.554   3.143   2.736
 3898TIP3    H111571   1.532   3.103   2.822
 3898TIP3    H211572   1.592   3.067   2.687
 3899TIP3   OH211573   1.823   3.204   3.960
 3899TIP3    H111574   1.750   3.269   3.969
 3899TIP3    H211575   1.873   3.240   3.883
 3900TIP3   OH211576   1.658   2.933   2.583
 3900TIP3    H111577   1.631   2.938   2.489
 3900TIP3    H211578   1.755   2.943   2.574
 3901TIP3   OH211579   2.339   3.607   4.096
 3901TIP3    H111580   2.427   3.594   4.058
 3901TIP3    H211581   2.340   3.544   4.171
 3902TIP3   OH211582   2.479   3.267   2.241
 3902TIP3    H111583   2.459   3.223   2.156
 3902TIP3    H211584   2.452   3.359   2.217
 3903TIP3   OH211585   1.947   2.995   4.094
 3903TIP3    H111586   1.949   2.915   4.038
 3903TIP3    H211587   1.905   3.060   4.034
 3904TIP3   OH211588   1.951   2.780   3.896
 3904TIP3    H111589   1.978   2.823   3.813
 3904TIP3    H211590   1.857   2.759   3.879
 3905TIP3   OH211591   1.980   3.315   3.767
 3905TIP3    H111592   2.065   3.328   3.722
 3905TIP3    H211593   1.926   3.386   3.728
 3906TIP3   OH211594   2.562   3.285   4.151
 3906TIP3    H111595   2.612   3.205   4.172
 3906TIP3    H211596   2.632   3.346   4.125
 3907TIP3   OH211597   2.603   3.535   3.885
 3907TIP3    H111598   2.545   3.589   3.827
 3907TIP3    H211599   2.691   3.557   3.845
 3908TIP3   OH211600   1.820   3.113   4.316
 3908TIP3    H111601   1.754   3.043   4.333
 3908TIP3    H211602   1.861   3.083   4.233
 3909TIP3   OH211603   2.084   2.546   3.962
 3909TIP3    H111604   2.035   2.629   3.942
 3909TIP3    H211605   2.012   2.479   3.953
 3910TIP3   OH211606   2.211   3.052   4.181
 3910TIP3    H111607   2.206   3.044   4.278
 3910TIP3    H211608   2.119   3.027   4.157
 3911TIP3   OH211609   2.447   2.994   4.032
 3911TIP3    H111610   2.373   3.001   4.096
 3911TIP3    H211611   2.522   2.968   4.090
 3912TIP3   OH211612   2.671   2.937   4.186
 3912TIP3    H111613   2.688   2.843   4.209
 3912TIP3    H211614   2.671   2.981   4.274
 3913TIP3   OH211615   1.665   2.890   4.373
 3913TIP3    H111616   1.676   2.799   4.339
 3913TIP3    H211617   1.701   2.880   4.463
 3914TIP3   OH211618   2.179   2.556   4.220
 3914TIP3    H111619   2.248   2.487   4.216
 3914TIP3    H211620   2.139   2.548   4.131
 3915TIP3   OH211621   2.242   2.770   4.382
 3915TIP3    H111622   2.220   2.700   4.317
 3915TIP3    H211623   2.166   2.831   4.376
 3916TIP3   OH211624   1.463   3.995   2.480
 3916TIP3    H111625   1.559   3.996   2.463
 3916TIP3    H211626   1.433   4.047   2.402
 3917TIP3   OH211627   0.945   3.382   2.703
 3917TIP3    H111628   1.039   3.407   2.688
 3917TIP3    H211629   0.942   3.295   2.658
 3918TIP3   OH211630   0.856   3.992   3.112
 3918TIP3    H111631   0.789   3.929   3.077
 3918TIP3    H211632   0.901   3.937   3.178
 3919TIP3   OH211633   0.995   3.847   3.297
 3919TIP3    H111634   0.987   3.773   3.359
 3919TIP3    H211635   1.046   3.909   3.352
 3920TIP3   OH211636   2.721   4.246   3.097
 3920TIP3    H111637   2.748   4.281   3.184
 3920TIP3    H211638   2.780   4.292   3.036
 3921TIP3   OH211639   2.752   4.267   3.380
 3921TIP3    H111640   2.710   4.179   3.374
 3921TIP3    H211641   2.827   4.246   3.437
 3922TIP3   OH211642   2.796   3.944   3.951
 3922TIP3    H111643   2.724   3.950   4.016
 3922TIP3    H211644   2.837   4.032   3.957
 3923TIP3   OH211645   2.612   3.456   2.573
 3923TIP3    H111646   2.679   3.521   2.543
 3923TIP3    H211647   2.658   3.418   2.651
 3924TIP3   OH211648   2.741   3.323   2.776
 3924TIP3    H111649   2.676   3.285   2.838
 3924TIP3    H211650   2.808   3.363   2.835
 3925TIP3   OH211651   2.792   3.713   3.208
 3925TIP3    H111652   2.848   3.652   3.155
 3925TIP3    H211653   2.786   3.791   3.149
 3926TIP3   OH211654   2.628   4.015   3.405
 3926TIP3    H111655   2.558   4.058   3.457
 3926TIP3    H211656   2.577   3.967   3.336
 3927TIP3   OH211657   2.678   3.231   2.424
 3927TIP3    H111658   2.607   3.236   2.356
 3927TIP3    H211659   2.653   3.308   2.478
 3928TIP3   OH211660   2.548   2.905   2.383
 3928TIP3    H111661   2.511   2.952   2.307
 3928TIP3    H211662   2.520   2.813   2.365
 3929TIP3   OH211663   2.553   3.172   2.928
 3929TIP3    H111664   2.606   3.093   2.943
 3929TIP3    H211665   2.536   3.201   3.020
 3930TIP3   OH211666   1.184   3.256   3.668
 3930TIP3    H111667   1.183   3.227   3.575
 3930TIP3    H211668   1.280   3.256   3.687
 3931TIP3   OH211669   2.844   3.603   3.778
 3931TIP3    H111670   2.918   3.539   3.771
 3931TIP3    H211671   2.875   3.676   3.720
 3932TIP3   OH211672   3.032   3.412   3.798
 3932TIP3    H111673   2.958   3.361   3.838
 3932TIP3    H211674   3.106   3.349   3.812
 3933TIP3   OH211675   2.490   2.640   2.373
 3933TIP3    H111676   2.572   2.605   2.414
 3933TIP3    H211677   2.423   2.573   2.390
 3934TIP3   OH211678   2.714   3.072   3.311
 3934TIP3    H111679   2.801   3.098   3.274
 3934TIP3    H211680   2.726   3.108   3.402
 3935TIP3   OH211681   2.778   3.212   3.545
 3935TIP3    H111682   2.703   3.248   3.596
 3935TIP3    H211683   2.813   3.293   3.501
 3936TIP3   OH211684   1.398   2.940   4.340
 3936TIP3    H111685   1.496   2.935   4.345
 3936TIP3    H211686   1.375   2.857   4.386
 3937TIP3   OH211687   3.232   2.795   4.101
 3937TIP3    H111688   3.292   2.734   4.054
 3937TIP3    H211689   3.207   2.859   4.032
 3938TIP3   OH211690   2.629   2.643   2.879
 3938TIP3    H111691   2.698   2.649   2.949
 3938TIP3    H211692   2.624   2.546   2.872
 3939TIP3   OH211693   1.362   2.631   3.672
 3939TIP3    H111694   1.425   2.557   3.687
 3939TIP3    H211695   1.423   2.707   3.670
 3940TIP3   OH211696   1.164   2.906   3.748
 3940TIP3    H111697   1.215   2.902   3.665
 3940TIP3    H211698   1.194   2.991   3.784
 3941TIP3   OH211699   3.108   2.946   3.911
 3941TIP3    H111700   3.024   2.985   3.941
 3941TIP3    H211701   3.076   2.876   3.852
 3942TIP3   OH211702   2.741   2.581   2.490
 3942TIP3    H111703   2.785   2.510   2.439
 3942TIP3    H211704   2.806   2.653   2.483
 3943TIP3   OH211705   1.152   2.432   3.267
 3943TIP3    H111706   1.059   2.409   3.282
 3943TIP3    H211707   1.152   2.467   3.176
 3944TIP3   OH211708   2.305   4.111   2.757
 3944TIP3    H111709   2.354   4.095   2.673
 3944TIP3    H211710   2.360   4.179   2.798
 3945TIP3   OH211711   1.366   2.489   4.063
 3945TIP3    H111712   1.318   2.483   4.147
 3945TIP3    H211713   1.297   2.528   4.005
 3946TIP3   OH211714   1.406   3.916   4.140
 3946TIP3    H111715   1.315   3.886   4.128
 3946TIP3    H211716   1.422   3.898   4.234
 3947TIP3   OH211717   1.583   3.944   3.687
 3947TIP3    H111718   1.537   4.022   3.649
 3947TIP3    H211719   1.670   3.958   3.645
 3948TIP3   OH211720   2.031   4.194   3.826
 3948TIP3    H111721   2.072   4.193   3.915
 3948TIP3    H211722   2.099   4.244   3.775
 3949TIP3   OH211723   2.211   4.344   3.683
 3949TIP3    H111724   2.284   4.293   3.645
 3949TIP3    H211725   2.261   4.402   3.745
 3950TIP3   OH211726   3.004   2.708   3.785
 3950TIP3    H111727   2.912   2.704   3.754
 3950TIP3    H211728   3.033   2.615   3.772
 3951TIP3   OH211729   1.261   4.203   3.712
 3951TIP3    H111730   1.173   4.240   3.689
 3951TIP3    H211731   1.273   4.239   3.801
 3952TIP3   OH211732   1.498   4.182   3.569
 3952TIP3    H111733   1.412   4.196   3.614
 3952TIP3    H211734   1.478   4.218   3.480
 3953TIP3   OH211735   1.924   4.214   3.367
 3953TIP3    H111736   1.856   4.237   3.301
 3953TIP3    H211737   1.938   4.301   3.410
 3954TIP3   OH211738   2.192   4.152   3.416
 3954TIP3    H111739   2.098   4.170   3.398
 3954TIP3    H211740   2.234   4.231   3.377
 3955TIP3   OH211741   2.402   4.346   3.335
 3955TIP3    H111742   2.386   4.431   3.288
 3955TIP3    H211743   2.426   4.287   3.261
 3956TIP3   OH211744   1.171   3.998   3.457
 3956TIP3    H111745   1.200   3.976   3.549
 3956TIP3    H211746   1.245   3.956   3.407
 3957TIP3   OH211747   1.365   3.870   3.312
 3957TIP3    H111748   1.383   3.787   3.361
 3957TIP3    H211749   1.455   3.909   3.308
 3958TIP3   OH211750   1.629   3.966   3.316
 3958TIP3    H111751   1.664   3.876   3.304
 3958TIP3    H211752   1.673   3.990   3.400
 3959TIP3   OH211753   2.204   2.616   3.390
 3959TIP3    H111754   2.164   2.554   3.453
 3959TIP3    H211755   2.282   2.568   3.358
 3960TIP3   OH211756   2.733   2.497   3.303
 3960TIP3    H111757   2.771   2.554   3.233
 3960TIP3    H211758   2.641   2.527   3.306
 3961TIP3   OH211759   2.823   2.607   3.065
 3961TIP3    H111760   2.896   2.551   3.030
 3961TIP3    H211761   2.864   2.696   3.056
 3962TIP3   OH211762   1.460   2.330   3.420
 3962TIP3    H111763   1.367   2.298   3.421
 3962TIP3    H211764   1.509   2.245   3.420
 3963TIP3   OH211765   1.895   2.367   3.301
 3963TIP3    H111766   1.961   2.417   3.250
 3963TIP3    H211767   1.915   2.397   3.391
 3964TIP3   OH211768   2.443   2.504   3.281
 3964TIP3    H111769   2.464   2.455   3.200
 3964TIP3    H211770   2.432   2.429   3.345
 3965TIP3   OH211771   2.456   2.429   2.843
 3965TIP3    H111772   2.367   2.405   2.813
 3965TIP3    H211773   2.473   2.352   2.902
 3966TIP3   OH211774   0.959   3.770   2.854
 3966TIP3    H111775   0.875   3.740   2.814
 3966TIP3    H211776   0.952   3.865   2.836
 3967TIP3   OH211777   1.873   2.533   2.929
 3967TIP3    H111778   1.925   2.486   2.996
 3967TIP3    H211779   1.893   2.626   2.956
 3968TIP3   OH211780   1.733   3.962   2.432
 3968TIP3    H111781   1.821   3.985   2.396
 3968TIP3    H211782   1.711   3.888   2.372
 3969TIP3   OH211783   2.448   4.078   2.524
 3969TIP3    H111784   2.440   3.981   2.508
 3969TIP3    H211785   2.410   4.113   2.440
 3970TIP3   OH211786   1.666   2.611   4.310
 3970TIP3    H111787   1.632   2.542   4.369
 3970TIP3    H211788   1.760   2.613   4.337
 3971TIP3   OH211789   1.913   2.608   4.430
 3971TIP3    H111790   2.000   2.585   4.393
 3971TIP3    H211791   1.901   2.539   4.498
 3972TIP3   OH211792   1.035   3.789   2.491
 3972TIP3    H111793   1.040   3.831   2.578
 3972TIP3    H211794   1.126   3.755   2.478
 3973TIP3   OH211795   2.737   2.667   4.219
 3973TIP3    H111796   2.758   2.640   4.311
 3973TIP3    H211797   2.826   2.666   4.178
 3974TIP3   OH211798   2.681   4.223   3.710
 3974TIP3    H111799   2.601   4.190   3.665
 3974TIP3    H211800   2.660   4.319   3.714
 3975TIP3   OH211801   3.944   3.594   2.479
 3975TIP3    H111802   3.918   3.686   2.460
 3975TIP3    H211803   3.866   3.546   2.447
 3976TIP3   OH211804   3.943   3.594   2.856
 3976TIP3    H111805   3.972   3.564   2.944
 3976TIP3    H211806   3.900   3.514   2.820
 3977TIP3   OH211807   3.244   3.490   3.223
 3977TIP3    H111808   3.276   3.425   3.288
 3977TIP3    H211809   3.319   3.551   3.219
 3978TIP3   OH211810   4.185   3.895   2.539
 3978TIP3    H111811   4.173   3.826   2.605
 3978TIP3    H211812   4.213   3.971   2.592
 3979TIP3   OH211813   3.213   3.898   2.951
 3979TIP3    H111814   3.204   3.800   2.954
 3979TIP3    H211815   3.310   3.907   2.945
 3980TIP3   OH211816   2.918   3.100   2.739
 3980TIP3    H111817   2.874   3.186   2.749
 3980TIP3    H211818   2.848   3.050   2.692
 3981TIP3   OH211819   2.979   3.389   2.901
 3981TIP3    H111820   3.030   3.315   2.941
 3981TIP3    H211821   3.042   3.423   2.835
 3982TIP3   OH211822   3.834   4.359   2.554
 3982TIP3    H111823   3.882   4.288   2.508
 3982TIP3    H211824   3.829   4.324   2.644
 3983TIP3   OH211825   3.742   3.819   2.906
 3983TIP3    H111826   3.780   3.744   2.858
 3983TIP3    H211827   3.826   3.864   2.930
 3984TIP3   OH211828   4.755   3.140   2.903
 3984TIP3    H111829   4.782   3.223   2.947
 3984TIP3    H211830   4.775   3.161   2.810
 3985TIP3   OH211831   4.154   3.323   2.941
 3985TIP3    H111832   4.197   3.237   2.960
 3985TIP3    H211833   4.124   3.308   2.849
 3986TIP3   OH211834   3.489   2.981   2.906
 3986TIP3    H111835   3.470   3.054   2.843
 3986TIP3    H211836   3.441   2.908   2.861
 3987TIP3   OH211837   4.184   3.071   2.529
 3987TIP3    H111838   4.257   3.056   2.593
 3987TIP3    H211839   4.235   3.108   2.454
 3988TIP3   OH211840   3.126   3.184   3.011
 3988TIP3    H111841   3.209   3.165   3.059
 3988TIP3    H211842   3.139   3.129   2.932
 3989TIP3   OH211843   3.568   3.382   2.801
 3989TIP3    H111844   3.661   3.356   2.817
 3989TIP3    H211845   3.528   3.298   2.771
 3990TIP3   OH211846   4.827   3.347   3.075
 3990TIP3    H111847   4.745   3.396   3.054
 3990TIP3    H211848   4.842   3.375   3.166
 3991TIP3   OH211849   3.489   2.964   3.338
 3991TIP3    H111850   3.428   3.002   3.272
 3991TIP3    H211851   3.438   2.981   3.420
 3992TIP3   OH211852   3.839   3.816   2.348
 3992TIP3    H111853   3.793   3.794   2.266
 3992TIP3    H211854   3.796   3.901   2.371
 3993TIP3   OH211855   3.595   3.739   3.137
 3993TIP3    H111856   3.531   3.803   3.175
 3993TIP3    H211857   3.636   3.792   3.066
 3994TIP3   OH211858   4.398   3.073   2.697
 3994TIP3    H111859   4.390   3.023   2.779
 3994TIP3    H211860   4.452   3.149   2.724
 3995TIP3   OH211861   3.358   3.080   3.124
 3995TIP3    H111862   3.420   3.153   3.147
 3995TIP3    H211863   3.408   3.039   3.050
 3996TIP3   OH211864   3.421   3.931   3.232
 3996TIP3    H111865   3.396   4.017   3.192
 3996TIP3    H211866   3.343   3.917   3.290
 3997TIP3   OH211867   2.818   3.621   2.470
 3997TIP3    H111868   2.779   3.645   2.383
 3997TIP3    H211869   2.846   3.709   2.504
 3998TIP3   OH211870   4.258   4.137   2.708
 3998TIP3    H111871   4.168   4.130   2.748
 3998TIP3    H211872   4.251   4.224   2.663
 3999TIP3   OH211873   4.548   3.041   3.070
 3999TIP3    H111874   4.460   3.071   3.042
 3999TIP3    H211875   4.605   3.073   2.998
 4000TIP3   OH211876   3.847   2.685   3.051
 4000TIP3    H111877   3.836   2.590   3.070
 4000TIP3    H211878   3.769   2.722   3.098
 4001TIP3   OH211879   3.963   4.187   2.385
 4001TIP3    H111880   4.012   4.105   2.362
 4001TIP3    H211881   4.021   4.253   2.341
 4002TIP3   OH211882   4.103   3.971   2.286
 4002TIP3    H111883   4.062   3.892   2.248
 4002TIP3    H211884   4.138   3.936   2.371
 4003TIP3   OH211885   4.484   4.054   3.052
 4003TIP3    H111886   4.474   3.976   2.992
 4003TIP3    H211887   4.467   4.128   2.990
 4004TIP3   OH211888   3.775   3.444   2.307
 4004TIP3    H111889   3.695   3.497   2.286
 4004TIP3    H211890   3.822   3.445   2.222
 4005TIP3   OH211891   3.733   3.231   2.025
 4005TIP3    H111892   3.801   3.279   2.076
 4005TIP3    H211893   3.791   3.167   1.978
 4006TIP3   OH211894   4.679   3.687   2.895
 4006TIP3    H111895   4.597   3.741   2.901
 4006TIP3    H211896   4.708   3.712   2.805
 4007TIP3   OH211897   4.121   3.528   2.281
 4007TIP3    H111898   4.067   3.554   2.359
 4007TIP3    H211899   4.205   3.502   2.325
 4008TIP3   OH211900   4.358   3.569   3.189
 4008TIP3    H111901   4.355   3.653   3.239
 4008TIP3    H211902   4.271   3.573   3.144
 4009TIP3   OH211903   3.354   3.527   2.697
 4009TIP3    H111904   3.314   3.470   2.628
 4009TIP3    H211905   3.432   3.474   2.724
 4010TIP3   OH211906   3.483   3.937   2.846
 4010TIP3    H111907   3.463   3.894   2.762
 4010TIP3    H211908   3.574   3.905   2.864
 4011TIP3   OH211909   3.493   3.498   3.050
 4011TIP3    H111910   3.526   3.480   2.960
 4011TIP3    H211911   3.535   3.584   3.072
 4012TIP3   OH211912   4.016   4.135   2.828
 4012TIP3    H111913   4.002   4.215   2.881
 4012TIP3    H211914   4.002   4.062   2.891
 4013TIP3   OH211915   3.628   4.055   3.375
 4013TIP3    H111916   3.569   4.118   3.421
 4013TIP3    H211917   3.561   4.001   3.326
 4014TIP3   OH211918   3.964   3.386   2.106
 4014TIP3    H111919   4.023   3.445   2.159
 4014TIP3    H211920   3.991   3.412   2.014
 4015TIP3   OH211921   3.381   3.613   3.471
 4015TIP3    H111922   3.387   3.698   3.520
 4015TIP3    H211923   3.286   3.594   3.483
 4016TIP3   OH211924   3.706   4.066   2.382
 4016TIP3    H111925   3.781   4.124   2.404
 4016TIP3    H211926   3.642   4.128   2.342
 4017TIP3   OH211927   3.423   4.225   3.461
 4017TIP3    H111928   3.388   4.221   3.370
 4017TIP3    H211929   3.344   4.203   3.515
 4018TIP3   OH211930   4.479   2.629   2.154
 4018TIP3    H111931   4.398   2.648   2.205
 4018TIP3    H211932   4.491   2.713   2.104
 4019TIP3   OH211933   3.222   3.369   2.499
 4019TIP3    H111934   3.158   3.418   2.443
 4019TIP3    H211935   3.176   3.286   2.514
 4020TIP3   OH211936   4.276   3.996   1.701
 4020TIP3    H111937   4.285   4.093   1.688
 4020TIP3    H211938   4.369   3.967   1.689
 4021TIP3   OH211939   3.002   3.753   3.409
 4021TIP3    H111940   2.939   3.729   3.339
 4021TIP3    H211941   3.040   3.666   3.435
 4022TIP3   OH211942   2.856   3.943   3.047
 4022TIP3    H111943   2.952   3.941   3.032
 4022TIP3    H211944   2.846   4.026   3.096
 4023TIP3   OH211945   4.722   4.396   3.096
 4023TIP3    H111946   4.719   4.299   3.109
 4023TIP3    H211947   4.638   4.422   3.142
 4024TIP3   OH211948   3.828   4.184   3.231
 4024TIP3    H111949   3.828   4.277   3.264
 4024TIP3    H211950   3.756   4.145   3.286
 4025TIP3   OH211951   3.587   4.315   2.181
 4025TIP3    H111952   3.535   4.292   2.102
 4025TIP3    H211953   3.552   4.403   2.204
 4026TIP3   OH211954   3.025   4.165   2.565
 4026TIP3    H111955   3.070   4.152   2.651
 4026TIP3    H211956   2.961   4.091   2.567
 4027TIP3   OH211957   3.792   4.215   1.823
 4027TIP3    H111958   3.850   4.144   1.788
 4027TIP3    H211959   3.823   4.223   1.915
 4028TIP3   OH211960   3.839   4.261   2.094
 4028TIP3    H111961   3.750   4.272   2.134
 4028TIP3    H211962   3.887   4.219   2.166
 4029TIP3   OH211963   4.612   3.529   3.371
 4029TIP3    H111964   4.531   3.544   3.319
 4029TIP3    H211965   4.624   3.433   3.360
 4030TIP3   OH211966   3.208   3.936   3.400
 4030TIP3    H111967   3.258   3.919   3.482
 4030TIP3    H211968   3.134   3.873   3.408
 4031TIP3   OH211969   3.606   2.760   3.179
 4031TIP3    H111970   3.516   2.730   3.156
 4031TIP3    H211971   3.583   2.843   3.225
 4032TIP3   OH211972   4.139   2.876   3.375
 4032TIP3    H111973   4.206   2.849   3.440
 4032TIP3    H211974   4.055   2.855   3.420
 4033TIP3   OH211975   4.383   3.306   3.295
 4033TIP3    H111976   4.333   3.301   3.379
 4033TIP3    H211977   4.356   3.392   3.259
 4034TIP3   OH211978   4.037   3.437   1.849
 4034TIP3    H111979   4.007   3.408   1.760
 4034TIP3    H211980   4.118   3.486   1.826
 4035TIP3   OH211981   3.751   2.812   2.150
 4035TIP3    H111982   3.721   2.810   2.243
 4035TIP3    H211983   3.715   2.726   2.120
 4036TIP3   OH211984   3.537   3.275   3.199
 4036TIP3    H111985   3.488   3.297   3.281
 4036TIP3    H211986   3.522   3.356   3.145
 4037TIP3   OH211987   3.423   3.161   2.714
 4037TIP3    H111988   3.329   3.136   2.730
 4037TIP3    H211989   3.436   3.121   2.625
 4038TIP3   OH211990   3.912   3.246   2.440
 4038TIP3    H111991   3.859   3.318   2.400
 4038TIP3    H211992   3.967   3.219   2.364
 4039TIP3   OH211993   4.087   3.527   3.528
 4039TIP3    H111994   4.064   3.455   3.590
 4039TIP3    H211995   4.180   3.542   3.550
 4040TIP3   OH211996   4.071   3.277   2.681
 4040TIP3    H111997   4.012   3.309   2.610
 4040TIP3    H211998   4.102   3.195   2.639
 4041TIP3   OH211999   3.357   3.305   3.410
 4041TIP3    H112000   3.383   3.368   3.478
 4041TIP3    H212001   3.346   3.223   3.461
 4042TIP3   OH212002   3.405   2.779   2.118
 4042TIP3    H112003   3.402   2.778   2.216
 4042TIP3    H212004   3.327   2.833   2.098
 4043TIP3   OH212005   2.952   2.828   2.986
 4043TIP3    H112006   3.023   2.862   3.045
 4043TIP3    H212007   3.001   2.798   2.909
 4044TIP3   OH212008   2.928   2.808   2.505
 4044TIP3    H112009   2.975   2.847   2.428
 4044TIP3    H212010   2.868   2.882   2.526
 4045TIP3   OH212011   4.081   3.524   3.104
 4045TIP3    H112012   4.113   3.451   3.047
 4045TIP3    H212013   4.052   3.473   3.183
 4046TIP3   OH212014   3.747   2.985   2.776
 4046TIP3    H112015   3.665   2.982   2.829
 4046TIP3    H212016   3.815   2.985   2.845
 4047TIP3   OH212017   3.183   3.039   2.784
 4047TIP3    H112018   3.088   3.044   2.758
 4047TIP3    H212019   3.209   2.948   2.759
 4048TIP3   OH212020   3.455   3.035   2.471
 4048TIP3    H112021   3.550   3.051   2.452
 4048TIP3    H212022   3.410   3.060   2.388
 4049TIP3   OH212023   4.242   3.059   2.976
 4049TIP3    H112024   4.206   3.071   3.067
 4049TIP3    H212025   4.177   2.997   2.939
 4050TIP3   OH212026   3.292   3.065   2.250
 4050TIP3    H112027   3.216   3.027   2.202
 4050TIP3    H212028   3.343   3.103   2.175
 4051TIP3   OH212029   4.410   4.748   3.195
 4051TIP3    H112030   4.408   4.771   3.100
 4051TIP3    H212031   4.488   4.798   3.226
 4052TIP3   OH212032   3.369   3.858   3.618
 4052TIP3    H112033   3.448   3.889   3.666
 4052TIP3    H212034   3.304   3.857   3.691
 4053TIP3   OH212035   3.833   3.310   2.872
 4053TIP3    H112036   3.906   3.271   2.822
 4053TIP3    H212037   3.845   3.270   2.960
 4054TIP3   OH212038   3.355   2.800   2.748
 4054TIP3    H112039   3.326   2.719   2.794
 4054TIP3    H212040   3.414   2.766   2.680
 4055TIP3   OH212041   3.809   3.206   3.164
 4055TIP3    H112042   3.720   3.244   3.177
 4055TIP3    H212043   3.867   3.267   3.214
 4056TIP3   OH212044   3.549   3.599   2.258
 4056TIP3    H112045   3.474   3.536   2.246
 4056TIP3    H212046   3.531   3.634   2.349
 4057TIP3   OH212047   4.448   3.835   2.888
 4057TIP3    H112048   4.472   3.884   2.807
 4057TIP3    H212049   4.362   3.795   2.864
 4058TIP3   OH212050   4.005   2.913   2.116
 4058TIP3    H112051   3.908   2.899   2.125
 4058TIP3    H212052   4.016   3.007   2.140
 4059TIP3   OH212053   3.947   3.917   3.255
 4059TIP3    H112054   3.965   3.894   3.347
 4059TIP3    H212055   3.907   4.006   3.262
 4060TIP3   OH212056   4.075   3.158   2.220
 4060TIP3    H112057   4.171   3.164   2.237
 4060TIP3    H212058   4.057   3.238   2.167
 4061TIP3   OH212059   3.235   3.617   2.935
 4061TIP3    H112060   3.275   3.592   2.849
 4061TIP3    H212061   3.279   3.556   2.996
 4062TIP3   OH212062   3.689   3.749   2.074
 4062TIP3    H112063   3.644   3.836   2.083
 4062TIP3    H212064   3.636   3.695   2.136
 4063TIP3   OH212065   3.118   3.542   3.546
 4063TIP3    H112066   3.142   3.531   3.640
 4063TIP3    H212067   3.050   3.474   3.536
 4064TIP3   OH212068   3.843   3.655   3.566
 4064TIP3    H112069   3.784   3.596   3.516
 4064TIP3    H212070   3.931   3.622   3.538
 4065TIP3   OH212071   4.107   4.176   3.150
 4065TIP3    H112072   4.011   4.175   3.161
 4065TIP3    H212073   4.135   4.228   3.228
 4066TIP3   OH212074   4.518   3.247   2.059
 4066TIP3    H112075   4.455   3.202   1.998
 4066TIP3    H212076   4.515   3.335   2.017
 4067TIP3   OH212077   4.734   4.104   3.141
 4067TIP3    H112078   4.636   4.100   3.132
 4067TIP3    H212079   4.760   4.075   3.051
 4068TIP3   OH212080   4.215   4.068   1.966
 4068TIP3    H112081   4.192   3.997   2.028
 4068TIP3    H212082   4.228   4.020   1.882
 4069TIP3   OH212083   4.212   3.697   2.808
 4069TIP3    H112084   4.119   3.671   2.821
 4069TIP3    H212085   4.247   3.618   2.762
 4070TIP3   OH212086   3.338   3.923   2.558
 4070TIP3    H112087   3.340   4.006   2.506
 4070TIP3    H212088   3.243   3.909   2.565
 4071TIP3   OH212089   2.902   3.228   2.260
 4071TIP3    H112090   2.947   3.313   2.275
 4071TIP3    H212091   2.823   3.238   2.317
 4072TIP3   OH212092   3.480   3.692   2.504
 4072TIP3    H112093   3.445   3.781   2.520
 4072TIP3    H212094   3.443   3.643   2.579
 4073TIP3   OH212095   3.607   4.268   3.029
 4073TIP3    H112096   3.647   4.341   2.977
 4073TIP3    H212097   3.684   4.236   3.078
 4074TIP3   OH212098   3.262   4.162   2.416
 4074TIP3    H112099   3.173   4.170   2.456
 4074TIP3    H212100   3.290   4.256   2.414
 4075TIP3   OH212101   3.999   3.903   2.985
 4075TIP3    H112102   3.990   3.901   3.083
 4075TIP3    H212103   4.079   3.850   2.972
 4076TIP3   OH212104   3.968   3.793   1.869
 4076TIP3    H112105   4.022   3.769   1.948
 4076TIP3    H212106   3.880   3.770   1.901
 4077TIP3   OH212107   4.246   4.438   3.037
 4077TIP3    H112108   4.167   4.381   3.029
 4077TIP3    H212109   4.231   4.503   2.965
 4078TIP3   OH212110   4.311   4.271   1.689
 4078TIP3    H112111   4.351   4.344   1.638
 4078TIP3    H212112   4.231   4.318   1.721
 4079TIP3   OH212113   3.333   3.046   3.555
 4079TIP3    H112114   3.238   3.054   3.575
 4079TIP3    H212115   3.363   2.988   3.628
 4080TIP3   OH212116   4.129   3.728   2.085
 4080TIP3    H112117   4.120   3.663   2.157
 4080TIP3    H212118   4.226   3.728   2.073
 4081TIP3   OH212119   3.047   4.133   3.188
 4081TIP3    H112120   3.098   4.056   3.217
 4081TIP3    H212121   3.077   4.199   3.252
 4082TIP3   OH212122   3.355   3.767   1.864
 4082TIP3    H112123   3.354   3.672   1.847
 4082TIP3    H212124   3.327   3.772   1.958
 4083TIP3   OH212125   3.292   3.779   2.131
 4083TIP3    H112126   3.350   3.758   2.206
 4083TIP3    H212127   3.286   3.877   2.138
 4084TIP3   OH212128   3.020   3.477   2.343
 4084TIP3    H112129   2.954   3.520   2.400
 4084TIP3    H212130   3.031   3.546   2.275
 4085TIP3   OH212131   4.166   3.111   3.234
 4085TIP3    H112132   4.245   3.149   3.276
 4085TIP3    H212133   4.150   3.031   3.288
 4086TIP3   OH212134   4.045   2.866   2.398
 4086TIP3    H112135   4.033   2.890   2.304
 4086TIP3    H212136   4.085   2.947   2.435
 4087TIP3   OH212137   3.551   3.982   2.089
 4087TIP3    H112138   3.463   4.005   2.125
 4087TIP3    H212139   3.563   4.053   2.025
 4088TIP3   OH212140   3.737   3.041   2.502
 4088TIP3    H112141   3.803   3.112   2.483
 4088TIP3    H212142   3.742   3.035   2.600
 4089TIP3   OH212143   4.006   3.362   3.311
 4089TIP3    H112144   4.023   3.417   3.390
 4089TIP3    H212145   4.062   3.284   3.328
 4090TIP3   OH212146   3.883   2.773   2.606
 4090TIP3    H112147   3.877   2.848   2.667
 4090TIP3    H212148   3.942   2.810   2.537
 4091TIP3   OH212149   3.291   4.050   2.157
 4091TIP3    H112150   3.258   4.117   2.093
 4091TIP3    H212151   3.272   4.095   2.241
 4092TIP3   OH212152   3.393   2.766   2.394
 4092TIP3    H112153   3.391   2.857   2.430
 4092TIP3    H212154   3.488   2.747   2.404
 4093TIP3   OH212155   4.649   3.259   3.291
 4093TIP3    H112156   4.551   3.259   3.299
 4093TIP3    H212157   4.658   3.224   3.201
 4094TIP3   OH212158   4.298   3.456   2.679
 4094TIP3    H112159   4.222   3.396   2.692
 4094TIP3    H212160   4.370   3.409   2.727
 4095TIP3   OH212161   3.005   3.687   2.154
 4095TIP3    H112162   3.044   3.776   2.153
 4095TIP3    H212163   3.059   3.643   2.085
 4096TIP3   OH212164   2.956   2.960   2.278
 4096TIP3    H112165   2.956   3.058   2.276
 4096TIP3    H212166   2.867   2.939   2.248
 4097TIP3   OH212167   4.265   4.410   2.630
 4097TIP3    H112168   4.223   4.457   2.555
 4097TIP3    H212169   4.360   4.429   2.609
 4098TIP3   OH212170   3.341   2.680   3.158
 4098TIP3    H112171   3.310   2.646   3.071
 4098TIP3    H212172   3.332   2.602   3.216
 4099TIP3   OH212173   2.886   3.897   2.542
 4099TIP3    H112174   2.807   3.932   2.586
 4099TIP3    H212175   2.872   3.935   2.453
 4100TIP3   OH212176   3.036   4.437   3.608
 4100TIP3    H112177   3.122   4.436   3.655
 4100TIP3    H212178   3.014   4.342   3.607
 4101TIP3   OH212179   3.522   4.408   3.651
 4101TIP3    H112180   3.616   4.385   3.660
 4101TIP3    H212181   3.496   4.350   3.577
 4102TIP3   OH212182   3.501   3.983   1.782
 4102TIP3    H112183   3.443   3.914   1.821
 4102TIP3    H212184   3.575   3.928   1.751
 4103TIP3   OH212185   4.159   4.311   3.385
 4103TIP3    H112186   4.150   4.241   3.453
 4103TIP3    H212187   4.236   4.361   3.416
 4104TIP3   OH212188   3.937   4.022   1.691
 4104TIP3    H112189   3.984   3.960   1.749
 4104TIP3    H212190   3.994   4.024   1.612
 4105TIP3   OH212191   3.169   3.847   3.808
 4105TIP3    H112192   3.186   3.751   3.815
 4105TIP3    H212193   3.080   3.847   3.766
 4106TIP3   OH212194   3.147   3.498   1.997
 4106TIP3    H112195   3.192   3.466   2.076
 4106TIP3    H212196   3.218   3.497   1.931
 4107TIP3   OH212197   3.778   3.930   3.581
 4107TIP3    H112198   3.734   3.944   3.495
 4107TIP3    H212199   3.808   3.837   3.576
 4108TIP3   OH212200   3.657   3.691   1.804
 4108TIP3    H112201   3.653   3.711   1.900
 4108TIP3    H212202   3.657   3.593   1.806
 4109TIP3   OH212203   4.269   3.936   3.187
 4109TIP3    H112204   4.342   3.983   3.143
 4109TIP3    H212205   4.197   4.000   3.177
 4110TIP3   OH212206   3.288   3.578   3.788
 4110TIP3    H112207   3.358   3.513   3.778
 4110TIP3    H212208   3.308   3.611   3.878
 4111TIP3   OH212209   3.354   3.400   2.223
 4111TIP3    H112210   3.326   3.362   2.308
 4111TIP3    H212211   3.388   3.322   2.176
 4112TIP3   OH212212   3.621   3.463   3.451
 4112TIP3    H112213   3.545   3.525   3.457
 4112TIP3    H212214   3.669   3.498   3.372
 4113TIP3   OH212215   3.453   3.190   2.065
 4113TIP3    H112216   3.427   3.188   1.971
 4113TIP3    H212217   3.550   3.199   2.058
 4114TIP3   OH212218   4.138   3.866   3.586
 4114TIP3    H112219   4.219   3.846   3.539
 4114TIP3    H212220   4.137   3.799   3.656
 4115TIP3   OH212221   4.276   3.526   1.726
 4115TIP3    H112222   4.256   3.478   1.643
 4115TIP3    H212223   4.245   3.616   1.701
 4116TIP3   OH212224   3.747   3.251   3.578
 4116TIP3    H112225   3.745   3.171   3.523
 4116TIP3    H212226   3.702   3.317   3.521
 4117TIP3   OH212227   3.748   3.037   3.384
 4117TIP3    H112228   3.774   3.079   3.300
 4117TIP3    H212229   3.654   3.015   3.367
 4118TIP3   OH212230   3.778   3.575   3.257
 4118TIP3    H112231   3.859   3.583   3.206
 4118TIP3    H212232   3.721   3.643   3.215
 4119TIP3   OH212233   4.359   3.543   3.641
 4119TIP3    H112234   4.408   3.460   3.650
 4119TIP3    H212235   4.427   3.603   3.607
 4120TIP3   OH212236   4.400   3.794   3.376
 4120TIP3    H112237   4.341   3.847   3.317
 4120TIP3    H212238   4.487   3.814   3.335
 4121TIP3   OH212239   3.625   3.368   3.805
 4121TIP3    H112240   3.553   3.305   3.823
 4121TIP3    H212241   3.658   3.336   3.718
 4122TIP3   OH212242   3.880   2.803   3.450
 4122TIP3    H112243   3.832   2.886   3.429
 4122TIP3    H212244   3.810   2.736   3.439
 4123TIP3   OH212245   4.006   3.309   3.668
 4123TIP3    H112246   3.995   3.299   3.764
 4123TIP3    H212247   3.916   3.284   3.639
 4124TIP3   OH212248   4.246   3.255   3.522
 4124TIP3    H112249   4.169   3.258   3.583
 4124TIP3    H212250   4.317   3.224   3.581
 4125TIP3   OH212251   4.480   3.197   3.675
 4125TIP3    H112252   4.487   3.101   3.696
 4125TIP3    H212253   4.471   3.237   3.764
 4126TIP3   OH212254   3.462   3.148   3.858
 4126TIP3    H112255   3.471   3.056   3.826
 4126TIP3    H212256   3.493   3.138   3.950
 4127TIP3   OH212257   3.976   2.813   3.708
 4127TIP3    H112258   4.043   2.742   3.702
 4127TIP3    H212259   3.935   2.806   3.619
 4128TIP3   OH212260   4.040   3.028   3.868
 4128TIP3    H112261   4.017   2.957   3.803
 4128TIP3    H212262   3.963   3.088   3.862
 4129TIP3   OH212263   3.266   4.265   1.984
 4129TIP3    H112264   3.352   4.269   1.938
 4129TIP3    H212265   3.203   4.273   1.910
 4130TIP3   OH212266   2.741   3.632   2.195
 4130TIP3    H112267   2.833   3.659   2.176
 4130TIP3    H212268   2.735   3.548   2.145
 4131TIP3   OH212269   2.650   4.253   2.600
 4131TIP3    H112270   2.587   4.190   2.560
 4131TIP3    H212271   2.697   4.195   2.664
 4132TIP3   OH212272   2.791   4.107   2.784
 4132TIP3    H112273   2.780   4.029   2.841
 4132TIP3    H212274   2.841   4.166   2.843
 4133TIP3   OH212275   4.516   4.504   2.583
 4133TIP3    H112276   4.544   4.538   2.670
 4133TIP3    H212277   4.578   4.549   2.523
 4134TIP3   OH212278   4.547   4.524   2.866
 4134TIP3    H112279   4.506   4.435   2.862
 4134TIP3    H212280   4.624   4.504   2.921
 4135TIP3   OH212281   4.595   4.199   3.440
 4135TIP3    H112282   4.520   4.207   3.503
 4135TIP3    H212283   4.635   4.288   3.444
 4136TIP3   OH212284   4.409   3.714   2.060
 4136TIP3    H112285   4.479   3.777   2.033
 4136TIP3    H212286   4.452   3.673   2.139
 4137TIP3   OH212287   4.537   3.581   2.263
 4137TIP3    H112288   4.472   3.538   2.323
 4137TIP3    H212289   4.602   3.619   2.325
 4138TIP3   OH212290   4.590   3.970   2.696
 4138TIP3    H112291   4.644   3.908   2.643
 4138TIP3    H212292   4.581   4.046   2.635
 4139TIP3   OH212293   4.424   4.271   2.892
 4139TIP3    H112294   4.354   4.315   2.943
 4139TIP3    H212295   4.374   4.223   2.823
 4140TIP3   OH212296   4.476   3.487   1.911
 4140TIP3    H112297   4.404   3.491   1.844
 4140TIP3    H212298   4.450   3.564   1.966
 4141TIP3   OH212299   4.345   3.162   1.867
 4141TIP3    H112300   4.308   3.201   1.788
 4141TIP3    H212301   4.320   3.068   1.856
 4142TIP3   OH212302   4.352   3.435   2.410
 4142TIP3    H112303   4.361   3.339   2.407
 4142TIP3    H212304   4.339   3.451   2.507
 4143TIP3   OH212305   2.980   3.509   3.156
 4143TIP3    H112306   2.979   3.482   3.062
 4143TIP3    H212307   3.077   3.511   3.173
 4144TIP3   OH212308   4.640   3.860   3.266
 4144TIP3    H112309   4.714   3.796   3.258
 4144TIP3    H212310   4.668   3.931   3.206
 4145TIP3   OH212311   4.827   3.668   3.288
 4145TIP3    H112312   4.752   3.618   3.326
 4145TIP3    H212313   4.899   3.603   3.300
 4146TIP3   OH212314   4.291   2.896   1.854
 4146TIP3    H112315   4.368   2.865   1.906
 4146TIP3    H212316   4.220   2.835   1.880
 4147TIP3   OH212317   4.347   3.151   2.307
 4147TIP3    H112318   4.388   3.063   2.322
 4147TIP3    H212319   4.406   3.185   2.237
 4148TIP3   OH212320   4.511   3.328   2.800
 4148TIP3    H112321   4.597   3.355   2.761
 4148TIP3    H212322   4.524   3.365   2.890
 4149TIP3   OH212323   4.578   3.470   3.034
 4149TIP3    H112324   4.499   3.504   3.082
 4149TIP3    H212325   4.610   3.551   2.988
 4150TIP3   OH212326   3.194   3.194   3.822
 4150TIP3    H112327   3.292   3.193   3.831
 4150TIP3    H212328   3.171   3.114   3.873
 4151TIP3   OH212329   5.042   3.064   3.583
 4151TIP3    H112330   5.072   2.991   3.527
 4151TIP3    H212331   5.002   3.125   3.517
 4152TIP3   OH212332   4.457   2.901   2.344
 4152TIP3    H112333   4.505   2.885   2.427
 4152TIP3    H212334   4.397   2.824   2.342
 4153TIP3   OH212335   3.155   2.888   3.162
 4153TIP3    H112336   3.218   2.814   3.174
 4153TIP3    H212337   3.217   2.964   3.158
 4154TIP3   OH212338   2.959   3.163   3.234
 4154TIP3    H112339   3.012   3.159   3.151
 4154TIP3    H212340   2.987   3.248   3.269
 4155TIP3   OH212341   4.900   3.201   3.401
 4155TIP3    H112342   4.814   3.242   3.421
 4155TIP3    H212343   4.872   3.134   3.336
 4156TIP3   OH212344   4.540   2.839   1.974
 4156TIP3    H112345   4.580   2.765   1.923
 4156TIP3    H212346   4.607   2.909   1.966
 4157TIP3   OH212347   2.944   2.664   2.730
 4157TIP3    H112348   2.853   2.681   2.757
 4157TIP3    H212349   2.953   2.723   2.652
 4158TIP3   OH212350   4.102   4.369   2.242
 4158TIP3    H112351   4.153   4.352   2.160
 4158TIP3    H212352   4.157   4.435   2.287
 4159TIP3   OH212353   3.162   2.745   3.551
 4159TIP3    H112354   3.115   2.741   3.635
 4159TIP3    H212355   3.094   2.784   3.492
 4160TIP3   OH212356   3.203   4.172   3.630
 4160TIP3    H112357   3.112   4.143   3.612
 4160TIP3    H212358   3.212   4.153   3.724
 4161TIP3   OH212359   3.380   4.202   3.176
 4161TIP3    H112360   3.331   4.278   3.137
 4161TIP3    H212361   3.466   4.217   3.132
 4162TIP3   OH212362   3.828   4.450   3.314
 4162TIP3    H112363   3.870   4.452   3.403
 4162TIP3    H212364   3.895   4.500   3.262
 4163TIP3   OH212365   4.007   4.600   3.170
 4163TIP3    H112366   4.078   4.549   3.130
 4163TIP3    H212367   4.057   4.658   3.232
 4164TIP3   OH212368   4.800   2.964   3.272
 4164TIP3    H112369   4.708   2.962   3.239
 4164TIP3    H212370   4.827   2.871   3.259
 4165TIP3   OH212371   3.059   4.463   3.198
 4165TIP3    H112372   2.970   4.498   3.174
 4165TIP3    H212373   3.065   4.493   3.289
 4166TIP3   OH212374   3.295   4.441   3.056
 4166TIP3    H112375   3.209   4.454   3.102
 4166TIP3    H212376   3.274   4.474   2.966
 4167TIP3   OH212377   3.721   4.471   2.853
 4167TIP3    H112378   3.651   4.492   2.789
 4167TIP3    H212379   3.734   4.558   2.897
 4168TIP3   OH212380   3.989   4.410   2.905
 4168TIP3    H112381   3.894   4.426   2.885
 4168TIP3    H212382   4.031   4.488   2.864
 4169TIP3   OH212383   4.198   4.603   2.822
 4169TIP3    H112384   4.183   4.688   2.774
 4169TIP3    H212385   4.223   4.543   2.749
 4170TIP3   OH212386   2.969   4.257   2.945
 4170TIP3    H112387   2.997   4.232   3.036
 4170TIP3    H212388   3.041   4.213   2.894
 4171TIP3   OH212389   3.161   4.127   2.800
 4171TIP3    H112390   3.179   4.043   2.848
 4171TIP3    H212391   3.251   4.165   2.794
 4172TIP3   OH212392   3.428   4.225   2.801
 4172TIP3    H112393   3.460   4.134   2.787
 4172TIP3    H212394   3.470   4.244   2.887
 4173TIP3   OH212395   4.004   2.879   2.888
 4173TIP3    H112396   3.961   2.811   2.943
 4173TIP3    H212397   4.076   2.829   2.846
 4174TIP3   OH212398   4.531   2.760   2.798
 4174TIP3    H112399   4.566   2.812   2.723
 4174TIP3    H212400   4.435   2.777   2.791
 4175TIP3   OH212401   4.624   2.860   2.561
 4175TIP3    H112402   4.696   2.809   2.520
 4175TIP3    H212403   4.657   2.952   2.546
 4176TIP3   OH212404   3.254   2.587   2.908
 4176TIP3    H112405   3.162   2.552   2.910
 4176TIP3    H212406   3.305   2.503   2.907
 4177TIP3   OH212407   3.031   2.456   2.550
 4177TIP3    H112408   3.069   2.514   2.481
 4177TIP3    H212409   3.009   2.521   2.620
 4178TIP3   OH212410   3.693   2.624   2.787
 4178TIP3    H112411   3.755   2.673   2.731
 4178TIP3    H212412   3.717   2.657   2.875
 4179TIP3   OH212413   4.248   2.766   2.773
 4179TIP3    H112414   4.242   2.731   2.683
 4179TIP3    H212415   4.232   2.685   2.827
 4180TIP3   OH212416   4.274   2.687   2.334
 4180TIP3    H112417   4.187   2.729   2.343
 4180TIP3    H212418   4.259   2.603   2.382
 4181TIP3   OH212419   2.750   4.027   2.350
 4181TIP3    H112420   2.669   3.994   2.307
 4181TIP3    H212421   2.753   4.115   2.309
 4182TIP3   OH212422   3.156   2.617   2.321
 4182TIP3    H112423   3.206   2.556   2.263
 4182TIP3    H212424   3.228   2.673   2.356
 4183TIP3   OH212425   3.670   2.790   2.418
 4183TIP3    H112426   3.730   2.744   2.479
 4183TIP3    H212427   3.691   2.883   2.443
 4184TIP3   OH212428   3.532   4.221   1.913
 4184TIP3    H112429   3.621   4.240   1.878
 4184TIP3    H212430   3.508   4.144   1.856
 4185TIP3   OH212431   4.247   4.334   2.009
 4185TIP3    H112432   4.238   4.237   1.996
 4185TIP3    H212433   4.203   4.368   1.929
 4186TIP3   OH212434   3.463   2.868   3.796
 4186TIP3    H112435   3.428   2.800   3.856
 4186TIP3    H212436   3.557   2.870   3.824
 4187TIP3   OH212437   3.711   2.864   3.916
 4187TIP3    H112438   3.796   2.837   3.878
 4187TIP3    H212439   3.697   2.794   3.984
 4188TIP3   OH212440   4.534   2.925   3.707
 4188TIP3    H112441   4.553   2.895   3.798
 4188TIP3    H212442   4.621   2.919   3.664
 4189TIP3   OH212443   4.476   4.480   3.198
 4189TIP3    H112444   4.397   4.447   3.151
 4189TIP3    H212445   4.457   4.576   3.200
 4190TIP3   OH212446   5.740   3.850   1.967
 4190TIP3    H112447   5.714   3.942   1.947
 4190TIP3    H212448   5.663   3.802   1.932
 4191TIP3   OH212449   5.739   3.851   2.343
 4191TIP3    H112450   5.768   3.820   2.430
 4191TIP3    H212451   5.697   3.772   2.306
 4192TIP3   OH212452   5.040   3.749   2.710
 4192TIP3    H112453   5.073   3.682   2.774
 4192TIP3    H212454   5.118   3.806   2.701
 4193TIP3   OH212455   5.981   4.152   2.025
 4193TIP3    H112456   5.969   4.083   2.092
 4193TIP3    H212457   6.009   4.228   2.079
 4194TIP3   OH212458   5.009   4.155   2.438
 4194TIP3    H112459   5.001   4.058   2.440
 4194TIP3    H212460   5.106   4.164   2.431
 4195TIP3   OH212461   4.717   3.361   2.224
 4195TIP3    H112462   4.668   3.445   2.235
 4195TIP3    H212463   4.647   3.305   2.186
 4196TIP3   OH212464   4.777   3.647   2.389
 4196TIP3    H112465   4.826   3.571   2.428
 4196TIP3    H212466   4.836   3.675   2.318
 4197TIP3   OH212467   5.627   4.614   2.040
 4197TIP3    H112468   5.677   4.543   1.995
 4197TIP3    H212469   5.626   4.582   2.131
 4198TIP3   OH212470   5.538   4.075   2.393
 4198TIP3    H112471   5.576   4.000   2.345
 4198TIP3    H212472   5.622   4.121   2.417
 4199TIP3   OH212473   6.550   3.397   2.390
 4199TIP3    H112474   6.578   3.480   2.435
 4199TIP3    H212475   6.571   3.417   2.298
 4200TIP3   OH212476   5.949   3.579   2.428
 4200TIP3    H112477   5.993   3.494   2.447
 4200TIP3    H212478   5.920   3.565   2.336
 4201TIP3   OH212479   5.286   3.238   2.393
 4201TIP3    H112480   5.266   3.310   2.330
 4201TIP3    H212481   5.239   3.164   2.348
 4202TIP3   OH212482   5.980   3.329   2.016
 4202TIP3    H112483   6.054   3.313   2.080
 4202TIP3    H212484   6.031   3.364   1.940
 4203TIP3   OH212485   4.921   3.441   2.499
 4203TIP3    H112486   5.005   3.420   2.545
 4203TIP3    H212487   4.933   3.385   2.419
 4204TIP3   OH212488   5.363   3.638   2.290
 4204TIP3    H112489   5.457   3.612   2.303
 4204TIP3    H212490   5.324   3.554   2.258
 4205TIP3   OH212491   6.623   3.603   2.562
 4205TIP3    H112492   6.541   3.653   2.542
 4205TIP3    H212493   6.639   3.631   2.653
 4206TIP3   OH212494   5.284   3.221   2.827
 4206TIP3    H112495   5.225   3.258   2.758
 4206TIP3    H212496   5.232   3.242   2.907
 4207TIP3   OH212497   5.634   4.072   1.836
 4207TIP3    H112498   5.591   4.049   1.752
 4207TIP3    H212499   5.591   4.157   1.857
 4208TIP3   OH212500   5.391   3.996   2.624
 4208TIP3    H112501   5.327   4.061   2.661
 4208TIP3    H212502   5.433   4.048   2.553
 4209TIP3   OH212503   6.194   3.329   2.184
 4209TIP3    H112504   6.189   3.278   2.266
 4209TIP3    H212505   6.249   3.405   2.211
 4210TIP3   OH212506   5.155   3.336   2.611
 4210TIP3    H112507   5.217   3.409   2.633
 4210TIP3    H212508   5.203   3.295   2.536
 4211TIP3   OH212509   5.218   4.188   2.718
 4211TIP3    H112510   5.193   4.274   2.678
 4211TIP3    H212511   5.139   4.175   2.776
 4212TIP3   OH212512   4.616   3.879   1.955
 4212TIP3    H112513   4.574   3.906   1.871
 4212TIP3    H212514   4.645   3.965   1.992
 4213TIP3   OH212515   6.054   4.394   2.195
 4213TIP3    H112516   5.964   4.386   2.234
 4213TIP3    H212517   6.047   4.480   2.150
 4214TIP3   OH212518   6.344   3.297   2.557
 4214TIP3    H112519   6.256   3.328   2.528
 4214TIP3    H212520   6.402   3.329   2.485
 4215TIP3   OH212521   5.644   2.943   2.539
 4215TIP3    H112522   5.631   2.847   2.553
 4215TIP3    H212523   5.565   2.979   2.585
 4216TIP3   OH212524   5.758   4.442   1.871
 4216TIP3    H112525   5.808   4.361   1.848
 4216TIP3    H212526   5.817   4.509   1.829
 4217TIP3   OH212527   5.899   4.228   1.773
 4217TIP3    H112528   5.861   4.148   1.733
 4217TIP3    H212529   5.933   4.193   1.858
 4218TIP3   OH212530   6.280   4.310   2.539
 4218TIP3    H112531   6.270   4.233   2.479
 4218TIP3    H212532   6.263   4.385   2.478
 4219TIP3   OH212533   5.571   3.703   1.794
 4219TIP3    H112534   5.490   3.754   1.771
 4219TIP3    H212535   5.618   3.700   1.709
 4220TIP3   OH212536   5.530   3.486   1.515
 4220TIP3    H112537   5.599   3.536   1.562
 4220TIP3    H212538   5.586   3.422   1.466
 4221TIP3   OH212539   6.475   3.943   2.382
 4221TIP3    H112540   6.393   3.998   2.387
 4221TIP3    H212541   6.505   3.968   2.291
 4222TIP3   OH212542   5.918   3.785   1.768
 4222TIP3    H112543   5.863   3.810   1.846
 4222TIP3    H212544   6.001   3.759   1.812
 4223TIP3   OH212545   6.154   3.826   2.677
 4223TIP3    H112546   6.152   3.910   2.725
 4223TIP3    H212547   6.068   3.830   2.630
 4224TIP3   OH212548   5.150   3.784   2.184
 4224TIP3    H112549   5.109   3.727   2.116
 4224TIP3    H212550   5.228   3.731   2.211
 4225TIP3   OH212551   5.279   4.193   2.333
 4225TIP3    H112552   5.260   4.149   2.249
 4225TIP3    H212553   5.370   4.162   2.352
 4226TIP3   OH212554   5.289   3.754   2.538
 4226TIP3    H112555   5.321   3.735   2.447
 4226TIP3    H212556   5.331   3.840   2.558
 4227TIP3   OH212557   5.812   4.392   2.314
 4227TIP3    H112558   5.798   4.473   2.366
 4227TIP3    H212559   5.798   4.320   2.379
 4228TIP3   OH212560   5.424   4.310   2.863
 4228TIP3    H112561   5.365   4.374   2.908
 4228TIP3    H212562   5.358   4.258   2.814
 4229TIP3   OH212563   5.760   3.643   1.593
 4229TIP3    H112564   5.819   3.702   1.646
 4229TIP3    H212565   5.786   3.668   1.501
 4230TIP3   OH212566   5.179   3.868   2.962
 4230TIP3    H112567   5.183   3.955   3.007
 4230TIP3    H212568   5.083   3.850   2.968
 4231TIP3   OH212569   5.500   4.325   1.869
 4231TIP3    H112570   5.578   4.379   1.890
 4231TIP3    H212571   5.440   4.390   1.831
 4232TIP3   OH212572   5.220   4.481   2.947
 4232TIP3    H112573   5.185   4.479   2.856
 4232TIP3    H212574   5.140   4.459   3.001
 4233TIP3   OH212575   6.276   2.885   1.641
 4233TIP3    H112576   6.194   2.904   1.692
 4233TIP3    H212577   6.287   2.969   1.591
 4234TIP3   OH212578   5.016   3.626   1.990
 4234TIP3    H112579   4.953   3.672   1.931
 4234TIP3    H212580   4.974   3.540   2.000
 4235TIP3   OH212581   6.073   4.253   1.188
 4235TIP3    H112582   6.081   4.350   1.175
 4235TIP3    H212583   6.166   4.224   1.176
 4236TIP3   OH212584   4.798   4.010   2.896
 4236TIP3    H112585   4.734   3.987   2.825
 4236TIP3    H212586   4.835   3.922   2.920
 4237TIP3   OH212587   4.652   4.202   2.531
 4237TIP3    H112588   4.748   4.197   2.519
 4237TIP3    H212589   4.644   4.283   2.583
 4238TIP3   OH212590   6.518   4.653   2.583
 4238TIP3    H112591   6.516   4.556   2.596
 4238TIP3    H212592   6.435   4.679   2.628
 4239TIP3   OH212593   5.624   4.440   2.718
 4239TIP3    H112594   5.625   4.533   2.750
 4239TIP3    H212595   5.553   4.402   2.774
 4240TIP3   OH212596   5.380   4.569   1.670
 4240TIP3    H112597   5.337   4.551   1.585
 4240TIP3    H212598   5.351   4.660   1.691
 4241TIP3   OH212599   4.820   4.420   2.053
 4241TIP3    H112600   4.869   4.410   2.137
 4241TIP3    H212601   4.760   4.344   2.059
 4242TIP3   OH212602   5.585   4.470   1.311
 4242TIP3    H112603   5.644   4.400   1.275
 4242TIP3    H212604   5.619   4.479   1.403
 4243TIP3   OH212605   5.633   4.518   1.582
 4243TIP3    H112606   5.546   4.527   1.625
 4243TIP3    H212607   5.686   4.478   1.653
 4244TIP3   OH212608   6.407   3.785   2.859
 4244TIP3    H112609   6.329   3.801   2.805
 4244TIP3    H212610   6.422   3.689   2.846
 4245TIP3   OH212611   5.004   4.192   2.886
 4245TIP3    H112612   5.054   4.176   2.969
 4245TIP3    H212613   4.930   4.129   2.894
 4246TIP3   OH212614   5.403   3.016   2.667
 4246TIP3    H112615   5.314   2.985   2.642
 4246TIP3    H212616   5.380   3.100   2.709
 4247TIP3   OH212617   5.936   3.133   2.861
 4247TIP3    H112618   6.004   3.105   2.926
 4247TIP3    H212619   5.852   3.111   2.907
 4248TIP3   OH212620   6.177   3.561   2.780
 4248TIP3    H112621   6.129   3.558   2.865
 4248TIP3    H212622   6.153   3.648   2.744
 4249TIP3   OH212623   5.836   3.693   1.337
 4249TIP3    H112624   5.803   3.665   1.250
 4249TIP3    H212625   5.915   3.743   1.312
 4250TIP3   OH212626   5.549   3.067   1.638
 4250TIP3    H112627   5.516   3.065   1.730
 4250TIP3    H212628   5.511   2.983   1.605
 4251TIP3   OH212629   5.334   3.531   2.686
 4251TIP3    H112630   5.283   3.553   2.767
 4251TIP3    H212631   5.319   3.612   2.632
 4252TIP3   OH212632   5.219   3.417   2.201
 4252TIP3    H112633   5.126   3.392   2.217
 4252TIP3    H212634   5.233   3.378   2.112
 4253TIP3   OH212635   5.709   3.504   1.927
 4253TIP3    H112636   5.655   3.576   1.886
 4253TIP3    H212637   5.763   3.476   1.851
 4254TIP3   OH212638   5.883   3.784   3.015
 4254TIP3    H112639   5.862   3.710   3.077
 4254TIP3    H212640   5.977   3.799   3.036
 4255TIP3   OH212641   5.866   3.534   2.168
 4255TIP3    H112642   5.809   3.565   2.096
 4255TIP3    H212643   5.899   3.452   2.126
 4256TIP3   OH212644   5.154   3.562   2.895
 4256TIP3    H112645   5.178   3.627   2.963
 4256TIP3    H212646   5.142   3.481   2.948
 4257TIP3   OH212647   5.204   3.038   1.605
 4257TIP3    H112648   5.196   3.035   1.703
 4257TIP3    H212649   5.124   3.089   1.582
 4258TIP3   OH212650   4.746   3.085   2.476
 4258TIP3    H112651   4.823   3.115   2.528
 4258TIP3    H212652   4.785   3.051   2.394
 4259TIP3   OH212653   4.723   3.065   1.996
 4259TIP3    H112654   4.768   3.104   1.918
 4259TIP3    H212655   4.662   3.138   2.018
 4260TIP3   OH212656   5.876   3.780   2.592
 4260TIP3    H112657   5.909   3.708   2.534
 4260TIP3    H212658   5.848   3.728   2.670
 4261TIP3   OH212659   5.544   3.241   2.263
 4261TIP3    H112660   5.461   3.238   2.315
 4261TIP3    H212661   5.611   3.243   2.333
 4262TIP3   OH212662   4.980   3.295   2.272
 4262TIP3    H112663   4.885   3.302   2.245
 4262TIP3    H212664   5.003   3.204   2.246
 4263TIP3   OH212665   5.252   3.294   1.958
 4263TIP3    H112666   5.346   3.308   1.937
 4263TIP3    H212667   5.206   3.317   1.874
 4264TIP3   OH212668   6.038   3.316   2.464
 4264TIP3    H112669   6.001   3.328   2.554
 4264TIP3    H212670   5.973   3.254   2.425
 4265TIP3   OH212671   5.088   3.325   1.738
 4265TIP3    H112672   5.016   3.281   1.689
 4265TIP3    H212673   5.140   3.361   1.663
 4266TIP3   OH212674   6.206   5.003   2.681
 4266TIP3    H112675   6.203   5.029   2.587
 4266TIP3    H212676   6.280   5.057   2.714
 4267TIP3   OH212677   5.164   4.113   3.105
 4267TIP3    H112678   5.244   4.145   3.152
 4267TIP3    H212679   5.099   4.116   3.178
 4268TIP3   OH212680   5.629   3.566   2.358
 4268TIP3    H112681   5.702   3.529   2.306
 4268TIP3    H212682   5.644   3.526   2.445
 4269TIP3   OH212683   5.155   3.057   2.235
 4269TIP3    H112684   5.123   2.975   2.279
 4269TIP3    H212685   5.206   3.022   2.161
 4270TIP3   OH212686   5.605   3.460   2.655
 4270TIP3    H112687   5.517   3.500   2.664
 4270TIP3    H212688   5.664   3.523   2.702
 4271TIP3   OH212689   5.342   3.857   1.744
 4271TIP3    H112690   5.270   3.791   1.733
 4271TIP3    H212691   5.325   3.890   1.835
 4272TIP3   OH212692   6.244   4.092   2.375
 4272TIP3    H112693   6.269   4.141   2.293
 4272TIP3    H212694   6.158   4.052   2.350
 4273TIP3   OH212695   5.801   3.169   1.605
 4273TIP3    H112696   5.704   3.154   1.612
 4273TIP3    H212697   5.811   3.264   1.627
 4274TIP3   OH212698   5.740   4.172   2.742
 4274TIP3    H112699   5.763   4.154   2.834
 4274TIP3    H212700   5.705   4.262   2.746
 4275TIP3   OH212701   5.871   3.415   1.708
 4275TIP3    H112702   5.967   3.421   1.724
 4275TIP3    H212703   5.853   3.494   1.654
 4276TIP3   OH212704   5.033   3.876   2.422
 4276TIP3    H112705   5.071   3.850   2.336
 4276TIP3    H212706   5.074   3.812   2.482
 4277TIP3   OH212707   5.488   4.006   1.564
 4277TIP3    H112708   5.441   4.092   1.571
 4277TIP3    H212709   5.434   3.950   1.624
 4278TIP3   OH212710   4.913   3.798   3.033
 4278TIP3    H112711   4.935   3.785   3.128
 4278TIP3    H212712   4.844   3.731   3.019
 4279TIP3   OH212713   5.639   3.909   3.055
 4279TIP3    H112714   5.581   3.854   3.000
 4279TIP3    H212715   5.727   3.879   3.026
 4280TIP3   OH212716   5.903   4.429   2.639
 4280TIP3    H112717   5.807   4.432   2.648
 4280TIP3    H212718   5.931   4.483   2.715
 4281TIP3   OH212719   6.315   3.503   1.545
 4281TIP3    H112720   6.251   3.458   1.484
 4281TIP3    H212721   6.311   3.592   1.504
 4282TIP3   OH212722   6.530   4.360   2.628
 4282TIP3    H112723   6.432   4.357   2.619
 4282TIP3    H212724   6.556   4.332   2.538
 4283TIP3   OH212725   6.011   4.324   1.452
 4283TIP3    H112726   5.988   4.254   1.515
 4283TIP3    H212727   6.024   4.277   1.368
 4284TIP3   OH212728   6.008   3.953   2.296
 4284TIP3    H112729   5.915   3.928   2.307
 4284TIP3    H212730   6.043   3.875   2.249
 4285TIP3   OH212731   5.134   4.180   2.045
 4285TIP3    H112732   5.138   4.262   1.992
 4285TIP3    H212733   5.039   4.167   2.052
 4286TIP3   OH212734   4.697   3.486   1.746
 4286TIP3    H112735   4.745   3.569   1.767
 4286TIP3    H212736   4.621   3.493   1.807
 4287TIP3   OH212737   5.277   3.948   1.991
 4287TIP3    H112738   5.241   4.037   2.008
 4287TIP3    H212739   5.239   3.898   2.066
 4288TIP3   OH212740   5.403   4.525   2.515
 4288TIP3    H112741   5.442   4.598   2.464
 4288TIP3    H212742   5.481   4.493   2.564
 4289TIP3   OH212743   5.056   4.420   1.898
 4289TIP3    H112744   4.969   4.428   1.943
 4289TIP3    H212745   5.087   4.513   1.901
 4290TIP3   OH212746   5.794   4.159   2.472
 4290TIP3    H112747   5.786   4.157   2.570
 4290TIP3    H212748   5.875   4.108   2.459
 4291TIP3   OH212749   5.765   4.050   1.355
 4291TIP3    H112750   5.818   4.026   1.434
 4291TIP3    H212751   5.677   4.025   1.386
 4292TIP3   OH212752   6.042   4.694   2.523
 4292TIP3    H112753   5.962   4.639   2.513
 4292TIP3    H212754   6.029   4.760   2.452
 4293TIP3   OH212755   6.107   4.528   1.176
 4293TIP3    H112756   6.145   4.600   1.123
 4293TIP3    H212757   6.027   4.574   1.208
 4294TIP3   OH212758   5.127   3.305   3.044
 4294TIP3    H112759   5.031   3.311   3.056
 4294TIP3    H212760   5.152   3.241   3.113
 4295TIP3   OH212761   5.925   3.986   1.573
 4295TIP3    H112762   5.916   3.919   1.644
 4295TIP3    H212763   6.022   3.985   1.560
 4296TIP3   OH212764   4.842   4.389   2.675
 4296TIP3    H112765   4.895   4.314   2.704
 4296TIP3    H212766   4.873   4.458   2.735
 4297TIP3   OH212767   5.133   4.033   1.354
 4297TIP3    H112768   5.149   3.942   1.324
 4297TIP3    H212769   5.115   4.019   1.449
 4298TIP3   OH212770   5.079   4.037   1.628
 4298TIP3    H112771   5.151   4.011   1.687
 4298TIP3    H212772   5.084   4.135   1.634
 4299TIP3   OH212773   4.816   3.732   1.830
 4299TIP3    H112774   4.751   3.777   1.887
 4299TIP3    H212775   4.832   3.801   1.763
 4300TIP3   OH212776   5.960   3.370   2.722
 4300TIP3    H112777   6.042   3.407   2.760
 4300TIP3    H212778   5.948   3.289   2.776
 4301TIP3   OH212779   5.840   3.122   1.885
 4301TIP3    H112780   5.827   3.145   1.791
 4301TIP3    H212781   5.880   3.204   1.921
 4302TIP3   OH212782   5.344   4.235   1.576
 4302TIP3    H112783   5.258   4.265   1.611
 4302TIP3    H212784   5.362   4.306   1.513
 4303TIP3   OH212785   5.534   3.298   1.989
 4303TIP3    H112786   5.599   3.369   1.970
 4303TIP3    H212787   5.539   3.292   2.086
 4304TIP3   OH212788   5.800   3.618   2.799
 4304TIP3    H112789   5.821   3.673   2.877
 4304TIP3    H212790   5.859   3.541   2.812
 4305TIP3   OH212791   5.680   3.029   2.094
 4305TIP3    H112792   5.671   3.107   2.152
 4305TIP3    H212793   5.738   3.066   2.024
 4306TIP3   OH212794   5.085   4.310   1.642
 4306TIP3    H112795   5.056   4.380   1.579
 4306TIP3    H212796   5.071   4.355   1.728
 4307TIP3   OH212797   5.188   3.023   1.882
 4307TIP3    H112798   5.187   3.114   1.917
 4307TIP3    H212799   5.284   3.004   1.890
 4308TIP3   OH212800   6.444   3.517   2.778
 4308TIP3    H112801   6.346   3.515   2.784
 4308TIP3    H212802   6.456   3.482   2.689
 4309TIP3   OH212803   6.094   3.713   2.167
 4309TIP3    H112804   6.018   3.652   2.178
 4309TIP3    H212805   6.166   3.666   2.214
 4310TIP3   OH212806   4.804   3.944   1.637
 4310TIP3    H112807   4.868   4.017   1.646
 4310TIP3    H212808   4.851   3.891   1.569
 4311TIP3   OH212809   4.752   3.217   1.770
 4311TIP3    H112810   4.750   3.314   1.764
 4311TIP3    H212811   4.669   3.192   1.727
 4312TIP3   OH212812   6.062   4.665   2.116
 4312TIP3    H112813   6.019   4.712   2.041
 4312TIP3    H212814   6.156   4.685   2.096
 4313TIP3   OH212815   5.138   2.937   2.644
 4313TIP3    H112816   5.107   2.905   2.557
 4313TIP3    H212817   5.127   2.858   2.700
 4314TIP3   OH212818   4.680   4.155   2.028
 4314TIP3    H112819   4.603   4.188   2.076
 4314TIP3    H212820   4.662   4.194   1.939
 4315TIP3   OH212821   4.832   4.693   3.097
 4315TIP3    H112822   4.918   4.693   3.143
 4315TIP3    H212823   4.812   4.598   3.094
 4316TIP3   OH212824   5.316   4.662   3.142
 4316TIP3    H112825   5.411   4.647   3.147
 4316TIP3    H212826   5.292   4.606   3.065
 4317TIP3   OH212827   5.297   4.238   1.269
 4317TIP3    H112828   5.241   4.166   1.307
 4317TIP3    H212829   5.372   4.185   1.236
 4318TIP3   OH212830   5.955   4.567   2.872
 4318TIP3    H112831   5.947   4.497   2.941
 4318TIP3    H212832   6.032   4.618   2.902
 4319TIP3   OH212833   5.733   4.279   1.178
 4319TIP3    H112834   5.781   4.217   1.236
 4319TIP3    H212835   5.790   4.281   1.098
 4320TIP3   OH212836   4.964   4.102   3.296
 4320TIP3    H112837   4.981   4.006   3.298
 4320TIP3    H212838   4.876   4.105   3.253
 4321TIP3   OH212839   4.940   3.755   1.487
 4321TIP3    H112840   4.995   3.720   1.559
 4321TIP3    H212841   5.007   3.759   1.416
 4322TIP3   OH212842   5.572   4.185   3.069
 4322TIP3    H112843   5.531   4.202   2.982
 4322TIP3    H212844   5.603   4.093   3.061
 4323TIP3   OH212845   5.446   3.951   1.294
 4323TIP3    H112846   5.451   3.965   1.391
 4323TIP3    H212847   5.447   3.853   1.290
 4324TIP3   OH212848   6.065   4.193   2.674
 4324TIP3    H112849   6.139   4.239   2.630
 4324TIP3    H212850   5.994   4.259   2.663
 4325TIP3   OH212851   5.081   3.834   3.277
 4325TIP3    H112852   5.158   3.778   3.257
 4325TIP3    H212853   5.106   3.868   3.366
 4326TIP3   OH212854   5.151   3.656   1.712
 4326TIP3    H112855   5.125   3.613   1.795
 4326TIP3    H212856   5.186   3.581   1.659
 4327TIP3   OH212857   5.418   3.720   2.940
 4327TIP3    H112858   5.341   3.781   2.943
 4327TIP3    H212859   5.465   3.753   2.860
 4328TIP3   OH212860   5.249   3.449   1.553
 4328TIP3    H112861   5.222   3.450   1.458
 4328TIP3    H212862   5.346   3.456   1.544
 4329TIP3   OH212863   5.933   4.122   3.074
 4329TIP3    H112864   6.015   4.105   3.025
 4329TIP3    H212865   5.935   4.054   3.143
 4330TIP3   OH212866   6.074   3.783   1.212
 4330TIP3    H112867   6.051   3.735   1.130
 4330TIP3    H212868   6.042   3.873   1.187
 4331TIP3   OH212869   5.541   3.507   3.066
 4331TIP3    H112870   5.541   3.428   3.009
 4331TIP3    H212871   5.499   3.574   3.008
 4332TIP3   OH212872   5.544   3.293   2.873
 4332TIP3    H112873   5.571   3.337   2.789
 4332TIP3    H212874   5.450   3.272   2.853
 4333TIP3   OH212875   5.574   3.832   2.745
 4333TIP3    H112876   5.656   3.840   2.694
 4333TIP3    H212877   5.517   3.900   2.703
 4334TIP3   OH212878   6.156   3.800   3.129
 4334TIP3    H112879   6.206   3.717   3.134
 4334TIP3    H212880   6.222   3.861   3.094
 4335TIP3   OH212881   6.195   4.051   2.863
 4335TIP3    H112882   6.137   4.104   2.803
 4335TIP3    H212883   6.283   4.071   2.822
 4336TIP3   OH212884   5.420   3.624   3.295
 4336TIP3    H112885   5.349   3.557   3.307
 4336TIP3    H212886   5.454   3.600   3.207
 4337TIP3   OH212887   5.676   3.061   2.942
 4337TIP3    H112888   5.629   3.144   2.916
 4337TIP3    H212889   5.608   2.994   2.925
 4338TIP3   OH212890   5.803   3.564   3.155
 4338TIP3    H112891   5.792   3.557   3.251
 4338TIP3    H212892   5.712   3.540   3.126
 4339TIP3   OH212893   6.042   3.513   3.009
 4339TIP3    H112894   5.966   3.516   3.070
 4339TIP3    H212895   6.115   3.483   3.067
 4340TIP3   OH212896   6.269   3.453   3.163
 4340TIP3    H112897   6.283   3.358   3.182
 4340TIP3    H212898   6.267   3.493   3.252
 4341TIP3   OH212899   5.257   3.405   3.346
 4341TIP3    H112900   5.264   3.315   3.309
 4341TIP3    H212901   5.290   3.391   3.437
 4342TIP3   OH212902   5.763   3.061   3.201
 4342TIP3    H112903   5.839   3.001   3.190
 4342TIP3    H212904   5.728   3.062   3.109
 4343TIP3   OH212905   5.832   3.282   3.357
 4343TIP3    H112906   5.811   3.214   3.289
 4343TIP3    H212907   5.759   3.346   3.347
 4344TIP3   OH212908   5.056   4.512   1.455
 4344TIP3    H112909   5.151   4.511   1.436
 4344TIP3    H212910   5.025   4.561   1.375
 4345TIP3   OH212911   4.537   3.894   1.673
 4345TIP3    H112912   4.631   3.917   1.660
 4345TIP3    H212913   4.532   3.805   1.631
 4346TIP3   OH212914   4.449   4.507   2.084
 4346TIP3    H112915   4.382   4.444   2.050
 4346TIP3    H212916   4.494   4.452   2.151
 4347TIP3   OH212917   4.586   4.362   2.271
 4347TIP3    H112918   4.576   4.286   2.330
 4347TIP3    H212919   4.638   4.422   2.328
 4348TIP3   OH212920   6.313   4.759   2.070
 4348TIP3    H112921   6.339   4.794   2.157
 4348TIP3    H212922   6.373   4.806   2.011
 4349TIP3   OH212923   6.344   4.780   2.352
 4349TIP3    H112924   6.302   4.691   2.348
 4349TIP3    H212925   6.419   4.760   2.409
 4350TIP3   OH212926   6.391   4.455   2.926
 4350TIP3    H112927   6.316   4.464   2.989
 4350TIP3    H212928   6.431   4.545   2.930
 4351TIP3   OH212929   6.206   3.970   1.547
 4351TIP3    H112930   6.275   4.033   1.520
 4351TIP3    H212931   6.248   3.929   1.626
 4352TIP3   OH212932   6.333   3.837   1.749
 4352TIP3    H112933   6.269   3.795   1.810
 4352TIP3    H212934   6.399   3.875   1.810
 4353TIP3   OH212935   6.386   4.226   2.182
 4353TIP3    H112936   6.440   4.165   2.130
 4353TIP3    H212937   6.378   4.303   2.123
 4354TIP3   OH212938   6.221   4.527   2.379
 4354TIP3    H112939   6.150   4.572   2.430
 4354TIP3    H212940   6.170   4.480   2.310
 4355TIP3   OH212941   6.272   3.744   1.398
 4355TIP3    H112942   6.201   3.748   1.331
 4355TIP3    H212943   6.246   3.820   1.453
 4356TIP3   OH212944   6.144   3.417   1.353
 4356TIP3    H112945   6.102   3.458   1.276
 4356TIP3    H212946   6.117   3.323   1.342
 4357TIP3   OH212947   6.148   3.692   1.897
 4357TIP3    H112948   6.157   3.595   1.893
 4357TIP3    H212949   6.135   3.707   1.994
 4358TIP3   OH212950   4.775   3.765   2.643
 4358TIP3    H112951   4.774   3.737   2.549
 4358TIP3    H212952   4.873   3.768   2.660
 4359TIP3   OH212953   6.436   4.116   2.753
 4359TIP3    H112954   6.510   4.052   2.745
 4359TIP3    H212955   6.463   4.188   2.693
 4360TIP3   OH212956   6.623   3.925   2.775
 4360TIP3    H112957   6.548   3.874   2.814
 4360TIP3    H212958   6.696   3.860   2.787
 4361TIP3   OH212959   6.087   3.151   1.340
 4361TIP3    H112960   6.162   3.121   1.395
 4361TIP3    H212961   6.014   3.093   1.365
 4362TIP3   OH212962   6.144   3.408   1.794
 4362TIP3    H112963   6.185   3.319   1.809
 4362TIP3    H212964   6.202   3.441   1.724
 4363TIP3   OH212965   6.307   3.585   2.287
 4363TIP3    H112966   6.393   3.612   2.247
 4363TIP3    H212967   6.320   3.622   2.377
 4364TIP3   OH212968   6.374   3.727   2.522
 4364TIP3    H112969   6.295   3.762   2.568
 4364TIP3    H212970   6.406   3.807   2.475
 4365TIP3   OH212971   4.989   3.452   3.317
 4365TIP3    H112972   5.087   3.447   3.318
 4365TIP3    H212973   4.966   3.369   3.363
 4366TIP3   OH212974   6.827   3.316   3.077
 4366TIP3    H112975   6.884   3.250   3.032
 4366TIP3    H212976   6.799   3.373   3.002
 4367TIP3   OH212977   6.254   3.158   1.830
 4367TIP3    H112978   6.302   3.142   1.914
 4367TIP3    H212979   6.193   3.081   1.829
 4368TIP3   OH212980   4.953   3.145   2.651
 4368TIP3    H112981   5.016   3.071   2.660
 4368TIP3    H212982   5.015   3.220   2.644
 4369TIP3   OH212983   4.758   3.420   2.725
 4369TIP3    H112984   4.806   3.411   2.640
 4369TIP3    H212985   4.785   3.508   2.752
 4370TIP3   OH212986   6.699   3.459   2.885
 4370TIP3    H112987   6.611   3.497   2.904
 4370TIP3    H212988   6.672   3.388   2.823
 4371TIP3   OH212989   6.336   3.095   1.462
 4371TIP3    H112990   6.376   3.022   1.410
 4371TIP3    H212991   6.403   3.166   1.453
 4372TIP3   OH212992   4.739   2.926   2.226
 4372TIP3    H112993   4.644   2.922   2.248
 4372TIP3    H212994   4.739   2.982   2.146
 4373TIP3   OH212995   5.897   4.624   1.729
 4373TIP3    H112996   5.950   4.609   1.647
 4373TIP3    H212997   5.950   4.692   1.774
 4374TIP3   OH212998   4.960   3.003   3.039
 4374TIP3    H112999   4.907   2.997   3.121
 4374TIP3    H213000   4.894   3.042   2.978
 4375TIP3   OH213001   5.000   4.426   3.116
 4375TIP3    H113002   4.908   4.400   3.098
 4375TIP3    H213003   5.007   4.413   3.211
 4376TIP3   OH213004   5.176   4.459   2.662
 4376TIP3    H113005   5.128   4.535   2.624
 4376TIP3    H213006   5.263   4.474   2.618
 4377TIP3   OH213007   5.625   4.706   2.800
 4377TIP3    H113008   5.666   4.709   2.889
 4377TIP3    H213009   5.690   4.757   2.747
 4378TIP3   OH213010   5.803   4.855   2.658
 4378TIP3    H113011   5.877   4.807   2.617
 4378TIP3    H213012   5.852   4.915   2.719
 4379TIP3   OH213013   6.596   3.221   2.760
 4379TIP3    H113014   6.505   3.218   2.725
 4379TIP3    H213015   6.625   3.128   2.746
 4380TIP3   OH213016   4.854   4.717   2.686
 4380TIP3    H113017   4.766   4.753   2.662
 4380TIP3    H213018   4.864   4.754   2.775
 4381TIP3   OH213019   5.090   4.695   2.542
 4381TIP3    H113020   5.004   4.710   2.588
 4381TIP3    H213021   5.070   4.731   2.453
 4382TIP3   OH213022   5.516   4.726   2.340
 4382TIP3    H113023   5.448   4.750   2.274
 4382TIP3    H213024   5.531   4.813   2.385
 4383TIP3   OH213025   5.785   4.666   2.391
 4383TIP3    H113026   5.690   4.683   2.372
 4383TIP3    H213027   5.827   4.744   2.352
 4384TIP3   OH213028   5.994   4.859   2.309
 4384TIP3    H113029   5.979   4.944   2.263
 4384TIP3    H213030   6.018   4.800   2.235
 4385TIP3   OH213031   4.765   4.513   2.431
 4385TIP3    H113032   4.792   4.489   2.522
 4385TIP3    H213033   4.838   4.470   2.381
 4386TIP3   OH213034   4.958   4.384   2.286
 4386TIP3    H113035   4.975   4.300   2.334
 4386TIP3    H213036   5.048   4.422   2.282
 4387TIP3   OH213037   5.223   4.480   2.289
 4387TIP3    H113038   5.256   4.390   2.276
 4387TIP3    H213039   5.266   4.502   2.373
 4388TIP3   OH213040   5.802   3.137   2.378
 4388TIP3    H113041   5.758   3.067   2.429
 4388TIP3    H213042   5.872   3.087   2.331
 4389TIP3   OH213043   6.326   3.018   2.286
 4389TIP3    H113044   6.363   3.068   2.210
 4389TIP3    H213045   6.231   3.033   2.277
 4390TIP3   OH213046   6.420   3.116   2.048
 4390TIP3    H113047   6.493   3.065   2.006
 4390TIP3    H213048   6.453   3.208   2.033
 4391TIP3   OH213049   5.050   2.845   2.397
 4391TIP3    H113050   4.958   2.812   2.395
 4391TIP3    H213051   5.100   2.760   2.393
 4392TIP3   OH213052   4.836   2.713   2.041
 4392TIP3    H113053   4.867   2.770   1.969
 4392TIP3    H213054   4.806   2.778   2.108
 4393TIP3   OH213055   5.491   2.878   2.274
 4393TIP3    H113056   5.551   2.928   2.215
 4393TIP3    H213057   5.513   2.916   2.360
 4394TIP3   OH213058   6.043   3.022   2.259
 4394TIP3    H113059   6.038   2.988   2.169
 4394TIP3    H213060   6.028   2.941   2.313
 4395TIP3   OH213061   6.071   2.944   1.821
 4395TIP3    H113062   5.983   2.985   1.828
 4395TIP3    H213063   6.056   2.860   1.868
 4396TIP3   OH213064   4.553   4.282   1.824
 4396TIP3    H113065   4.469   4.249   1.788
 4396TIP3    H213066   4.541   4.377   1.810
 4397TIP3   OH213067   4.952   2.873   1.807
 4397TIP3    H113068   5.001   2.811   1.750
 4397TIP3    H213069   5.025   2.928   1.843
 4398TIP3   OH213070   5.465   3.047   1.905
 4398TIP3    H113071   5.526   3.000   1.964
 4398TIP3    H213072   5.488   3.140   1.930
 4399TIP3   OH213073   5.325   4.476   1.404
 4399TIP3    H113074   5.414   4.497   1.368
 4399TIP3    H213075   5.303   4.400   1.345
 4400TIP3   OH213076   6.043   4.591   1.496
 4400TIP3    H113077   6.034   4.493   1.482
 4400TIP3    H213078   5.999   4.625   1.416
 4401TIP3   OH213079   5.259   3.128   3.284
 4401TIP3    H113080   5.226   3.055   3.339
 4401TIP3    H213081   5.354   3.127   3.310
 4402TIP3   OH213082   5.511   3.115   3.405
 4402TIP3    H113083   5.589   3.116   3.346
 4402TIP3    H213084   5.539   3.052   3.473
 4403TIP3   OH213085   4.630   4.311   1.463
 4403TIP3    H113086   4.630   4.338   1.556
 4403TIP3    H213087   4.718   4.270   1.452
 4404TIP3   OH213088   6.330   3.182   3.193
 4404TIP3    H113089   6.352   3.151   3.284
 4404TIP3    H213090   6.418   3.179   3.149
 4405TIP3   OH213091   6.272   4.736   2.685
 4405TIP3    H113092   6.193   4.704   2.637
 4405TIP3    H213093   6.253   4.832   2.686
 4406TIP3   OH213094   7.539   4.112   1.440
 4406TIP3    H113095   7.496   4.190   1.483
 4406TIP3    H213096   7.458   4.062   1.425
 4407TIP3   OH213097   7.567   4.092   1.819
 4407TIP3    H113098   7.556   4.070   1.913
 4407TIP3    H213099   7.485   4.057   1.780
 4408TIP3   OH213100   6.836   4.005   2.199
 4408TIP3    H113101   6.871   3.939   2.261
 4408TIP3    H213102   6.913   4.062   2.185
 4409TIP3   OH213103   7.785   4.405   1.508
 4409TIP3    H113104   7.754   4.339   1.572
 4409TIP3    H213105   7.799   4.483   1.564
 4410TIP3   OH213106   6.808   4.412   1.928
 4410TIP3    H113107   6.799   4.314   1.929
 4410TIP3    H213108   6.903   4.420   1.908
 4411TIP3   OH213109   6.513   3.617   1.710
 4411TIP3    H113110   6.466   3.701   1.723
 4411TIP3    H213111   6.442   3.562   1.672
 4412TIP3   OH213112   6.573   3.904   1.875
 4412TIP3    H113113   6.623   3.829   1.914
 4412TIP3    H213114   6.637   3.937   1.809
 4413TIP3   OH213115   7.432   4.877   1.530
 4413TIP3    H113116   7.477   4.805   1.480
 4413TIP3    H213117   7.416   4.833   1.614
 4414TIP3   OH213118   7.330   4.327   1.883
 4414TIP3    H113119   7.335   4.296   1.790
 4414TIP3    H213120   7.420   4.361   1.896
 4415TIP3   OH213121   8.348   3.654   1.877
 4415TIP3    H113122   8.374   3.738   1.920
 4415TIP3    H213123   8.364   3.675   1.784
 4416TIP3   OH213124   7.749   3.836   1.917
 4416TIP3    H113125   7.788   3.747   1.931
 4416TIP3    H213126   7.715   3.827   1.826
 4417TIP3   OH213127   7.084   3.494   1.880
 4417TIP3    H113128   7.063   3.567   1.818
 4417TIP3    H213129   7.035   3.421   1.835
 4418TIP3   OH213130   7.777   3.583   1.503
 4418TIP3    H113131   7.851   3.568   1.566
 4418TIP3    H213132   7.826   3.622   1.429
 4419TIP3   OH213133   6.717   3.697   1.986
 4419TIP3    H113134   6.801   3.677   2.032
 4419TIP3    H213135   6.729   3.642   1.906
 4420TIP3   OH213136   7.161   3.895   1.779
 4420TIP3    H113137   7.254   3.866   1.791
 4420TIP3    H213138   7.119   3.814   1.745
 4421TIP3   OH213139   8.422   3.864   2.047
 4421TIP3    H113140   8.338   3.911   2.023
 4421TIP3    H213141   8.422   3.879   2.142
 4422TIP3   OH213142   7.081   3.478   2.313
 4422TIP3    H113143   7.022   3.515   2.245
 4422TIP3    H213144   7.029   3.497   2.394
 4423TIP3   OH213145   7.189   4.251   2.113
 4423TIP3    H113146   7.125   4.319   2.146
 4423TIP3    H213147   7.229   4.297   2.036
 4424TIP3   OH213148   7.994   3.584   1.670
 4424TIP3    H113149   7.976   3.539   1.754
 4424TIP3    H213150   8.043   3.663   1.700
 4425TIP3   OH213151   6.952   3.593   2.098
 4425TIP3    H113152   7.013   3.666   2.119
 4425TIP3    H213153   7.000   3.552   2.022
 4426TIP3   OH213154   7.015   4.445   2.207
 4426TIP3    H113155   6.988   4.527   2.162
 4426TIP3    H213156   6.936   4.431   2.264
 4427TIP3   OH213157   6.412   4.136   1.442
 4427TIP3    H113158   6.370   4.164   1.359
 4427TIP3    H213159   6.441   4.222   1.480
 4428TIP3   OH213160   7.855   4.653   1.684
 4428TIP3    H113161   7.766   4.641   1.725
 4428TIP3    H213162   7.840   4.736   1.635
 4429TIP3   OH213163   8.140   3.556   2.045
 4429TIP3    H113164   8.051   3.582   2.017
 4429TIP3    H213165   8.195   3.586   1.970
 4430TIP3   OH213166   7.442   3.199   2.028
 4430TIP3    H113167   7.426   3.104   2.042
 4430TIP3    H213168   7.363   3.237   2.072
 4431TIP3   OH213169   7.593   4.708   1.388
 4431TIP3    H113170   7.614   4.622   1.346
 4431TIP3    H213171   7.625   4.770   1.319
 4432TIP3   OH213172   7.693   4.482   1.257
 4432TIP3    H113173   7.657   4.403   1.217
 4432TIP3    H213174   7.729   4.448   1.342
 4433TIP3   OH213175   8.078   4.568   2.023
 4433TIP3    H113176   8.064   4.489   1.966
 4433TIP3    H213177   8.058   4.641   1.962
 4434TIP3   OH213178   7.361   3.945   1.275
 4434TIP3    H113179   7.285   4.006   1.260
 4434TIP3    H213180   7.413   3.959   1.194
 4435TIP3   OH213181   7.325   3.744   0.997
 4435TIP3    H113182   7.388   3.792   1.053
 4435TIP3    H213183   7.384   3.681   0.952
 4436TIP3   OH213184   8.273   4.204   1.870
 4436TIP3    H113185   8.189   4.254   1.877
 4436TIP3    H213186   8.299   4.227   1.778
 4437TIP3   OH213187   7.718   4.042   1.250
 4437TIP3    H113188   7.658   4.071   1.324
 4437TIP3    H213189   7.797   4.017   1.300
 4438TIP3   OH213190   7.953   4.083   2.162
 4438TIP3    H113191   7.947   4.168   2.210
 4438TIP3    H213192   7.864   4.082   2.120
 4439TIP3   OH213193   6.924   4.022   1.686
 4439TIP3    H113194   6.903   3.980   1.601
 4439TIP3    H213195   7.019   4.001   1.695
 4440TIP3   OH213196   7.072   4.449   1.815
 4440TIP3    H113197   7.052   4.411   1.727
 4440TIP3    H213198   7.162   4.413   1.829
 4441TIP3   OH213199   7.086   4.010   2.026
 4441TIP3    H113200   7.114   3.993   1.933
 4441TIP3    H213201   7.127   4.097   2.044
 4442TIP3   OH213202   7.616   4.649   1.804
 4442TIP3    H113203   7.594   4.726   1.858
 4442TIP3    H213204   7.597   4.573   1.863
 4443TIP3   OH213205   7.221   4.567   2.349
 4443TIP3    H113206   7.161   4.631   2.394
 4443TIP3    H213207   7.155   4.515   2.299
 4444TIP3   OH213208   7.562   3.896   1.080
 4444TIP3    H113209   7.618   3.957   1.132
 4444TIP3    H213210   7.585   3.922   0.988
 4445TIP3   OH213211   6.976   4.123   2.451
 4445TIP3    H113212   6.979   4.211   2.494
 4445TIP3    H213213   6.879   4.107   2.454
 4446TIP3   OH213214   7.319   4.639   1.310
 4446TIP3    H113215   7.347   4.593   1.391
 4446TIP3    H213216   7.224   4.646   1.322
 4447TIP3   OH213217   7.016   4.738   2.435
 4447TIP3    H113218   6.981   4.734   2.344
 4447TIP3    H213219   6.937   4.716   2.488
 4448TIP3   OH213220   8.071   3.141   1.128
 4448TIP3    H113221   7.990   3.160   1.179
 4448TIP3    H213222   8.083   3.225   1.079
 4449TIP3   OH213223   6.818   3.877   1.461
 4449TIP3    H113224   6.749   3.926   1.411
 4449TIP3    H213225   6.769   3.799   1.490
 4450TIP3   OH213226   7.864   4.507   0.675
 4450TIP3    H113227   7.873   4.604   0.661
 4450TIP3    H213228   7.957   4.479   0.662
 4451TIP3   OH213229   6.594   4.266   2.382
 4451TIP3    H113230   6.531   4.244   2.312
 4451TIP3    H213231   6.631   4.179   2.407
 4452TIP3   OH213232   6.449   4.457   2.019
 4452TIP3    H113233   6.544   4.453   2.005
 4452TIP3    H213234   6.440   4.539   2.069
 4453TIP3   OH213235   8.315   4.909   2.068
 4453TIP3    H113236   8.312   4.813   2.084
 4453TIP3    H213237   8.232   4.936   2.114
 4454TIP3   OH213238   7.421   4.696   2.206
 4454TIP3    H113239   7.420   4.789   2.237
 4454TIP3    H213240   7.348   4.658   2.260
 4455TIP3   OH213241   7.168   4.837   1.146
 4455TIP3    H113242   7.124   4.818   1.062
 4455TIP3    H213243   7.139   4.928   1.169
 4456TIP3   OH213244   6.618   4.676   1.540
 4456TIP3    H113245   6.667   4.665   1.624
 4456TIP3    H213246   6.557   4.600   1.547
 4457TIP3   OH213247   7.385   4.730   0.802
 4457TIP3    H113248   7.443   4.658   0.769
 4457TIP3    H213249   7.414   4.736   0.896
 4458TIP3   OH213250   7.425   4.774   1.074
 4458TIP3    H113251   7.336   4.785   1.115
 4458TIP3    H213252   7.463   4.717   1.143
 4459TIP3   OH213253   8.206   4.044   2.342
 4459TIP3    H113254   8.123   4.061   2.295
 4459TIP3    H213255   8.215   3.948   2.332
 4460TIP3   OH213256   6.800   4.449   2.374
 4460TIP3    H113257   6.850   4.432   2.456
 4460TIP3    H213258   6.725   4.386   2.380
 4461TIP3   OH213259   7.200   3.273   2.153
 4461TIP3    H113260   7.110   3.242   2.129
 4461TIP3    H213261   7.176   3.357   2.197
 4462TIP3   OH213262   7.731   3.389   2.349
 4462TIP3    H113263   7.796   3.362   2.416
 4462TIP3    H213264   7.645   3.369   2.392
 4463TIP3   OH213265   7.980   3.822   2.272
 4463TIP3    H113266   7.926   3.815   2.354
 4463TIP3    H213267   7.948   3.905   2.232
 4464TIP3   OH213268   7.632   3.946   0.822
 4464TIP3    H113269   7.601   3.920   0.733
 4464TIP3    H213270   7.702   4.010   0.801
 4465TIP3   OH213271   7.347   3.322   1.125
 4465TIP3    H113272   7.313   3.322   1.217
 4465TIP3    H213273   7.306   3.239   1.092
 4466TIP3   OH213274   7.132   3.787   2.173
 4466TIP3    H113275   7.080   3.810   2.253
 4466TIP3    H213276   7.117   3.868   2.118
 4467TIP3   OH213277   7.017   3.671   1.687
 4467TIP3    H113278   6.923   3.651   1.704
 4467TIP3    H213279   7.028   3.632   1.598
 4468TIP3   OH213280   7.506   3.761   1.414
 4468TIP3    H113281   7.447   3.829   1.375
 4468TIP3    H213282   7.558   3.733   1.337
 4469TIP3   OH213283   7.679   4.040   2.501
 4469TIP3    H113284   7.656   3.968   2.564
 4469TIP3    H213285   7.773   4.056   2.524
 4470TIP3   OH213286   7.665   3.791   1.656
 4470TIP3    H113287   7.604   3.825   1.588
 4470TIP3    H213288   7.693   3.708   1.612
 4471TIP3   OH213289   6.951   3.818   2.382
 4471TIP3    H113290   6.973   3.884   2.450
 4471TIP3    H213291   6.939   3.737   2.435
 4472TIP3   OH213292   7.001   3.295   1.092
 4472TIP3    H113293   6.992   3.292   1.189
 4472TIP3    H213294   6.921   3.346   1.068
 4473TIP3   OH213295   6.542   3.341   1.963
 4473TIP3    H113296   6.619   3.372   2.015
 4473TIP3    H213297   6.581   3.309   1.881
 4474TIP3   OH213298   6.520   3.322   1.482
 4474TIP3    H113299   6.564   3.362   1.404
 4474TIP3    H213300   6.458   3.394   1.504
 4475TIP3   OH213301   7.684   4.038   2.086
 4475TIP3    H113302   7.709   3.967   2.022
 4475TIP3    H213303   7.647   3.983   2.159
 4476TIP3   OH213304   7.340   3.491   1.750
 4476TIP3    H113305   7.255   3.494   1.798
 4476TIP3    H213306   7.403   3.506   1.822
 4477TIP3   OH213307   6.775   3.552   1.759
 4477TIP3    H113308   6.681   3.560   1.732
 4477TIP3    H213309   6.798   3.461   1.733
 4478TIP3   OH213310   7.049   3.547   1.443
 4478TIP3    H113311   7.142   3.568   1.421
 4478TIP3    H213312   7.000   3.573   1.362
 4479TIP3   OH213313   7.835   3.569   1.948
 4479TIP3    H113314   7.801   3.583   2.039
 4479TIP3    H213315   7.766   3.509   1.913
 4480TIP3   OH213316   6.885   3.579   1.225
 4480TIP3    H113317   6.811   3.538   1.177
 4480TIP3    H213318   6.936   3.616   1.150
 4481TIP3   OH213319   8.003   5.261   2.169
 4481TIP3    H113320   8.003   5.287   2.076
 4481TIP3    H213321   8.080   5.309   2.204
 4482TIP3   OH213322   6.961   4.370   2.592
 4482TIP3    H113323   7.040   4.402   2.639
 4482TIP3    H213324   6.896   4.372   2.665
 4483TIP3   OH213325   7.422   3.813   1.847
 4483TIP3    H113326   7.501   3.788   1.797
 4483TIP3    H213327   7.440   3.779   1.936
 4484TIP3   OH213328   6.951   3.313   1.723
 4484TIP3    H113329   6.917   3.232   1.767
 4484TIP3    H213330   7.000   3.277   1.647
 4485TIP3   OH213331   7.402   3.717   2.140
 4485TIP3    H113332   7.313   3.755   2.149
 4485TIP3    H213333   7.458   3.781   2.189
 4486TIP3   OH213334   7.145   4.116   1.231
 4486TIP3    H113335   7.069   4.053   1.230
 4486TIP3    H213336   7.144   4.151   1.322
 4487TIP3   OH213337   8.041   4.347   1.862
 4487TIP3    H113338   8.061   4.397   1.780
 4487TIP3    H213339   7.954   4.306   1.841
 4488TIP3   OH213340   7.597   3.427   1.087
 4488TIP3    H113341   7.500   3.410   1.098
 4488TIP3    H213342   7.607   3.520   1.114
 4489TIP3   OH213343   7.548   4.434   2.228
 4489TIP3    H113344   7.554   4.407   2.320
 4489TIP3    H213345   7.498   4.518   2.233
 4490TIP3   OH213346   7.668   3.669   1.194
 4490TIP3    H113347   7.764   3.679   1.211
 4490TIP3    H213348   7.646   3.750   1.143
 4491TIP3   OH213349   6.826   4.133   1.914
 4491TIP3    H113350   6.859   4.106   1.825
 4491TIP3    H213351   6.870   4.067   1.970
 4492TIP3   OH213352   7.282   4.260   1.035
 4492TIP3    H113353   7.243   4.348   1.054
 4492TIP3    H213354   7.242   4.207   1.107
 4493TIP3   OH213355   6.709   4.055   2.520
 4493TIP3    H113356   6.731   4.042   2.614
 4493TIP3    H213357   6.640   3.988   2.506
 4494TIP3   OH213358   7.435   4.167   2.541
 4494TIP3    H113359   7.376   4.111   2.488
 4494TIP3    H213360   7.522   4.135   2.511
 4495TIP3   OH213361   7.702   4.697   2.119
 4495TIP3    H113362   7.606   4.687   2.132
 4495TIP3    H213363   7.727   4.744   2.202
 4496TIP3   OH213364   8.113   3.759   1.031
 4496TIP3    H113365   8.049   3.714   0.970
 4496TIP3    H213366   8.107   3.848   0.991
 4497TIP3   OH213367   8.327   4.617   2.114
 4497TIP3    H113368   8.229   4.614   2.106
 4497TIP3    H213369   8.352   4.588   2.023
 4498TIP3   OH213370   7.815   4.579   0.943
 4498TIP3    H113371   7.780   4.510   1.001
 4498TIP3    H213372   7.821   4.535   0.856
 4499TIP3   OH213373   7.811   4.209   1.784
 4499TIP3    H113374   7.718   4.181   1.798
 4499TIP3    H213375   7.843   4.132   1.734
 4500TIP3   OH213376   6.912   4.449   1.559
 4500TIP3    H113377   6.941   4.506   1.487
 4500TIP3    H213378   6.824   4.423   1.532
 4501TIP3   OH213379   6.493   3.743   1.233
 4501TIP3    H113380   6.540   3.826   1.254
 4501TIP3    H213381   6.416   3.749   1.294
 4502TIP3   OH213382   7.199   4.782   2.004
 4502TIP3    H113383   7.239   4.854   1.951
 4502TIP3    H213384   7.276   4.747   2.051
 4503TIP3   OH213385   6.848   4.680   1.376
 4503TIP3    H113386   6.766   4.683   1.429
 4503TIP3    H213387   6.879   4.772   1.384
 4504TIP3   OH213388   7.595   4.416   1.958
 4504TIP3    H113389   7.584   4.415   2.056
 4504TIP3    H213390   7.669   4.356   1.945
 4505TIP3   OH213391   7.558   4.303   0.843
 4505TIP3    H113392   7.612   4.282   0.923
 4505TIP3    H213393   7.469   4.284   0.876
 4506TIP3   OH213394   7.839   4.950   2.011
 4506TIP3    H113395   7.762   4.890   2.007
 4506TIP3    H213396   7.819   5.013   1.940
 4507TIP3   OH213397   7.902   4.782   0.681
 4507TIP3    H113398   7.923   4.809   0.589
 4507TIP3    H213399   7.825   4.838   0.704
 4508TIP3   OH213400   6.924   3.560   2.530
 4508TIP3    H113401   6.828   3.566   2.544
 4508TIP3    H213402   6.950   3.498   2.600
 4509TIP3   OH213403   7.723   4.242   1.057
 4509TIP3    H113404   7.712   4.176   1.128
 4509TIP3    H213405   7.820   4.241   1.047
 4510TIP3   OH213406   6.638   4.647   2.162
 4510TIP3    H113407   6.691   4.569   2.187
 4510TIP3    H213408   6.669   4.712   2.226
 4511TIP3   OH213409   6.929   4.289   0.840
 4511TIP3    H113410   6.945   4.197   0.814
 4511TIP3    H213411   6.913   4.278   0.936
 4512TIP3   OH213412   6.876   4.294   1.112
 4512TIP3    H113413   6.949   4.268   1.171
 4512TIP3    H213414   6.879   4.392   1.120
 4513TIP3   OH213415   6.611   3.989   1.316
 4513TIP3    H113416   6.546   4.033   1.375
 4513TIP3    H213417   6.627   4.059   1.251
 4514TIP3   OH213418   7.762   3.623   2.206
 4514TIP3    H113419   7.837   3.661   2.254
 4514TIP3    H213420   7.742   3.543   2.260
 4515TIP3   OH213421   7.642   3.376   1.370
 4515TIP3    H113422   7.624   3.403   1.278
 4515TIP3    H213423   7.677   3.459   1.408
 4516TIP3   OH213424   7.136   4.492   1.057
 4516TIP3    H113425   7.051   4.520   1.096
 4516TIP3    H213426   7.161   4.572   1.009
 4517TIP3   OH213427   7.335   3.552   1.475
 4517TIP3    H113428   7.396   3.627   1.458
 4517TIP3    H213429   7.334   3.549   1.573
 4518TIP3   OH213430   7.596   3.874   2.286
 4518TIP3    H113431   7.613   3.932   2.362
 4518TIP3    H213432   7.653   3.798   2.304
 4519TIP3   OH213433   7.477   3.287   1.582
 4519TIP3    H113434   7.460   3.366   1.637
 4519TIP3    H213435   7.535   3.325   1.512
 4520TIP3   OH213436   6.879   4.567   1.128
 4520TIP3    H113437   6.851   4.637   1.066
 4520TIP3    H213438   6.864   4.611   1.215
 4521TIP3   OH213439   6.985   3.279   1.369
 4521TIP3    H113440   6.982   3.371   1.403
 4521TIP3    H213441   7.081   3.262   1.377
 4522TIP3   OH213442   8.244   3.771   2.260
 4522TIP3    H113443   8.147   3.774   2.275
 4522TIP3    H213444   8.244   3.732   2.171
 4523TIP3   OH213445   7.892   3.967   1.650
 4523TIP3    H113446   7.812   3.914   1.666
 4523TIP3    H213447   7.960   3.919   1.701
 4524TIP3   OH213448   6.601   4.201   1.123
 4524TIP3    H113449   6.664   4.274   1.134
 4524TIP3    H213450   6.649   4.148   1.056
 4525TIP3   OH213451   6.548   3.473   1.254
 4525TIP3    H113452   6.546   3.571   1.250
 4525TIP3    H213453   6.463   3.449   1.217
 4526TIP3   OH213454   7.858   4.930   1.607
 4526TIP3    H113455   7.811   4.972   1.532
 4526TIP3    H213456   7.950   4.949   1.582
 4527TIP3   OH213457   6.936   3.193   2.131
 4527TIP3    H113458   6.903   3.161   2.044
 4527TIP3    H213459   6.924   3.115   2.188
 4528TIP3   OH213460   6.475   4.411   1.514
 4528TIP3    H113461   6.398   4.445   1.563
 4528TIP3    H213462   6.458   4.451   1.426
 4529TIP3   OH213463   6.628   4.950   2.581
 4529TIP3    H113464   6.714   4.949   2.629
 4529TIP3    H213465   6.607   4.855   2.580
 4530TIP3   OH213466   7.114   4.921   2.625
 4530TIP3    H113467   7.208   4.899   2.634
 4530TIP3    H213468   7.088   4.862   2.551
 4531TIP3   OH213469   7.091   4.493   0.754
 4531TIP3    H113470   7.034   4.427   0.798
 4531TIP3    H213471   7.168   4.438   0.734
 4532TIP3   OH213472   7.753   4.823   2.358
 4532TIP3    H113473   7.742   4.754   2.427
 4532TIP3    H213474   7.829   4.874   2.392
 4533TIP3   OH213475   7.529   4.535   0.672
 4533TIP3    H113476   7.575   4.472   0.729
 4533TIP3    H213477   7.584   4.536   0.591
 4534TIP3   OH213478   6.760   4.358   2.783
 4534TIP3    H113479   6.777   4.262   2.784
 4534TIP3    H213480   6.672   4.362   2.739
 4535TIP3   OH213481   6.738   4.012   0.974
 4535TIP3    H113482   6.791   3.978   1.048
 4535TIP3    H213483   6.807   4.016   0.904
 4536TIP3   OH213484   7.370   4.443   2.555
 4536TIP3    H113485   7.325   4.458   2.469
 4536TIP3    H213486   7.399   4.349   2.548
 4537TIP3   OH213487   7.241   4.208   0.772
 4537TIP3    H113488   7.245   4.225   0.869
 4537TIP3    H213489   7.239   4.110   0.773
 4538TIP3   OH213490   7.864   4.448   2.163
 4538TIP3    H113491   7.932   4.501   2.117
 4538TIP3    H213492   7.785   4.504   2.152
 4539TIP3   OH213493   6.877   4.090   2.764
 4539TIP3    H113494   6.954   4.035   2.744
 4539TIP3    H213495   6.902   4.125   2.853
 4540TIP3   OH213496   6.946   3.914   1.200
 4540TIP3    H113497   6.916   3.875   1.284
 4540TIP3    H213498   6.980   3.836   1.151
 4541TIP3   OH213499   7.215   3.978   2.427
 4541TIP3    H113500   7.137   4.037   2.431
 4541TIP3    H213501   7.260   4.011   2.346
 4542TIP3   OH213502   7.044   3.704   1.039
 4542TIP3    H113503   7.017   3.707   0.945
 4542TIP3    H213504   7.141   3.714   1.031
 4543TIP3   OH213505   7.729   4.379   2.561
 4543TIP3    H113506   7.810   4.360   2.513
 4543TIP3    H213507   7.729   4.312   2.631
 4544TIP3   OH213508   7.880   4.040   0.688
 4544TIP3    H113509   7.839   3.987   0.618
 4544TIP3    H213510   7.841   4.129   0.670
 4545TIP3   OH213511   7.339   3.765   2.552
 4545TIP3    H113512   7.336   3.685   2.497
 4545TIP3    H213513   7.295   3.832   2.495
 4546TIP3   OH213514   7.340   3.549   2.359
 4546TIP3    H113515   7.366   3.594   2.275
 4546TIP3    H213516   7.246   3.528   2.341
 4547TIP3   OH213517   7.372   4.091   2.233
 4547TIP3    H113518   7.451   4.099   2.177
 4547TIP3    H213519   7.312   4.156   2.191
 4548TIP3   OH213520   7.950   4.056   2.614
 4548TIP3    H113521   8.001   3.975   2.625
 4548TIP3    H213522   8.016   4.119   2.582
 4549TIP3   OH213523   7.993   4.306   2.351
 4549TIP3    H113524   7.933   4.358   2.292
 4549TIP3    H213525   8.079   4.327   2.308
 4550TIP3   OH213526   7.216   3.880   2.781
 4550TIP3    H113527   7.146   3.813   2.794
 4550TIP3    H213528   7.250   3.856   2.693
 4551TIP3   OH213529   7.473   3.316   2.424
 4551TIP3    H113530   7.424   3.399   2.402
 4551TIP3    H213531   7.402   3.249   2.412
 4552TIP3   OH213532   7.600   3.821   2.641
 4552TIP3    H113533   7.586   3.812   2.737
 4552TIP3    H213534   7.509   3.797   2.611
 4553TIP3   OH213535   7.837   3.765   2.495
 4553TIP3    H113536   7.760   3.772   2.555
 4553TIP3    H213537   7.908   3.737   2.556
 4554TIP3   OH213538   8.076   3.710   2.648
 4554TIP3    H113539   8.079   3.615   2.670
 4554TIP3    H213540   8.064   3.752   2.737
 4555TIP3   OH213541   7.054   3.661   2.833
 4555TIP3    H113542   7.062   3.570   2.797
 4555TIP3    H213543   7.089   3.647   2.923
 4556TIP3   OH213544   7.568   3.326   2.681
 4556TIP3    H113545   7.635   3.254   2.674
 4556TIP3    H213546   7.527   3.320   2.593
 4557TIP3   OH213547   7.633   3.541   2.842
 4557TIP3    H113548   7.609   3.471   2.777
 4557TIP3    H213549   7.556   3.601   2.836
 4558TIP3   OH213550   6.852   4.769   0.941
 4558TIP3    H113551   6.947   4.767   0.922
 4558TIP3    H213552   6.821   4.819   0.863
 4559TIP3   OH213553   6.333   4.151   1.159
 4559TIP3    H113554   6.428   4.174   1.146
 4559TIP3    H213555   6.328   4.062   1.118
 4560TIP3   OH213556   6.246   4.764   1.570
 4560TIP3    H113557   6.178   4.701   1.537
 4560TIP3    H213558   6.290   4.708   1.638
 4561TIP3   OH213559   6.383   4.619   1.758
 4561TIP3    H113560   6.373   4.543   1.817
 4561TIP3    H213561   6.433   4.679   1.816
 4562TIP3   OH213562   8.107   5.029   1.554
 4562TIP3    H113563   8.138   5.047   1.645
 4562TIP3    H213564   8.183   5.056   1.500
 4563TIP3   OH213565   8.144   5.035   1.836
 4563TIP3    H113566   8.097   4.949   1.836
 4563TIP3    H213567   8.215   5.015   1.898
 4564TIP3   OH213568   8.188   4.711   2.413
 4564TIP3    H113569   8.113   4.720   2.476
 4564TIP3    H213570   8.227   4.801   2.417
 4565TIP3   OH213571   8.004   4.224   1.033
 4565TIP3    H113572   8.072   4.290   1.008
 4565TIP3    H213573   8.044   4.185   1.114
 4566TIP3   OH213574   8.132   4.093   1.237
 4566TIP3    H113575   8.064   4.050   1.294
 4566TIP3    H213576   8.189   4.136   1.303
 4567TIP3   OH213577   8.187   4.486   1.673
 4567TIP3    H113578   8.236   4.423   1.617
 4567TIP3    H213579   8.166   4.557   1.610
 4568TIP3   OH213580   8.017   4.787   1.865
 4568TIP3    H113581   7.946   4.826   1.919
 4568TIP3    H213582   7.965   4.738   1.797
 4569TIP3   OH213583   8.070   4.001   0.884
 4569TIP3    H113584   7.999   4.005   0.816
 4569TIP3    H213585   8.043   4.076   0.940
 4570TIP3   OH213586   7.943   3.674   0.838
 4570TIP3    H113587   7.896   3.713   0.764
 4570TIP3    H213588   7.915   3.580   0.829
 4571TIP3   OH213589   7.949   3.948   1.384
 4571TIP3    H113590   7.951   3.851   1.381
 4571TIP3    H213591   7.932   3.965   1.479
 4572TIP3   OH213592   6.572   4.021   2.130
 4572TIP3    H113593   6.571   3.994   2.036
 4572TIP3    H213594   6.669   4.025   2.147
 4573TIP3   OH213595   8.232   4.374   2.239
 4573TIP3    H113596   8.307   4.311   2.230
 4573TIP3    H213597   8.258   4.446   2.180
 4574TIP3   OH213598   8.421   4.183   2.257
 4574TIP3    H113599   8.343   4.136   2.296
 4574TIP3    H213600   8.490   4.116   2.275
 4575TIP3   OH213601   7.882   3.409   0.829
 4575TIP3    H113602   7.956   3.376   0.884
 4575TIP3    H213603   7.808   3.351   0.852
 4576TIP3   OH213604   7.941   3.665   1.282
 4576TIP3    H113605   7.981   3.576   1.297
 4576TIP3    H213606   7.999   3.698   1.211
 4577TIP3   OH213607   8.105   3.838   1.775
 4577TIP3    H113608   8.190   3.867   1.736
 4577TIP3    H213609   8.114   3.877   1.864
 4578TIP3   OH213610   8.171   3.983   2.007
 4578TIP3    H113611   8.092   4.015   2.056
 4578TIP3    H213612   8.201   4.065   1.962
 4579TIP3   OH213613   6.786   3.710   2.804
 4579TIP3    H113614   6.884   3.704   2.805
 4579TIP3    H213615   6.763   3.626   2.848
 4580TIP3   OH213616   8.636   3.581   2.564
 4580TIP3    H113617   8.682   3.507   2.519
 4580TIP3    H213618   8.595   3.629   2.488
 4581TIP3   OH213619   8.052   3.414   1.316
 4581TIP3    H113620   8.097   3.399   1.401
 4581TIP3    H213621   7.989   3.339   1.315
 4582TIP3   OH213622   6.750   3.401   2.137
 4582TIP3    H113623   6.813   3.327   2.147
 4582TIP3    H213624   6.811   3.477   2.131
 4583TIP3   OH213625   6.554   3.676   2.211
 4583TIP3    H113626   6.602   3.668   2.126
 4583TIP3    H213627   6.581   3.765   2.239
 4584TIP3   OH213628   8.497   3.715   2.373
 4584TIP3    H113629   8.410   3.754   2.398
 4584TIP3    H213630   8.466   3.647   2.310
 4585TIP3   OH213631   8.133   3.351   0.951
 4585TIP3    H113632   8.171   3.279   0.896
 4585TIP3    H213633   8.198   3.423   0.938
 4586TIP3   OH213634   6.535   3.182   1.712
 4586TIP3    H113635   6.441   3.178   1.735
 4586TIP3    H213636   6.534   3.239   1.632
 4587TIP3   OH213637   7.695   4.889   1.213
 4587TIP3    H113638   7.738   4.861   1.130
 4587TIP3    H213639   7.763   4.945   1.252
 4588TIP3   OH213640   6.756   3.259   2.526
 4588TIP3    H113641   6.705   3.254   2.608
 4588TIP3    H213642   6.689   3.298   2.465
 4589TIP3   OH213643   6.797   4.683   2.603
 4589TIP3    H113644   6.705   4.657   2.585
 4589TIP3    H213645   6.803   4.668   2.699
 4590TIP3   OH213646   6.972   4.717   2.151
 4590TIP3    H113647   6.923   4.792   2.111
 4590TIP3    H213648   7.058   4.731   2.106
 4591TIP3   OH213649   7.421   4.963   2.286
 4591TIP3    H113650   7.462   4.964   2.376
 4591TIP3    H213651   7.487   5.015   2.235
 4592TIP3   OH213652   7.600   5.115   2.143
 4592TIP3    H113653   7.671   5.059   2.108
 4592TIP3    H213654   7.650   5.172   2.206
 4593TIP3   OH213655   8.392   3.479   2.246
 4593TIP3    H113656   8.301   3.478   2.213
 4593TIP3    H213657   8.419   3.385   2.233
 4594TIP3   OH213658   6.652   4.977   2.171
 4594TIP3    H113659   6.563   5.010   2.147
 4594TIP3    H213660   6.657   5.007   2.263
 4595TIP3   OH213661   6.888   4.956   2.030
 4595TIP3    H113662   6.802   4.968   2.076
 4595TIP3    H213663   6.866   4.987   1.940
 4596TIP3   OH213664   7.314   4.984   1.827
 4596TIP3    H113665   7.244   5.004   1.762
 4596TIP3    H213666   7.324   5.072   1.871
 4597TIP3   OH213667   7.580   4.927   1.879
 4597TIP3    H113668   7.484   4.934   1.860
 4597TIP3    H213669   7.613   5.007   1.836
 4598TIP3   OH213670   7.801   5.125   1.796
 4598TIP3    H113671   7.766   5.195   1.740
 4598TIP3    H213672   7.820   5.054   1.730
 4599TIP3   OH213673   6.561   4.770   1.919
 4599TIP3    H113674   6.588   4.745   2.010
 4599TIP3    H213675   6.634   4.726   1.868
 4600TIP3   OH213676   6.754   4.642   1.775
 4600TIP3    H113677   6.771   4.555   1.816
 4600TIP3    H213678   6.845   4.677   1.765
 4601TIP3   OH213679   7.023   4.739   1.771
 4601TIP3    H113680   7.049   4.646   1.755
 4601TIP3    H213681   7.063   4.752   1.859
 4602TIP3   OH213682   7.604   3.394   1.871
 4602TIP3    H113683   7.553   3.327   1.920
 4602TIP3    H213684   7.665   3.340   1.818
 4603TIP3   OH213685   8.125   3.272   1.772
 4603TIP3    H113686   8.159   3.325   1.697
 4603TIP3    H213687   8.029   3.288   1.765
 4604TIP3   OH213688   8.217   3.374   1.535
 4604TIP3    H113689   8.290   3.324   1.492
 4604TIP3    H213690   8.248   3.466   1.520
 4605TIP3   OH213691   6.847   3.101   1.883
 4605TIP3    H113692   6.754   3.068   1.882
 4605TIP3    H213693   6.895   3.016   1.879
 4606TIP3   OH213694   6.634   2.970   1.528
 4606TIP3    H113695   6.662   3.028   1.456
 4606TIP3    H213696   6.602   3.034   1.595
 4607TIP3   OH213697   7.290   3.132   1.760
 4607TIP3    H113698   7.349   3.187   1.705
 4607TIP3    H213699   7.302   3.172   1.847
 4608TIP3   OH213700   7.847   3.278   1.745
 4608TIP3    H113701   7.828   3.247   1.655
 4608TIP3    H213702   7.827   3.198   1.799
 4609TIP3   OH213703   7.867   3.201   1.307
 4609TIP3    H113704   7.780   3.246   1.317
 4609TIP3    H213705   7.850   3.117   1.355
 4610TIP3   OH213706   6.350   4.538   1.310
 4610TIP3    H113707   6.265   4.507   1.275
 4610TIP3    H213708   6.338   4.634   1.297
 4611TIP3   OH213709   6.747   3.131   1.293
 4611TIP3    H113710   6.797   3.069   1.237
 4611TIP3    H213711   6.820   3.185   1.330
 4612TIP3   OH213712   7.263   3.303   1.391
 4612TIP3    H113713   7.321   3.257   1.453
 4612TIP3    H213714   7.283   3.396   1.416
 4613TIP3   OH213715   7.120   4.733   0.887
 4613TIP3    H113716   7.210   4.755   0.854
 4613TIP3    H213717   7.100   4.656   0.830
 4614TIP3   OH213718   7.844   4.845   0.986
 4614TIP3    H113719   7.838   4.747   0.973
 4614TIP3    H213720   7.794   4.875   0.907
 4615TIP3   OH213721   7.054   3.382   2.773
 4615TIP3    H113722   7.021   3.311   2.831
 4615TIP3    H213723   7.148   3.384   2.799
 4616TIP3   OH213724   7.302   3.379   2.892
 4616TIP3    H113725   7.387   3.353   2.852
 4616TIP3    H213726   7.289   3.309   2.958
 4617TIP3   OH213727   6.425   4.568   0.950
 4617TIP3    H113728   6.423   4.597   1.042
 4617TIP3    H213729   6.515   4.528   0.942
 4618TIP3   OH213730   8.126   3.437   2.680
 4618TIP3    H113731   8.146   3.409   2.772
 4618TIP3    H213732   8.214   3.433   2.638
 4619TIP3   OH213733   8.071   4.994   2.168
 4619TIP3    H113734   7.989   4.960   2.126
 4619TIP3    H213735   8.048   5.089   2.175
 4620TIP3   OH213736   8.638   4.260   1.675
 4620TIP3    H113737   8.667   4.193   1.739
 4620TIP3    H213738   8.705   4.328   1.687
 4621TIP3   OH213739   8.595   4.670   1.415
 4621TIP3    H113740   8.592   4.572   1.417
 4621TIP3    H213741   8.691   4.684   1.405
 4622TIP3   OH213742   8.310   3.877   1.196
 4622TIP3    H113743   8.257   3.958   1.210
 4622TIP3    H213744   8.240   3.818   1.162
 4623TIP3   OH213745   8.374   4.165   1.365
 4623TIP3    H113746   8.419   4.086   1.403
 4623TIP3    H213747   8.423   4.178   1.283
 4624TIP3   OH213748   9.118   5.070   1.028
 4624TIP3    H113749   9.198   5.086   0.975
 4624TIP3    H213750   9.155   5.076   1.117
 4625TIP3   OH213751   9.081   4.603   1.366
 4625TIP3    H113752   9.091   4.537   1.297
 4625TIP3    H213753   9.176   4.613   1.392
 4626TIP3   OH213754   8.862   3.755   1.376
 4626TIP3    H113755   8.863   3.819   1.303
 4626TIP3    H213756   8.832   3.675   1.328
 4627TIP3   OH213757   8.514   3.955   1.471
 4627TIP3    H113758   8.595   3.932   1.521
 4627TIP3    H213759   8.525   3.897   1.393
 4628TIP3   OH213760   8.917   4.169   1.247
 4628TIP3    H113761   9.011   4.148   1.267
 4628TIP3    H213762   8.883   4.080   1.222
 4629TIP3   OH213763   8.871   3.735   1.806
 4629TIP3    H113764   8.813   3.769   1.735
 4629TIP3    H213765   8.819   3.757   1.885
 4630TIP3   OH213766   8.958   4.518   1.593
 4630TIP3    H113767   8.900   4.585   1.635
 4630TIP3    H213768   9.004   4.571   1.525
 4631TIP3   OH213769   8.740   3.851   1.592
 4631TIP3    H113770   8.806   3.921   1.611
 4631TIP3    H213771   8.784   3.808   1.515
 4632TIP3   OH213772   8.803   4.709   1.695
 4632TIP3    H113773   8.779   4.797   1.657
 4632TIP3    H213774   8.725   4.694   1.753
 4633TIP3   OH213775   8.211   4.392   0.931
 4633TIP3    H113776   8.162   4.413   0.849
 4633TIP3    H213777   8.235   4.480   0.965
 4634TIP3   OH213778   8.721   4.315   1.139
 4634TIP3    H113779   8.682   4.252   1.075
 4634TIP3    H213780   8.795   4.261   1.176
 4635TIP3   OH213781   8.847   4.724   1.295
 4635TIP3    H113782   8.830   4.672   1.215
 4635TIP3    H213783   8.933   4.687   1.326
 4636TIP3   OH213784   8.907   4.263   1.512
 4636TIP3    H113785   8.903   4.257   1.415
 4636TIP3    H213786   8.913   4.360   1.528
 4637TIP3   OH213787   9.014   4.824   1.838
 4637TIP3    H113788   8.955   4.888   1.885
 4637TIP3    H213789   8.947   4.773   1.788
 4638TIP3   OH213790   8.765   4.382   1.935
 4638TIP3    H113791   8.771   4.470   1.979
 4638TIP3    H213792   8.670   4.364   1.947
 4639TIP3   OH213793   9.082   4.863   0.849
 4639TIP3    H113794   9.109   4.918   0.925
 4639TIP3    H213795   9.001   4.909   0.825
 4640TIP3   OH213796   8.811   4.992   1.921
 4640TIP3    H113797   8.774   4.990   1.831
 4640TIP3    H213798   8.733   4.973   1.977
 4641TIP3   OH213799   8.611   4.134   0.956
 4641TIP3    H113800   8.541   4.182   0.905
 4641TIP3    H213801   8.565   4.053   0.979
 4642TIP3   OH213802   8.392   4.521   1.868
 4642TIP3    H113803   8.323   4.503   1.801
 4642TIP3    H213804   8.425   4.432   1.891
 4643TIP3   OH213805   8.246   4.719   1.497
 4643TIP3    H113806   8.342   4.710   1.492
 4643TIP3    H213807   8.237   4.792   1.559
 4644TIP3   OH213808   9.199   4.956   1.684
 4644TIP3    H113809   9.209   5.046   1.722
 4644TIP3    H213810   9.135   4.916   1.746
 4645TIP3   OH213811   8.415   4.933   1.024
 4645TIP3    H113812   8.460   4.922   1.111
 4645TIP3    H213813   8.355   4.856   1.026
 4646TIP3   OH213814   8.593   4.706   1.862
 4646TIP3    H113815   8.642   4.692   1.945
 4646TIP3    H213816   8.520   4.642   1.869
 4647TIP3   OH213817   8.985   3.526   1.653
 4647TIP3    H113818   8.896   3.499   1.623
 4647TIP3    H213819   8.965   3.612   1.693
 4648TIP3   OH213820   8.929   4.035   1.654
 4648TIP3    H113821   8.879   4.057   1.736
 4648TIP3    H213822   8.919   4.119   1.603
 4649TIP3   OH213823   8.808   3.930   1.171
 4649TIP3    H113824   8.718   3.899   1.196
 4649TIP3    H213825   8.813   3.896   1.079
 4650TIP3   OH213826   8.749   4.073   1.865
 4650TIP3    H113827   8.759   4.140   1.934
 4650TIP3    H213828   8.732   3.992   1.917
 4651TIP3   OH213829   8.778   3.574   0.581
 4651TIP3    H113830   8.755   3.540   0.668
 4651TIP3    H213831   8.693   3.604   0.546
 4652TIP3   OH213832   8.338   3.599   1.448
 4652TIP3    H113833   8.414   3.628   1.502
 4652TIP3    H213834   8.379   3.563   1.368
 4653TIP3   OH213835   8.318   3.581   0.969
 4653TIP3    H113836   8.359   3.622   0.890
 4653TIP3    H213837   8.254   3.650   0.993
 4654TIP3   OH213838   8.572   3.811   1.242
 4654TIP3    H113839   8.476   3.816   1.218
 4654TIP3    H213840   8.594   3.718   1.224
 4655TIP3   OH213841   8.825   3.834   0.912
 4655TIP3    H113842   8.897   3.846   0.850
 4655TIP3    H213843   8.749   3.843   0.850
 4656TIP3   OH213844   8.659   3.846   0.703
 4656TIP3    H113845   8.591   3.796   0.655
 4656TIP3    H213846   8.724   3.862   0.632
 4657TIP3   OH213847   8.759   4.624   2.079
 4657TIP3    H113848   8.836   4.658   2.128
 4657TIP3    H213849   8.692   4.628   2.150
 4658TIP3   OH213850   8.744   3.571   1.203
 4658TIP3    H113851   8.710   3.494   1.255
 4658TIP3    H213852   8.801   3.528   1.139
 4659TIP3   OH213853   8.918   4.380   0.711
 4659TIP3    H113854   8.856   4.304   0.713
 4659TIP3    H213855   8.919   4.408   0.805
 4660TIP3   OH213856   9.281   4.685   1.732
 4660TIP3    H113857   9.323   4.672   1.819
 4660TIP3    H213858   9.264   4.781   1.732
 4661TIP3   OH213859   8.638   4.397   1.399
 4661TIP3    H113860   8.658   4.364   1.310
 4661TIP3    H213861   8.650   4.319   1.456
 4662TIP3   OH213862   8.508   4.305   2.004
 4662TIP3    H113863   8.519   4.296   2.101
 4662TIP3    H213864   8.433   4.246   1.987
 4663TIP3   OH213865   9.196   4.386   2.056
 4663TIP3    H113866   9.120   4.341   2.014
 4663TIP3    H213867   9.270   4.336   2.017
 4664TIP3   OH213868   8.727   4.690   1.013
 4664TIP3    H113869   8.725   4.775   0.965
 4664TIP3    H213870   8.632   4.673   1.024
 4665TIP3   OH213871   8.289   4.001   0.719
 4665TIP3    H113872   8.335   4.084   0.742
 4665TIP3    H213873   8.213   4.005   0.781
 4666TIP3   OH213874   8.894   4.472   0.980
 4666TIP3    H113875   8.842   4.556   0.982
 4666TIP3    H213876   8.838   4.416   1.038
 4667TIP3   OH213877   8.996   5.035   1.488
 4667TIP3    H113878   9.034   5.110   1.438
 4667TIP3    H213879   9.072   5.007   1.542
 4668TIP3   OH213880   8.653   4.931   0.876
 4668TIP3    H113881   8.566   4.940   0.919
 4668TIP3    H213882   8.683   5.025   0.878
 4669TIP3   OH213883   8.717   3.822   2.030
 4669TIP3    H113884   8.619   3.823   2.030
 4669TIP3    H213885   8.735   3.742   2.082
 4670TIP3   OH213886   8.435   4.903   1.649
 4670TIP3    H113887   8.485   4.826   1.679
 4670TIP3    H213888   8.461   4.969   1.714
 4671TIP3   OH213889   8.636   4.548   0.665
 4671TIP3    H113890   8.728   4.518   0.672
 4671TIP3    H213891   8.648   4.643   0.644
 4672TIP3   OH213892   8.408   4.244   0.811
 4672TIP3    H113893   8.340   4.290   0.867
 4672TIP3    H213894   8.421   4.311   0.742
 4673TIP3   OH213895   8.616   4.817   0.624
 4673TIP3    H113896   8.669   4.882   0.572
 4673TIP3    H213897   8.627   4.855   0.714
 4674TIP3   OH213898   8.784   3.542   0.861
 4674TIP3    H113899   8.749   3.622   0.904
 4674TIP3    H213900   8.869   3.577   0.827
 4675TIP3   OH213901   8.379   4.475   0.621
 4675TIP3    H113902   8.456   4.527   0.653
 4675TIP3    H213903   8.430   4.405   0.574
 4676TIP3   OH213904   8.349   3.733   0.743
 4676TIP3    H113905   8.338   3.830   0.740
 4676TIP3    H213906   8.268   3.702   0.702
 4677TIP3   OH213907   8.720   3.450   1.619
 4677TIP3    H113908   8.694   3.417   1.530
 4677TIP3    H213909   8.716   3.370   1.674
 4678TIP3   OH213910   8.275   4.671   1.003
 4678TIP3    H113911   8.197   4.700   1.053
 4678TIP3    H213912   8.252   4.708   0.914
 4679TIP3   OH213913   8.425   5.207   2.066
 4679TIP3    H113914   8.510   5.209   2.116
 4679TIP3    H213915   8.403   5.113   2.069
 4680TIP3   OH213916   8.908   5.181   2.108
 4680TIP3    H113917   9.001   5.161   2.126
 4680TIP3    H213918   8.888   5.117   2.036
 4681TIP3   OH213919   8.557   4.615   2.268
 4681TIP3    H113920   8.571   4.519   2.269
 4681TIP3    H213921   8.468   4.621   2.228
 4682TIP3   OH213922   8.507   4.258   0.532
 4682TIP3    H113923   8.575   4.245   0.601
 4682TIP3    H213924   8.552   4.211   0.459
 4683TIP3   OH213925   9.159   4.693   2.042
 4683TIP3    H113926   9.120   4.718   1.955
 4683TIP3    H213927   9.161   4.597   2.039
 4684TIP3   OH213928   8.670   4.354   2.253
 4684TIP3    H113929   8.738   4.288   2.239
 4684TIP3    H213930   8.694   4.388   2.342
 4685TIP3   OH213931   8.748   4.164   0.691
 4685TIP3    H113932   8.715   4.125   0.774
 4685TIP3    H213933   8.771   4.085   0.639
 4686TIP3   OH213934   8.995   4.239   1.931
 4686TIP3    H113935   8.914   4.294   1.927
 4686TIP3    H213936   9.038   4.267   1.847
 4687TIP3   OH213937   8.846   3.949   0.529
 4687TIP3    H113938   8.807   3.943   0.440
 4687TIP3    H213939   8.940   3.964   0.508
 4688TIP3   OH213940   9.097   4.020   2.061
 4688TIP3    H113941   9.129   3.939   2.013
 4688TIP3    H213942   9.055   4.071   1.990
 4689TIP3   OH213943   9.121   3.828   1.861
 4689TIP3    H113944   9.166   3.815   1.776
 4689TIP3    H213945   9.037   3.781   1.845
 4690TIP3   OH213946   9.109   4.331   1.712
 4690TIP3    H113947   9.096   4.278   1.632
 4690TIP3    H213948   9.073   4.417   1.681
 4691TIP3   OH213949   8.978   4.138   2.267
 4691TIP3    H113950   8.900   4.117   2.214
 4691TIP3    H213951   9.046   4.124   2.196
 4692TIP3   OH213952   8.839   3.900   2.326
 4692TIP3    H113953   8.847   3.838   2.250
 4692TIP3    H213954   8.828   3.834   2.397
 4693TIP3   OH213955   8.122   4.399   0.662
 4693TIP3    H113956   8.212   4.435   0.647
 4693TIP3    H213957   8.124   4.318   0.608
 4694TIP3   OH213958   8.040   5.023   1.058
 4694TIP3    H113959   7.975   4.958   1.023
 4694TIP3    H213960   8.087   4.967   1.124
 4695TIP3   OH213961   8.178   4.877   1.245
 4695TIP3    H113962   8.167   4.799   1.302
 4695TIP3    H213963   8.229   4.935   1.305
 4696TIP3   OH213964   8.370   4.276   1.618
 4696TIP3    H113965   8.366   4.249   1.524
 4696TIP3    H213966   8.467   4.279   1.632
 4697TIP3   OH213967   8.580   3.971   2.299
 4697TIP3    H113968   8.675   3.951   2.286
 4697TIP3    H213969   8.549   3.885   2.336
 4698TIP3   OH213970   8.542   3.659   1.623
 4698TIP3    H113971   8.604   3.584   1.633
 4698TIP3    H213972   8.605   3.734   1.620
 4699TIP3   OH213973   8.352   3.932   1.700
 4699TIP3    H113974   8.398   3.924   1.614
 4699TIP3    H213975   8.376   4.023   1.725
 4700TIP3   OH213976   8.331   3.437   1.199
 4700TIP3    H113977   8.237   3.434   1.223
 4700TIP3    H213978   8.330   3.494   1.119
 4701TIP3   OH213979   8.550   3.522   2.014
 4701TIP3    H113980   8.498   3.513   2.095
 4701TIP3    H213981   8.483   3.557   1.952
 4702TIP3   OH213982   8.593   4.936   2.089
 4702TIP3    H113983   8.500   4.913   2.074
 4702TIP3    H213984   8.601   4.927   2.185
 4703TIP3   OH213985   8.768   4.973   1.635
 4703TIP3    H113986   8.720   5.049   1.597
 4703TIP3    H213987   8.854   4.987   1.590
 4704TIP3   OH213988   9.230   5.224   1.765
 4704TIP3    H113989   9.250   5.217   1.862
 4704TIP3    H213990   9.307   5.273   1.736
 4705TIP3   OH213991   8.451   5.232   1.659
 4705TIP3    H113992   8.362   5.269   1.638
 4705TIP3    H213993   8.460   5.263   1.750
 4706TIP3   OH213994   8.685   5.211   1.516
 4706TIP3    H113995   8.599   5.224   1.563
 4706TIP3    H213996   8.663   5.244   1.427
 4707TIP3   OH213997   9.096   5.242   1.311
 4707TIP3    H113998   9.026   5.262   1.245
 4707TIP3    H213999   9.108   5.330   1.353
 4708TIP3   OH214000   9.361   5.200   1.345
 4708TIP3    H114001   9.264   5.197   1.335
 4708TIP3    H214002   9.380   5.292   1.325
 4709TIP3   OH214003   8.357   5.027   1.408
 4709TIP3    H114004   8.387   5.001   1.498
 4709TIP3    H214005   8.427   4.983   1.355
 4710TIP3   OH214006   8.549   4.898   1.260
 4710TIP3    H114007   8.564   4.815   1.309
 4710TIP3    H214008   8.639   4.936   1.256
 4711TIP3   OH214009   8.813   4.997   1.261
 4711TIP3    H114010   8.839   4.904   1.252
 4711TIP3    H214011   8.857   5.018   1.346
 4712TIP3   OH214012   8.637   3.366   1.363
 4712TIP3    H114013   8.544   3.336   1.364
 4712TIP3    H214014   8.682   3.278   1.368
 4713TIP3   OH214015   8.432   3.225   1.013
 4713TIP3    H114016   8.455   3.287   0.941
 4713TIP3    H214017   8.397   3.286   1.081
 4714TIP3   OH214018   8.149   4.794   0.802
 4714TIP3    H114019   8.063   4.761   0.769
 4714TIP3    H214020   8.139   4.888   0.776
 4715TIP3   OH214021   8.540   3.387   0.788
 4715TIP3    H114022   8.580   3.325   0.725
 4715TIP3    H214023   8.617   3.434   0.824
 4716TIP3   OH214024   8.814   3.633   2.244
 4716TIP3    H114025   8.784   3.562   2.303
 4716TIP3    H214026   8.910   3.635   2.270
 4717TIP3   OH214027   9.051   3.643   2.375
 4717TIP3    H114028   9.147   3.647   2.360
 4717TIP3    H214029   9.050   3.568   2.440
 4718TIP3   OH214030   8.236   4.821   0.502
 4718TIP3    H114031   8.242   4.877   0.581
 4718TIP3    H214032   8.329   4.806   0.478
 4719TIP3   OH214033  -0.012   4.893   3.144
 4719TIP3    H114034  -0.037   4.986   3.126
 4719TIP3    H214035  -0.090   4.847   3.108
 4720TIP3   OH214036  -0.004   4.891   3.514
 4720TIP3    H114037   0.020   4.865   3.605
 4720TIP3    H214038  -0.051   4.813   3.481
 4721TIP3   OH214039   0.228   5.198   3.202
 4721TIP3    H114040   0.219   5.128   3.268
 4721TIP3    H214041   0.259   5.273   3.256
 4722TIP3   OH214042  -0.123   5.664   3.214
 4722TIP3    H114043  -0.076   5.588   3.174
 4722TIP3    H214044  -0.137   5.632   3.304
 4723TIP3   OH214045  -0.222   5.070   3.551
 4723TIP3    H114046  -0.145   5.024   3.515
 4723TIP3    H214047  -0.179   5.149   3.588
 4724TIP3   OH214048   0.796   4.442   3.566
 4724TIP3    H114049   0.826   4.523   3.612
 4724TIP3    H214050   0.823   4.461   3.475
 4725TIP3   OH214051   0.194   4.623   3.607
 4725TIP3    H114052   0.242   4.540   3.625
 4725TIP3    H214053   0.169   4.610   3.513
 4726TIP3   OH214054  -0.430   4.279   3.573
 4726TIP3    H114055  -0.468   4.358   3.530
 4726TIP3    H214056  -0.469   4.209   3.517
 4727TIP3   OH214057   0.229   4.373   3.193
 4727TIP3    H114058   0.303   4.358   3.256
 4727TIP3    H214059   0.279   4.409   3.117
 4728TIP3   OH214060  -0.388   4.691   3.483
 4728TIP3    H114061  -0.295   4.660   3.485
 4728TIP3    H214062  -0.433   4.617   3.438
 4729TIP3   OH214063   0.869   4.645   3.740
 4729TIP3    H114064   0.789   4.697   3.721
 4729TIP3    H214065   0.892   4.678   3.829
 4730TIP3   OH214066  -0.118   5.115   3.013
 4730TIP3    H114067  -0.157   5.093   2.927
 4730TIP3    H214068  -0.161   5.201   3.033
 4731TIP3   OH214069   0.442   4.374   3.362
 4731TIP3    H114070   0.438   4.327   3.447
 4731TIP3    H214071   0.499   4.450   3.384
 4732TIP3   OH214072   0.303   5.438   3.371
 4732TIP3    H114073   0.213   5.431   3.411
 4732TIP3    H214074   0.296   5.525   3.327
 4733TIP3   OH214075   0.592   4.339   3.731
 4733TIP3    H114076   0.506   4.376   3.704
 4733TIP3    H214077   0.653   4.373   3.662
 4734TIP3   OH214078  -0.109   3.984   3.713
 4734TIP3    H114079  -0.115   3.889   3.731
 4734TIP3    H214080  -0.182   4.018   3.769
 4735TIP3   OH214081   0.005   5.487   3.047
 4735TIP3    H114082   0.056   5.405   3.025
 4735TIP3    H214083   0.064   5.553   3.005
 4736TIP3   OH214084   0.145   5.273   2.950
 4736TIP3    H114085   0.115   5.192   2.906
 4736TIP3    H214086   0.181   5.238   3.034
 4737TIP3   OH214087   0.527   5.355   3.716
 4737TIP3    H114088   0.519   5.278   3.655
 4737TIP3    H214089   0.512   5.430   3.654
 4738TIP3   OH214090  -0.180   4.746   2.970
 4738TIP3    H114091  -0.259   4.797   2.944
 4738TIP3    H214092  -0.130   4.742   2.887
 4739TIP3   OH214093  -0.221   4.528   2.701
 4739TIP3    H114094  -0.150   4.582   2.741
 4739TIP3    H214095  -0.165   4.470   2.645
 4740TIP3   OH214096   0.722   4.986   3.557
 4740TIP3    H114097   0.642   5.042   3.564
 4740TIP3    H214098   0.754   5.011   3.468
 4741TIP3   OH214099   0.166   4.830   2.945
 4741TIP3    H114100   0.113   4.855   3.024
 4741TIP3    H214101   0.250   4.803   2.987
 4742TIP3   OH214102   0.402   4.870   3.855
 4742TIP3    H114103   0.402   4.953   3.905
 4742TIP3    H214104   0.318   4.880   3.806
 4743TIP3   OH214105  -0.457   4.787   3.727
 4743TIP3    H114106  -0.424   4.756   3.640
 4743TIP3    H214107  -0.414   4.873   3.736
 4744TIP3   OH214108   0.062   5.437   3.491
 4744TIP3    H114109   0.045   5.515   3.547
 4744TIP3    H214110   0.046   5.362   3.552
 4745TIP3   OH214111   0.007   4.688   2.771
 4745TIP3    H114112   0.068   4.746   2.822
 4745TIP3    H214113   0.034   4.712   2.678
 4746TIP3   OH214114  -0.254   5.372   3.049
 4746TIP3    H114115  -0.170   5.416   3.072
 4746TIP3    H214116  -0.301   5.444   3.002
 4747TIP3   OH214117   0.524   3.930   2.817
 4747TIP3    H114118   0.443   3.953   2.868
 4747TIP3    H214119   0.538   4.013   2.766
 4748TIP3   OH214120   0.323   5.297   2.366
 4748TIP3    H114121   0.333   5.393   2.350
 4748TIP3    H214122   0.415   5.266   2.353
 4749TIP3   OH214123   0.766   5.697   3.759
 4749TIP3    H114124   0.765   5.600   3.773
 4749TIP3    H214125   0.683   5.722   3.805
 4750TIP3   OH214126  -0.108   5.468   3.909
 4750TIP3    H114127  -0.108   5.563   3.933
 4750TIP3    H214128  -0.202   5.454   3.888
 4751TIP3   OH214129  -0.342   5.598   2.868
 4751TIP3    H114130  -0.376   5.575   2.779
 4751TIP3    H214131  -0.381   5.684   2.884
 4752TIP3   OH214132  -0.163   5.517   2.488
 4752TIP3    H114133  -0.106   5.446   2.448
 4752TIP3    H214134  -0.124   5.523   2.578
 4753TIP3   OH214135  -0.100   5.560   2.755
 4753TIP3    H114136  -0.183   5.563   2.807
 4753TIP3    H214137  -0.041   5.517   2.819
 4754TIP3   OH214138   0.656   4.829   4.036
 4754TIP3    H114139   0.578   4.844   3.980
 4754TIP3    H214140   0.671   4.733   4.025
 4755TIP3   OH214141  -0.355   4.063   3.848
 4755TIP3    H114142  -0.432   4.028   3.802
 4755TIP3    H214143  -0.358   4.157   3.825
 4756TIP3   OH214144   0.186   4.176   4.038
 4756TIP3    H114145   0.255   4.151   4.102
 4756TIP3    H214146   0.103   4.155   4.086
 4757TIP3   OH214147   0.421   4.603   3.953
 4757TIP3    H114148   0.377   4.601   4.041
 4757TIP3    H214149   0.403   4.693   3.921
 4758TIP3   OH214150   0.085   4.742   2.517
 4758TIP3    H114151   0.052   4.711   2.430
 4758TIP3    H214152   0.167   4.787   2.490
 4759TIP3   OH214153  -0.197   4.109   2.808
 4759TIP3    H114154  -0.225   4.112   2.901
 4759TIP3    H214155  -0.260   4.043   2.774
 4760TIP3   OH214156  -0.428   4.560   3.871
 4760TIP3    H114157  -0.475   4.594   3.948
 4760TIP3    H214158  -0.436   4.637   3.810
 4761TIP3   OH214159  -0.540   4.451   3.382
 4761TIP3    H114160  -0.634   4.465   3.367
 4761TIP3    H214161  -0.515   4.410   3.296
 4762TIP3   OH214162  -0.044   4.547   3.102
 4762TIP3    H114163  -0.096   4.620   3.061
 4762TIP3    H214164   0.013   4.520   3.027
 4763TIP3   OH214165   0.134   4.828   4.191
 4763TIP3    H114166   0.113   4.755   4.253
 4763TIP3    H214167   0.228   4.843   4.212
 4764TIP3   OH214168   0.113   4.577   3.346
 4764TIP3    H114169   0.059   4.611   3.272
 4764TIP3    H214170   0.146   4.496   3.303
 4765TIP3   OH214171  -0.489   4.082   2.810
 4765TIP3    H114172  -0.514   4.059   2.901
 4765TIP3    H214173  -0.572   4.117   2.773
 4766TIP3   OH214174   0.116   4.824   3.768
 4766TIP3    H114175   0.154   4.754   3.710
 4766TIP3    H214176   0.098   4.772   3.849
 4767TIP3   OH214177  -0.194   4.284   3.433
 4767TIP3    H114178  -0.276   4.288   3.487
 4767TIP3    H214179  -0.125   4.288   3.501
 4768TIP3   OH214180  -0.496   4.336   3.133
 4768TIP3    H114181  -0.400   4.351   3.120
 4768TIP3    H214182  -0.535   4.368   3.050
 4769TIP3   OH214183   0.286   4.361   3.641
 4769TIP3    H114184   0.250   4.373   3.732
 4769TIP3    H214185   0.221   4.300   3.603
 4770TIP3   OH214186  -0.677   4.386   2.910
 4770TIP3    H114187  -0.706   4.311   2.856
 4770TIP3    H214188  -0.606   4.421   2.851
 4771TIP3   OH214189   0.454   6.050   3.858
 4771TIP3    H114190   0.454   6.074   3.763
 4771TIP3    H214191   0.533   6.098   3.890
 4772TIP3   OH214192  -0.121   4.607   3.532
 4772TIP3    H114193  -0.046   4.577   3.479
 4772TIP3    H214194  -0.101   4.571   3.619
 4773TIP3   OH214195  -0.559   4.101   3.413
 4773TIP3    H114196  -0.627   4.032   3.430
 4773TIP3    H214197  -0.527   4.073   3.326
 4774TIP3   OH214198  -0.145   4.501   3.837
 4774TIP3    H114199  -0.232   4.544   3.841
 4774TIP3    H214200  -0.085   4.565   3.879
 4775TIP3   OH214201  -0.405   4.896   2.908
 4775TIP3    H114202  -0.482   4.836   2.906
 4775TIP3    H214203  -0.413   4.934   2.999
 4776TIP3   OH214204   0.493   5.137   3.552
 4776TIP3    H114205   0.518   5.185   3.470
 4776TIP3    H214206   0.407   5.097   3.526
 4777TIP3   OH214207   0.055   4.210   2.786
 4777TIP3    H114208  -0.043   4.199   2.784
 4777TIP3    H214209   0.065   4.307   2.797
 4778TIP3   OH214210  -0.017   5.207   3.925
 4778TIP3    H114211   0.019   5.202   4.014
 4778TIP3    H214212  -0.047   5.300   3.921
 4779TIP3   OH214213   0.120   4.460   2.886
 4779TIP3    H114214   0.217   4.466   2.899
 4779TIP3    H214215   0.102   4.537   2.828
 4780TIP3   OH214216  -0.256   5.045   2.737
 4780TIP3    H114217  -0.300   5.132   2.748
 4780TIP3    H214218  -0.311   4.989   2.796
 4781TIP3   OH214219  -0.102   4.961   4.237
 4781TIP3    H114220  -0.155   4.891   4.195
 4781TIP3    H214221  -0.012   4.935   4.208
 4782TIP3   OH214222   0.156   5.475   3.815
 4782TIP3    H114223   0.060   5.471   3.830
 4782TIP3    H214224   0.184   5.529   3.891
 4783TIP3   OH214225   0.561   4.548   2.723
 4783TIP3    H114226   0.498   4.503   2.662
 4783TIP3    H214227   0.559   4.637   2.680
 4784TIP3   OH214228   0.778   5.405   3.805
 4784TIP3    H114229   0.680   5.401   3.796
 4784TIP3    H214230   0.805   5.376   3.715
 4785TIP3   OH214231   0.256   5.369   2.629
 4785TIP3    H114232   0.239   5.297   2.691
 4785TIP3    H214233   0.273   5.322   2.545
 4786TIP3   OH214234   0.258   4.998   3.473
 4786TIP3    H114235   0.164   4.972   3.483
 4786TIP3    H214236   0.293   4.920   3.426
 4787TIP3   OH214237  -0.432   4.993   3.157
 4787TIP3    H114238  -0.446   5.087   3.173
 4787TIP3    H214239  -0.481   4.953   3.230
 4788TIP3   OH214240   0.046   5.205   3.650
 4788TIP3    H114241   0.034   5.199   3.747
 4788TIP3    H214242   0.126   5.153   3.637
 4789TIP3   OH214243   0.014   5.097   2.532
 4789TIP3    H114244   0.067   5.072   2.611
 4789TIP3    H214245  -0.074   5.067   2.560
 4790TIP3   OH214246   0.290   5.739   3.702
 4790TIP3    H114247   0.212   5.682   3.693
 4790TIP3    H214248   0.276   5.804   3.630
 4791TIP3   OH214249   0.359   5.572   2.350
 4791TIP3    H114250   0.400   5.649   2.307
 4791TIP3    H214251   0.278   5.616   2.385
 4792TIP3   OH214252   0.174   5.033   2.752
 4792TIP3    H114253   0.165   4.964   2.820
 4792TIP3    H214254   0.271   5.030   2.737
 4793TIP3   OH214255  -0.562   5.052   2.558
 4793TIP3    H114256  -0.544   4.966   2.514
 4793TIP3    H214257  -0.585   5.023   2.647
 4794TIP3   OH214258   0.207   4.415   3.899
 4794TIP3    H114259   0.288   4.454   3.934
 4794TIP3    H214260   0.198   4.334   3.954
 4795TIP3   OH214261   0.090   4.166   3.062
 4795TIP3    H114262   0.077   4.189   2.968
 4795TIP3    H214263   0.131   4.248   3.098
 4796TIP3   OH214264  -0.397   5.273   2.761
 4796TIP3    H114265  -0.490   5.291   2.780
 4796TIP3    H214266  -0.383   5.322   2.678
 4797TIP3   OH214267  -0.219   4.346   3.164
 4797TIP3    H114268  -0.153   4.415   3.144
 4797TIP3    H214269  -0.208   4.337   3.262
 4798TIP3   OH214270   0.046   4.664   3.978
 4798TIP3    H114271   0.070   4.717   4.057
 4798TIP3    H214272   0.105   4.587   3.987
 4799TIP3   OH214273  -0.066   4.072   3.273
 4799TIP3    H114274  -0.076   4.149   3.332
 4799TIP3    H214275  -0.008   4.110   3.203
 4800TIP3   OH214276  -0.525   4.047   3.082
 4800TIP3    H114277  -0.547   4.138   3.105
 4800TIP3    H214278  -0.427   4.051   3.081
 4801TIP3   OH214279   0.690   4.563   3.957
 4801TIP3    H114280   0.592   4.558   3.958
 4801TIP3    H214281   0.708   4.531   3.867
 4802TIP3   OH214282   0.342   4.758   3.344
 4802TIP3    H114283   0.268   4.696   3.356
 4802TIP3    H214284   0.416   4.712   3.390
 4803TIP3   OH214285   0.310   5.711   3.292
 4803TIP3    H114286   0.270   5.758   3.216
 4803TIP3    H214287   0.405   5.731   3.274
 4804TIP3   OH214288  -0.420   5.273   2.465
 4804TIP3    H114289  -0.470   5.194   2.494
 4804TIP3    H214290  -0.363   5.234   2.397
 4805TIP3   OH214291   0.209   5.610   4.048
 4805TIP3    H114292   0.204   5.537   4.114
 4805TIP3    H214293   0.287   5.661   4.079
 4806TIP3   OH214294  -0.016   5.325   2.358
 4806TIP3    H114295   0.028   5.260   2.416
 4806TIP3    H214296   0.041   5.324   2.278
 4807TIP3   OH214297  -0.167   5.236   4.238
 4807TIP3    H114298  -0.221   5.221   4.160
 4807TIP3    H214299  -0.134   5.145   4.255
 4808TIP3   OH214300  -0.288   4.990   2.467
 4808TIP3    H114301  -0.290   5.006   2.563
 4808TIP3    H214302  -0.289   4.891   2.465
 4809TIP3   OH214303   0.312   5.238   3.850
 4809TIP3    H114304   0.388   5.282   3.806
 4809TIP3    H214305   0.244   5.307   3.837
 4810TIP3   OH214306  -0.601   4.702   2.890
 4810TIP3    H114307  -0.620   4.650   2.968
 4810TIP3    H214308  -0.561   4.635   2.831
 4811TIP3   OH214309  -0.265   4.771   4.111
 4811TIP3    H114310  -0.342   4.830   4.115
 4811TIP3    H214311  -0.231   4.794   4.021
 4812TIP3   OH214312  -0.494   4.493   2.746
 4812TIP3    H114313  -0.524   4.495   2.652
 4812TIP3    H214314  -0.397   4.500   2.733
 4813TIP3   OH214315   0.181   5.161   4.250
 4813TIP3    H114316   0.264   5.148   4.203
 4813TIP3    H214317   0.188   5.096   4.322
 4814TIP3   OH214318   0.320   4.828   2.389
 4814TIP3    H114319   0.301   4.779   2.307
 4814TIP3    H214320   0.289   4.917   2.363
 4815TIP3   OH214321  -0.203   4.537   4.257
 4815TIP3    H114322  -0.209   4.462   4.195
 4815TIP3    H214323  -0.231   4.613   4.202
 4816TIP3   OH214324  -0.216   4.331   4.043
 4816TIP3    H114325  -0.176   4.379   3.967
 4816TIP3    H214326  -0.310   4.340   4.024
 4817TIP3   OH214327  -0.181   4.893   3.880
 4817TIP3    H114328  -0.090   4.876   3.851
 4817TIP3    H214329  -0.189   4.988   3.862
 4818TIP3   OH214330   0.404   4.844   4.305
 4818TIP3    H114331   0.453   4.762   4.314
 4818TIP3    H214332   0.472   4.904   4.271
 4819TIP3   OH214333   0.443   5.095   4.038
 4819TIP3    H114334   0.386   5.149   3.978
 4819TIP3    H214335   0.531   5.115   3.999
 4820TIP3   OH214336  -0.074   4.103   4.113
 4820TIP3    H114337  -0.124   4.185   4.091
 4820TIP3    H214338  -0.145   4.035   4.107
 4821TIP3   OH214339   0.052   4.612   4.333
 4821TIP3    H114340   0.045   4.603   4.430
 4821TIP3    H214341  -0.038   4.582   4.308
 4822TIP3   OH214342   0.290   4.558   4.186
 4822TIP3    H114343   0.215   4.559   4.249
 4822TIP3    H214344   0.364   4.528   4.243
 4823TIP3   OH214345   0.513   4.496   4.339
 4823TIP3    H114346   0.530   4.402   4.358
 4823TIP3    H214347   0.514   4.537   4.428
 4824TIP3   OH214348   0.020   4.115   4.371
 4824TIP3    H114349   0.089   4.045   4.368
 4824TIP3    H214350  -0.018   4.106   4.281
 4825TIP3   OH214351   0.083   4.327   4.532
 4825TIP3    H114352   0.062   4.257   4.467
 4825TIP3    H214353   0.010   4.391   4.520
 4826TIP3   OH214354   0.558   5.811   3.246
 4826TIP3    H114355   0.588   5.838   3.335
 4826TIP3    H214356   0.628   5.847   3.189
 4827TIP3   OH214357   0.593   5.822   3.528
 4827TIP3    H114358   0.552   5.733   3.526
 4827TIP3    H214359   0.669   5.804   3.585
 4828TIP3   OH214360   0.638   5.501   4.102
 4828TIP3    H114361   0.565   5.509   4.166
 4828TIP3    H214362   0.680   5.589   4.106
 4829TIP3   OH214363   0.453   5.016   2.724
 4829TIP3    H114364   0.523   5.078   2.695
 4829TIP3    H214365   0.496   4.975   2.802
 4830TIP3   OH214366   0.581   4.883   2.926
 4830TIP3    H114367   0.518   4.840   2.988
 4830TIP3    H214368   0.649   4.919   2.985
 4831TIP3   OH214369   0.633   5.270   3.357
 4831TIP3    H114370   0.689   5.209   3.307
 4831TIP3    H214371   0.626   5.347   3.297
 4832TIP3   OH214372   0.469   5.572   3.555
 4832TIP3    H114373   0.398   5.614   3.608
 4832TIP3    H214374   0.418   5.523   3.487
 4833TIP3   OH214375   0.520   4.788   2.576
 4833TIP3    H114376   0.448   4.792   2.508
 4833TIP3    H214377   0.494   4.865   2.630
 4834TIP3   OH214378   0.389   4.463   2.532
 4834TIP3    H114379   0.354   4.504   2.452
 4834TIP3    H214380   0.363   4.369   2.518
 4835TIP3   OH214381   0.396   4.737   3.074
 4835TIP3    H114382   0.407   4.640   3.070
 4835TIP3    H214383   0.384   4.752   3.170
 4836TIP3   OH214384   0.684   5.161   3.929
 4836TIP3    H114385   0.758   5.097   3.922
 4836TIP3    H214386   0.714   5.232   3.870
 4837TIP3   OH214387   0.870   4.969   3.953
 4837TIP3    H114388   0.797   4.917   3.992
 4837TIP3    H214389   0.945   4.906   3.964
 4838TIP3   OH214390   0.336   4.196   2.516
 4838TIP3    H114391   0.413   4.166   2.569
 4838TIP3    H214392   0.264   4.136   2.542
 4839TIP3   OH214393   0.392   4.453   2.971
 4839TIP3    H114394   0.434   4.365   2.985
 4839TIP3    H214395   0.450   4.487   2.900
 4840TIP3   OH214396   0.555   4.630   3.463
 4840TIP3    H114397   0.641   4.656   3.423
 4840TIP3    H214398   0.569   4.666   3.553
 4841TIP3   OH214399   0.621   4.771   3.698
 4841TIP3    H114400   0.544   4.808   3.745
 4841TIP3    H214401   0.655   4.851   3.651
 4842TIP3   OH214402   1.070   4.358   4.253
 4842TIP3    H114403   1.132   4.294   4.211
 4842TIP3    H214404   1.048   4.417   4.178
 4843TIP3   OH214405   0.501   4.203   3.008
 4843TIP3    H114406   0.552   4.188   3.090
 4843TIP3    H214407   0.443   4.125   3.007
 4844TIP3   OH214408   0.948   4.505   4.060
 4844TIP3    H114409   0.860   4.541   4.081
 4844TIP3    H214410   0.922   4.432   4.000
 4845TIP3   OH214411   0.585   4.139   2.639
 4845TIP3    H114412   0.627   4.068   2.587
 4845TIP3    H214413   0.650   4.211   2.633
 4846TIP3   OH214414   0.144   5.672   2.905
 4846TIP3    H114415   0.199   5.654   2.826
 4846TIP3    H214416   0.200   5.732   2.956
 4847TIP3   OH214417  -0.101   5.730   3.985
 4847TIP3    H114418  -0.066   5.751   4.074
 4847TIP3    H214419  -0.050   5.793   3.930
 4848TIP3   OH214420   0.050   5.906   3.834
 4848TIP3    H114421   0.118   5.851   3.793
 4848TIP3    H214422   0.105   5.960   3.896
 4849TIP3   OH214423   0.845   4.266   3.936
 4849TIP3    H114424   0.754   4.261   3.903
 4849TIP3    H214425   0.875   4.173   3.923
 4850TIP3   OH214426  -0.228   5.790   3.483
 4850TIP3    H114427  -0.323   5.804   3.474
 4850TIP3    H214428  -0.203   5.867   3.539
 4851TIP3   OH214429   0.033   5.715   3.569
 4851TIP3    H114430  -0.056   5.730   3.535
 4851TIP3    H214431   0.082   5.790   3.529
 4852TIP3   OH214432   0.240   5.900   3.486
 4852TIP3    H114433   0.229   5.987   3.440
 4852TIP3    H214434   0.269   5.843   3.413
 4853TIP3   OH214435   0.049   4.181   3.553
 4853TIP3    H114436   0.008   4.109   3.605
 4853TIP3    H214437   0.124   4.135   3.509
 4854TIP3   OH214438   0.573   4.055   3.458
 4854TIP3    H114439   0.613   4.110   3.387
 4854TIP3    H214440   0.480   4.083   3.455
 4855TIP3   OH214441   0.668   4.160   3.224
 4855TIP3    H114442   0.741   4.109   3.183
 4855TIP3    H214443   0.702   4.252   3.210
 4856TIP3   OH214444  -0.250   3.923   3.450
 4856TIP3    H114445  -0.195   3.978   3.393
 4856TIP3    H214446  -0.230   3.960   3.538
 4857TIP3   OH214447   0.286   4.068   3.439
 4857TIP3    H114448   0.288   4.036   3.348
 4857TIP3    H214449   0.273   3.984   3.489
 4858TIP3   OH214450   0.319   3.989   2.997
 4858TIP3    H114451   0.233   4.034   3.006
 4858TIP3    H214452   0.301   3.905   3.044
 4859TIP3   OH214453  -0.259   4.093   3.079
 4859TIP3    H114454  -0.201   4.055   3.147
 4859TIP3    H214455  -0.246   4.188   3.100
 4860TIP3   OH214456  -0.414   5.527   2.609
 4860TIP3    H114457  -0.327   5.528   2.564
 4860TIP3    H214458  -0.467   5.486   2.536
 4861TIP3   OH214459   0.294   5.633   2.676
 4861TIP3    H114460   0.285   5.536   2.663
 4861TIP3    H214461   0.252   5.665   2.594
 4862TIP3   OH214462  -0.248   4.149   4.574
 4862TIP3    H114463  -0.163   4.135   4.529
 4862TIP3    H214464  -0.240   4.087   4.648
 4863TIP3   OH214465   0.579   4.227   4.370
 4863TIP3    H114466   0.600   4.195   4.460
 4863TIP3    H214467   0.667   4.224   4.327
 4864TIP3   OH214468   0.520   5.782   3.861
 4864TIP3    H114469   0.441   5.749   3.814
 4864TIP3    H214470   0.502   5.878   3.863
 4865TIP3   OH214471   1.785   5.153   2.627
 4865TIP3    H114472   1.759   5.247   2.612
 4865TIP3    H214473   1.697   5.112   2.622
 4866TIP3   OH214474   1.796   5.152   3.002
 4866TIP3    H114475   1.811   5.113   3.090
 4866TIP3    H214476   1.738   5.086   2.961
 4867TIP3   OH214477   1.082   5.053   3.380
 4867TIP3    H114478   1.116   4.985   3.441
 4867TIP3    H214479   1.165   5.098   3.354
 4868TIP3   OH214480   2.028   5.455   2.688
 4868TIP3    H114481   2.010   5.383   2.750
 4868TIP3    H214482   2.054   5.528   2.747
 4869TIP3   OH214483   1.054   5.453   3.105
 4869TIP3    H114484   1.047   5.356   3.107
 4869TIP3    H214485   1.149   5.464   3.087
 4870TIP3   OH214486   0.758   4.659   2.887
 4870TIP3    H114487   0.714   4.745   2.899
 4870TIP3    H214488   0.687   4.608   2.846
 4871TIP3   OH214489   0.821   4.946   3.051
 4871TIP3    H114490   0.870   4.871   3.091
 4871TIP3    H214491   0.884   4.979   2.986
 4872TIP3   OH214492   1.675   5.917   2.705
 4872TIP3    H114493   1.725   5.847   2.658
 4872TIP3    H214494   1.670   5.879   2.794
 4873TIP3   OH214495   1.579   5.380   3.062
 4873TIP3    H114496   1.597   5.312   2.995
 4873TIP3    H214497   1.670   5.412   3.079
 4874TIP3   OH214498   2.595   4.698   3.054
 4874TIP3    H114499   2.623   4.782   3.097
 4874TIP3    H214500   2.615   4.718   2.961
 4875TIP3   OH214501   1.996   4.881   3.093
 4875TIP3    H114502   2.038   4.795   3.109
 4875TIP3    H214503   1.965   4.869   3.001
 4876TIP3   OH214504   1.330   4.538   3.058
 4876TIP3    H114505   1.314   4.613   2.996
 4876TIP3    H214506   1.281   4.467   3.010
 4877TIP3   OH214507   2.025   4.628   2.679
 4877TIP3    H114508   2.099   4.613   2.743
 4877TIP3    H214509   2.075   4.665   2.604
 4878TIP3   OH214510   0.966   4.741   3.164
 4878TIP3    H114511   1.050   4.723   3.209
 4878TIP3    H214512   0.979   4.687   3.083
 4879TIP3   OH214513   1.407   4.930   2.991
 4879TIP3    H114514   1.501   4.912   2.974
 4879TIP3    H214515   1.363   4.877   2.921
 4880TIP3   OH214516   2.669   4.906   3.224
 4880TIP3    H114517   2.585   4.954   3.205
 4880TIP3    H214518   2.681   4.928   3.318
 4881TIP3   OH214519   1.329   4.522   3.489
 4881TIP3    H114520   1.271   4.560   3.421
 4881TIP3    H214521   1.277   4.542   3.570
 4882TIP3   OH214522   1.695   5.387   2.488
 4882TIP3    H114523   1.629   5.334   2.443
 4882TIP3    H214524   1.641   5.463   2.515
 4883TIP3   OH214525   1.439   5.298   3.289
 4883TIP3    H114526   1.375   5.364   3.323
 4883TIP3    H214527   1.480   5.347   3.214
 4884TIP3   OH214528   2.239   4.631   2.848
 4884TIP3    H114529   2.232   4.580   2.930
 4884TIP3    H214530   2.293   4.707   2.874
 4885TIP3   OH214531   1.199   4.638   3.275
 4885TIP3    H114532   1.262   4.711   3.295
 4885TIP3    H214533   1.247   4.597   3.199
 4886TIP3   OH214534   1.263   5.490   3.384
 4886TIP3    H114535   1.236   5.572   3.340
 4886TIP3    H214536   1.184   5.476   3.440
 4887TIP3   OH214537   0.658   5.182   2.620
 4887TIP3    H114538   0.621   5.208   2.534
 4887TIP3    H214539   0.690   5.266   2.657
 4888TIP3   OH214540   2.100   5.697   2.861
 4888TIP3    H114541   2.010   5.687   2.900
 4888TIP3    H214542   2.090   5.782   2.814
 4889TIP3   OH214543   2.388   4.599   3.221
 4889TIP3    H114544   2.300   4.628   3.192
 4889TIP3    H214545   2.446   4.630   3.149
 4890TIP3   OH214546   1.688   4.244   3.201
 4890TIP3    H114547   1.676   4.149   3.218
 4890TIP3    H214548   1.610   4.281   3.248
 4891TIP3   OH214549   1.808   5.747   2.539
 4891TIP3    H114550   1.854   5.663   2.516
 4891TIP3    H214551   1.865   5.811   2.491
 4892TIP3   OH214552   1.947   5.531   2.434
 4892TIP3    H114553   1.886   5.459   2.409
 4892TIP3    H214554   1.983   5.496   2.518
 4893TIP3   OH214555   2.325   5.612   3.201
 4893TIP3    H114556   2.314   5.533   3.143
 4893TIP3    H214557   2.309   5.686   3.138
 4894TIP3   OH214558   1.611   4.993   2.452
 4894TIP3    H114559   1.531   5.049   2.440
 4894TIP3    H214560   1.657   5.005   2.368
 4895TIP3   OH214561   1.574   4.787   2.176
 4895TIP3    H114562   1.640   4.836   2.228
 4895TIP3    H214563   1.632   4.725   2.129
 4896TIP3   OH214564   2.520   5.247   3.046
 4896TIP3    H114565   2.437   5.299   3.052
 4896TIP3    H214566   2.548   5.270   2.955
 4897TIP3   OH214567   1.962   5.088   2.430
 4897TIP3    H114568   1.904   5.111   2.506
 4897TIP3    H214569   2.044   5.061   2.477
 4898TIP3   OH214570   2.200   5.127   3.340
 4898TIP3    H114571   2.195   5.212   3.389
 4898TIP3    H214572   2.112   5.129   3.296
 4899TIP3   OH214573   1.321   5.489   2.994
 4899TIP3    H114574   1.303   5.448   2.907
 4899TIP3    H214575   1.411   5.457   3.012
 4900TIP3   OH214576   1.319   5.062   3.209
 4900TIP3    H114577   1.355   5.026   3.124
 4900TIP3    H214578   1.373   5.142   3.222
 4901TIP3   OH214579   1.858   5.694   2.978
 4901TIP3    H114580   1.844   5.771   3.035
 4901TIP3    H214581   1.844   5.619   3.039
 4902TIP3   OH214582   1.469   5.613   3.525
 4902TIP3    H114583   1.409   5.676   3.571
 4902TIP3    H214584   1.403   5.559   3.476
 4903TIP3   OH214585   1.809   4.941   2.255
 4903TIP3    H114586   1.865   5.002   2.309
 4903TIP3    H214587   1.834   4.969   2.163
 4904TIP3   OH214588   1.225   5.169   3.629
 4904TIP3    H114589   1.228   5.257   3.673
 4904TIP3    H214590   1.129   5.153   3.628
 4905TIP3   OH214591   1.548   5.628   2.524
 4905TIP3    H114592   1.620   5.683   2.558
 4905TIP3    H214593   1.482   5.691   2.496
 4906TIP3   OH214594   1.264   5.783   3.611
 4906TIP3    H114595   1.229   5.778   3.520
 4906TIP3    H214596   1.185   5.761   3.665
 4907TIP3   OH214597   2.320   4.187   2.304
 4907TIP3    H114598   2.239   4.209   2.355
 4907TIP3    H214599   2.333   4.269   2.252
 4908TIP3   OH214600   1.060   4.904   2.632
 4908TIP3    H114601   0.999   4.965   2.588
 4908TIP3    H214602   1.002   4.834   2.660
 4909TIP3   OH214603   2.117   5.554   1.851
 4909TIP3    H114604   2.126   5.651   1.839
 4909TIP3    H214605   2.210   5.524   1.838
 4910TIP3   OH214606   0.842   5.312   3.559
 4910TIP3    H114607   0.781   5.287   3.487
 4910TIP3    H214608   0.881   5.225   3.586
 4911TIP3   OH214609   0.698   5.503   3.194
 4911TIP3    H114610   0.793   5.493   3.180
 4911TIP3    H214611   0.694   5.583   3.249
 4912TIP3   OH214612   2.562   5.953   3.245
 4912TIP3    H114613   2.561   5.857   3.259
 4912TIP3    H214614   2.479   5.979   3.291
 4913TIP3   OH214615   1.668   5.742   3.381
 4913TIP3    H114616   1.668   5.835   3.414
 4913TIP3    H214617   1.597   5.703   3.436
 4914TIP3   OH214618   1.424   5.874   2.331
 4914TIP3    H114619   1.378   5.851   2.249
 4914TIP3    H214620   1.391   5.964   2.351
 4915TIP3   OH214621   0.864   5.722   2.720
 4915TIP3    H114622   0.919   5.709   2.800
 4915TIP3    H214623   0.814   5.639   2.722
 4916TIP3   OH214624   1.629   5.772   1.976
 4916TIP3    H114625   1.688   5.702   1.940
 4916TIP3    H214626   1.663   5.778   2.068
 4917TIP3   OH214627   1.678   5.820   2.247
 4917TIP3    H114628   1.590   5.827   2.290
 4917TIP3    H214629   1.727   5.770   2.315
 4918TIP3   OH214630   2.453   5.088   3.520
 4918TIP3    H114631   2.372   5.101   3.468
 4918TIP3    H214632   2.467   4.992   3.510
 4919TIP3   OH214633   1.047   5.495   3.551
 4919TIP3    H114634   1.099   5.477   3.632
 4919TIP3    H214635   0.974   5.431   3.558
 4920TIP3   OH214636   1.448   4.316   3.330
 4920TIP3    H114637   1.357   4.288   3.306
 4920TIP3    H214638   1.426   4.402   3.372
 4921TIP3   OH214639   1.981   4.433   3.525
 4921TIP3    H114640   2.049   4.407   3.590
 4921TIP3    H214641   1.897   4.413   3.571
 4922TIP3   OH214642   2.223   4.863   3.445
 4922TIP3    H114643   2.174   4.858   3.530
 4922TIP3    H214644   2.196   4.949   3.408
 4923TIP3   OH214645   1.880   4.997   1.999
 4923TIP3    H114646   1.848   4.967   1.912
 4923TIP3    H214647   1.961   5.045   1.974
 4924TIP3   OH214648   1.592   4.369   2.301
 4924TIP3    H114649   1.562   4.368   2.394
 4924TIP3    H214650   1.556   4.284   2.270
 4925TIP3   OH214651   1.378   4.834   3.349
 4925TIP3    H114652   1.329   4.857   3.430
 4925TIP3    H214653   1.362   4.913   3.294
 4926TIP3   OH214654   1.266   4.713   2.863
 4926TIP3    H114655   1.171   4.698   2.876
 4926TIP3    H214656   1.278   4.678   2.772
 4927TIP3   OH214657   1.753   4.805   2.591
 4927TIP3    H114658   1.697   4.876   2.552
 4927TIP3    H214659   1.806   4.778   2.514
 4928TIP3   OH214660   1.928   5.086   3.680
 4928TIP3    H114661   1.906   5.012   3.740
 4928TIP3    H214662   2.022   5.099   3.700
 4929TIP3   OH214663   1.913   4.835   2.832
 4929TIP3    H114664   1.853   4.867   2.762
 4929TIP3    H214665   1.943   4.753   2.788
 4930TIP3   OH214666   1.196   4.864   3.560
 4930TIP3    H114667   1.229   4.927   3.626
 4930TIP3    H214668   1.189   4.781   3.612
 4931TIP3   OH214669   1.245   4.336   2.269
 4931TIP3    H114670   1.241   4.338   2.366
 4931TIP3    H214671   1.170   4.393   2.246
 4932TIP3   OH214672   0.792   4.383   3.141
 4932TIP3    H114673   0.866   4.419   3.194
 4932TIP3    H214674   0.834   4.357   3.058
 4933TIP3   OH214675   0.766   4.366   2.660
 4933TIP3    H114676   0.812   4.404   2.581
 4933TIP3    H214677   0.707   4.440   2.681
 4934TIP3   OH214678   1.927   5.082   3.259
 4934TIP3    H114679   1.956   5.010   3.198
 4934TIP3    H214680   1.895   5.028   3.335
 4935TIP3   OH214681   1.588   4.537   2.926
 4935TIP3    H114682   1.505   4.541   2.977
 4935TIP3    H214683   1.654   4.546   2.996
 4936TIP3   OH214684   1.021   4.594   2.940
 4936TIP3    H114685   0.928   4.600   2.908
 4936TIP3    H214686   1.051   4.507   2.909
 4937TIP3   OH214687   1.297   4.588   2.618
 4937TIP3    H114688   1.390   4.612   2.601
 4937TIP3    H214689   1.250   4.620   2.538
 4938TIP3   OH214690   2.083   4.616   3.128
 4938TIP3    H114691   2.046   4.629   3.218
 4938TIP3    H214692   2.017   4.556   3.089
 4939TIP3   OH214693   1.132   4.620   2.398
 4939TIP3    H114694   1.061   4.581   2.345
 4939TIP3    H214695   1.186   4.662   2.328
 4940TIP3   OH214696   2.250   6.306   3.345
 4940TIP3    H114697   2.250   6.329   3.251
 4940TIP3    H214698   2.328   6.355   3.377
 4941TIP3   OH214699   1.208   5.416   3.769
 4941TIP3    H114700   1.289   5.446   3.815
 4941TIP3    H214701   1.145   5.417   3.843
 4942TIP3   OH214702   1.682   4.868   3.023
 4942TIP3    H114703   1.754   4.829   2.970
 4942TIP3    H214704   1.693   4.824   3.109
 4943TIP3   OH214705   1.196   4.360   2.897
 4943TIP3    H114706   1.169   4.276   2.941
 4943TIP3    H214707   1.252   4.330   2.824
 4944TIP3   OH214708   1.650   4.760   3.319
 4944TIP3    H114709   1.562   4.800   3.325
 4944TIP3    H214710   1.708   4.824   3.365
 4945TIP3   OH214711   1.384   5.156   2.392
 4945TIP3    H114712   1.311   5.090   2.389
 4945TIP3    H214713   1.383   5.180   2.489
 4946TIP3   OH214714   2.288   5.393   3.039
 4946TIP3    H114715   2.311   5.441   2.957
 4946TIP3    H214716   2.203   5.351   3.016
 4947TIP3   OH214717   1.846   4.470   2.268
 4947TIP3    H114718   1.748   4.457   2.274
 4947TIP3    H214719   1.858   4.564   2.290
 4948TIP3   OH214720   1.793   5.477   3.404
 4948TIP3    H114721   1.805   5.450   3.496
 4948TIP3    H214722   1.747   5.563   3.412
 4949TIP3   OH214723   1.916   4.715   2.371
 4949TIP3    H114724   2.013   4.723   2.387
 4949TIP3    H214725   1.896   4.795   2.318
 4950TIP3   OH214726   1.076   5.169   3.084
 4950TIP3    H114727   1.131   5.160   3.005
 4950TIP3    H214728   1.124   5.113   3.147
 4951TIP3   OH214729   1.531   5.307   2.218
 4951TIP3    H114730   1.489   5.394   2.237
 4951TIP3    H214731   1.479   5.249   2.279
 4952TIP3   OH214732   0.955   5.103   3.699
 4952TIP3    H114733   0.983   5.089   3.791
 4952TIP3    H214734   0.891   5.031   3.685
 4953TIP3   OH214735   1.684   5.212   3.717
 4953TIP3    H114736   1.627   5.156   3.662
 4953TIP3    H214737   1.773   5.180   3.690
 4954TIP3   OH214738   1.949   5.741   3.296
 4954TIP3    H114739   1.853   5.732   3.310
 4954TIP3    H214740   1.975   5.788   3.378
 4955TIP3   OH214741   2.360   4.804   2.208
 4955TIP3    H114742   2.297   4.758   2.148
 4955TIP3    H214743   2.354   4.893   2.167
 4956TIP3   OH214744   2.575   5.663   3.290
 4956TIP3    H114745   2.477   5.658   3.282
 4956TIP3    H214746   2.601   5.633   3.200
 4957TIP3   OH214747   2.058   5.625   2.118
 4957TIP3    H114748   2.031   5.557   2.181
 4957TIP3    H214749   2.067   5.576   2.035
 4958TIP3   OH214750   2.055   5.255   2.959
 4958TIP3    H114751   1.961   5.227   2.973
 4958TIP3    H214752   2.088   5.176   2.913
 4959TIP3   OH214753   1.140   5.522   2.744
 4959TIP3    H114754   1.204   5.537   2.673
 4959TIP3    H214755   1.092   5.445   2.711
 4960TIP3   OH214756   0.741   4.787   2.409
 4960TIP3    H114757   0.791   4.869   2.430
 4960TIP3    H214758   0.666   4.794   2.471
 4961TIP3   OH214759   1.448   5.827   3.180
 4961TIP3    H114760   1.489   5.897   3.128
 4961TIP3    H214761   1.524   5.790   3.228
 4962TIP3   OH214762   1.088   5.735   2.538
 4962TIP3    H114763   1.018   5.722   2.605
 4962TIP3    H214764   1.122   5.823   2.560
 4963TIP3   OH214765   1.843   5.462   3.134
 4963TIP3    H114766   1.833   5.459   3.232
 4963TIP3    H214767   1.918   5.402   3.121
 4964TIP3   OH214768   1.808   5.355   2.017
 4964TIP3    H114769   1.863   5.329   2.095
 4964TIP3    H214770   1.721   5.327   2.049
 4965TIP3   OH214771   2.087   5.996   3.189
 4965TIP3    H114772   2.010   5.936   3.183
 4965TIP3    H214773   2.069   6.059   3.116
 4966TIP3   OH214774   2.153   5.830   1.839
 4966TIP3    H114775   2.190   5.903   1.787
 4966TIP3    H214776   2.072   5.874   1.872
 4967TIP3   OH214777   1.174   4.606   3.707
 4967TIP3    H114778   1.078   4.610   3.722
 4967TIP3    H214779   1.203   4.545   3.777
 4968TIP3   OH214780   1.971   5.284   2.229
 4968TIP3    H114781   1.957   5.223   2.304
 4968TIP3    H214782   2.068   5.284   2.223
 4969TIP3   OH214783   0.884   5.691   3.340
 4969TIP3    H114784   0.939   5.614   3.361
 4969TIP3    H214785   0.919   5.756   3.403
 4970TIP3   OH214786   1.175   5.337   2.021
 4970TIP3    H114787   1.193   5.248   1.986
 4970TIP3    H214788   1.161   5.318   2.115
 4971TIP3   OH214789   1.121   5.337   2.296
 4971TIP3    H114790   1.195   5.304   2.349
 4971TIP3    H214791   1.133   5.434   2.302
 4972TIP3   OH214792   0.856   5.030   2.492
 4972TIP3    H114793   0.794   5.079   2.550
 4972TIP3    H214794   0.882   5.100   2.430
 4973TIP3   OH214795   2.006   4.670   3.386
 4973TIP3    H114796   2.087   4.707   3.425
 4973TIP3    H214797   1.992   4.589   3.439
 4974TIP3   OH214798   1.886   4.422   2.548
 4974TIP3    H114799   1.873   4.446   2.454
 4974TIP3    H214800   1.925   4.504   2.585
 4975TIP3   OH214801   1.389   5.538   2.241
 4975TIP3    H114802   1.303   5.567   2.276
 4975TIP3    H214803   1.403   5.599   2.169
 4976TIP3   OH214804   1.580   4.597   2.651
 4976TIP3    H114805   1.643   4.670   2.633
 4976TIP3    H214806   1.583   4.594   2.749
 4977TIP3   OH214807   1.845   4.919   3.463
 4977TIP3    H114808   1.865   4.974   3.541
 4977TIP3    H214809   1.902   4.842   3.476
 4978TIP3   OH214810   1.724   4.329   2.757
 4978TIP3    H114811   1.712   4.407   2.815
 4978TIP3    H214812   1.783   4.367   2.688
 4979TIP3   OH214813   1.131   5.613   2.301
 4979TIP3    H114814   1.100   5.684   2.242
 4979TIP3    H214815   1.114   5.654   2.389
 4980TIP3   OH214816   1.233   4.324   2.546
 4980TIP3    H114817   1.232   4.417   2.578
 4980TIP3    H214818   1.329   4.306   2.554
 4981TIP3   OH214819   2.490   4.819   3.439
 4981TIP3    H114820   2.392   4.818   3.449
 4981TIP3    H214821   2.498   4.779   3.352
 4982TIP3   OH214822   2.139   5.014   2.829
 4982TIP3    H114823   2.062   4.955   2.841
 4982TIP3    H214824   2.210   4.966   2.877
 4983TIP3   OH214825   0.849   5.250   2.296
 4983TIP3    H114826   0.922   5.314   2.310
 4983TIP3    H214827   0.894   5.191   2.232
 4984TIP3   OH214828   0.794   4.516   2.435
 4984TIP3    H114829   0.798   4.614   2.428
 4984TIP3    H214830   0.712   4.497   2.389
 4985TIP3   OH214831   2.106   5.970   2.780
 4985TIP3    H114832   2.064   6.016   2.705
 4985TIP3    H214833   2.200   5.988   2.760
 4986TIP3   OH214834   1.181   4.239   3.309
 4986TIP3    H114835   1.151   4.207   3.221
 4986TIP3    H214836   1.171   4.159   3.365
 4987TIP3   OH214837   0.725   5.460   2.693
 4987TIP3    H114838   0.645   5.492   2.736
 4987TIP3    H214839   0.712   5.495   2.603
 4988TIP3   OH214840   0.877   5.994   3.758
 4988TIP3    H114841   0.963   5.995   3.805
 4988TIP3    H214842   0.857   5.899   3.757
 4989TIP3   OH214843   1.362   5.966   3.801
 4989TIP3    H114844   1.456   5.944   3.811
 4989TIP3    H214845   1.337   5.907   3.727
 4990TIP3   OH214846   1.344   5.538   1.936
 4990TIP3    H114847   1.286   5.467   1.972
 4990TIP3    H214848   1.417   5.485   1.901
 4991TIP3   OH214849   1.999   5.869   3.536
 4991TIP3    H114850   1.990   5.798   3.604
 4991TIP3    H214851   2.077   5.918   3.567
 4992TIP3   OH214852   1.781   5.583   1.843
 4992TIP3    H114853   1.821   5.516   1.901
 4992TIP3    H214854   1.837   5.580   1.764
 4993TIP3   OH214855   1.008   5.403   3.960
 4993TIP3    H114856   1.026   5.307   3.962
 4993TIP3    H214857   0.921   5.405   3.916
 4994TIP3   OH214858   0.985   5.056   2.154
 4994TIP3    H114859   1.041   5.021   2.226
 4994TIP3    H214860   1.052   5.060   2.082
 4995TIP3   OH214861   1.617   5.487   3.732
 4995TIP3    H114862   1.575   5.501   3.645
 4995TIP3    H214863   1.649   5.394   3.726
 4996TIP3   OH214864   1.490   5.252   1.955
 4996TIP3    H114865   1.496   5.267   2.052
 4996TIP3    H214866   1.491   5.154   1.952
 4997TIP3   OH214867   2.111   5.494   3.339
 4997TIP3    H114868   2.182   5.543   3.294
 4997TIP3    H214869   2.036   5.554   3.326
 4998TIP3   OH214870   1.126   5.133   3.940
 4998TIP3    H114871   1.203   5.080   3.919
 4998TIP3    H214872   1.151   5.168   4.029
 4999TIP3   OH214873   1.184   4.958   2.370
 4999TIP3    H114874   1.169   4.926   2.461
 4999TIP3    H214875   1.224   4.880   2.327
 5000TIP3   OH214876   1.461   5.020   3.601
 5000TIP3    H114877   1.386   5.083   3.606
 5000TIP3    H214878   1.510   5.054   3.523
 5001TIP3   OH214879   1.293   4.747   2.217
 5001TIP3    H114880   1.267   4.751   2.123
 5001TIP3    H214881   1.391   4.757   2.209
 5002TIP3   OH214882   1.979   5.425   3.737
 5002TIP3    H114883   2.060   5.404   3.688
 5002TIP3    H214884   1.978   5.356   3.806
 5003TIP3   OH214885   2.120   5.086   1.874
 5003TIP3    H114886   2.096   5.036   1.794
 5003TIP3    H214887   2.086   5.175   1.849
 5004TIP3   OH214888   1.584   4.809   3.731
 5004TIP3    H114889   1.586   4.729   3.675
 5004TIP3    H214890   1.543   4.875   3.671
 5005TIP3   OH214891   1.588   4.595   3.537
 5005TIP3    H114892   1.616   4.638   3.454
 5005TIP3    H214893   1.494   4.573   3.517
 5006TIP3   OH214894   1.619   5.135   3.411
 5006TIP3    H114895   1.699   5.138   3.357
 5006TIP3    H214896   1.562   5.202   3.367
 5007TIP3   OH214897   2.200   5.101   3.792
 5007TIP3    H114898   2.248   5.017   3.801
 5007TIP3    H214899   2.269   5.159   3.757
 5008TIP3   OH214900   2.241   5.352   3.528
 5008TIP3    H114901   2.183   5.405   3.468
 5008TIP3    H214902   2.328   5.371   3.487
 5009TIP3   OH214903   1.460   4.926   3.957
 5009TIP3    H114904   1.393   4.857   3.971
 5009TIP3    H214905   1.498   4.900   3.871
 5010TIP3   OH214906   1.721   4.361   3.600
 5010TIP3    H114907   1.673   4.444   3.579
 5010TIP3    H214908   1.651   4.294   3.589
 5011TIP3   OH214909   1.847   4.868   3.818
 5011TIP3    H114910   1.838   4.855   3.915
 5011TIP3    H214911   1.756   4.841   3.791
 5012TIP3   OH214912   2.087   4.815   3.673
 5012TIP3    H114913   2.011   4.816   3.734
 5012TIP3    H214914   2.159   4.783   3.731
 5013TIP3   OH214915   2.317   4.754   3.826
 5013TIP3    H114916   2.328   4.659   3.845
 5013TIP3    H214917   2.312   4.794   3.915
 5014TIP3   OH214918   1.302   4.705   4.011
 5014TIP3    H114919   1.313   4.616   3.974
 5014TIP3    H214920   1.339   4.692   4.100
 5015TIP3   OH214921   1.816   4.371   3.858
 5015TIP3    H114922   1.884   4.301   3.854
 5015TIP3    H214923   1.777   4.363   3.768
 5016TIP3   OH214924   1.882   4.587   4.015
 5016TIP3    H114925   1.859   4.515   3.952
 5016TIP3    H214926   1.803   4.645   4.010
 5017TIP3   OH214927   1.102   5.823   2.119
 5017TIP3    H114928   1.198   5.813   2.102
 5017TIP3    H214929   1.072   5.855   2.034
 5018TIP3   OH214930   0.582   5.196   2.336
 5018TIP3    H114931   0.677   5.219   2.322
 5018TIP3    H214932   0.578   5.107   2.296
 5019TIP3   OH214933   0.491   5.812   2.750
 5019TIP3    H114934   0.427   5.745   2.717
 5019TIP3    H214935   0.539   5.758   2.816
 5020TIP3   OH214936   0.626   5.668   2.937
 5020TIP3    H114937   0.623   5.588   2.991
 5020TIP3    H214938   0.682   5.725   2.994
 5021TIP3   OH214939   2.357   6.064   2.733
 5021TIP3    H114940   2.384   6.093   2.822
 5021TIP3    H214941   2.422   6.108   2.676
 5022TIP3   OH214942   2.390   6.081   3.015
 5022TIP3    H114943   2.345   5.994   3.012
 5022TIP3    H214944   2.463   6.059   3.074
 5023TIP3   OH214945   2.435   5.758   3.589
 5023TIP3    H114946   2.361   5.765   3.653
 5023TIP3    H214947   2.475   5.846   3.594
 5024TIP3   OH214948   2.252   5.272   2.211
 5024TIP3    H114949   2.323   5.333   2.186
 5024TIP3    H214950   2.291   5.230   2.291
 5025TIP3   OH214951   2.378   5.139   2.414
 5025TIP3    H114952   2.312   5.095   2.472
 5025TIP3    H214953   2.441   5.177   2.478
 5026TIP3   OH214954   2.432   5.529   2.847
 5026TIP3    H114955   2.485   5.465   2.796
 5026TIP3    H214956   2.419   5.602   2.783
 5027TIP3   OH214957   2.266   5.831   3.041
 5027TIP3    H114958   2.194   5.870   3.095
 5027TIP3    H214959   2.215   5.781   2.974
 5028TIP3   OH214960   2.318   5.047   2.061
 5028TIP3    H114961   2.245   5.048   1.994
 5028TIP3    H214962   2.289   5.122   2.117
 5029TIP3   OH214963   2.189   4.722   2.015
 5029TIP3    H114964   2.144   4.755   1.936
 5029TIP3    H214965   2.163   4.627   2.011
 5030TIP3   OH214966   2.195   4.993   2.560
 5030TIP3    H114967   2.201   4.896   2.555
 5030TIP3    H214968   2.181   5.008   2.657
 5031TIP3   OH214969   0.820   5.068   3.306
 5031TIP3    H114970   0.821   5.039   3.212
 5031TIP3    H214971   0.917   5.071   3.324
 5032TIP3   OH214972   2.482   5.418   3.417
 5032TIP3    H114973   2.555   5.353   3.409
 5032TIP3    H214974   2.509   5.488   3.356
 5033TIP3   OH214975   2.669   5.227   3.438
 5033TIP3    H114976   2.594   5.176   3.476
 5033TIP3    H214977   2.741   5.162   3.451
 5034TIP3   OH214978   2.129   4.458   2.012
 5034TIP3    H114979   2.209   4.423   2.055
 5034TIP3    H214980   2.061   4.392   2.030
 5035TIP3   OH214981   2.189   4.710   2.458
 5035TIP3    H114982   2.229   4.621   2.474
 5035TIP3    H214983   2.248   4.742   2.387
 5036TIP3   OH214984   2.352   4.886   2.951
 5036TIP3    H114985   2.438   4.913   2.911
 5036TIP3    H214986   2.364   4.922   3.041
 5037TIP3   OH214987   2.419   5.028   3.185
 5037TIP3    H114988   2.340   5.062   3.232
 5037TIP3    H214989   2.451   5.109   3.139
 5038TIP3   OH214990   1.034   4.755   3.978
 5038TIP3    H114991   1.133   4.750   3.981
 5038TIP3    H214992   1.012   4.671   4.023
 5039TIP3   OH214993   2.872   4.618   3.740
 5039TIP3    H114994   2.929   4.551   3.697
 5039TIP3    H214995   2.844   4.674   3.665
 5040TIP3   OH214996   2.297   4.460   2.495
 5040TIP3    H114997   2.346   4.443   2.578
 5040TIP3    H214998   2.238   4.382   2.492
 5041TIP3   OH214999   0.997   4.447   3.317
 5041TIP3    H115000   1.061   4.373   3.325
 5041TIP3    H215001   1.058   4.522   3.308
 5042TIP3   OH215002   0.801   4.721   3.387
 5042TIP3    H115003   0.851   4.712   3.303
 5042TIP3    H215004   0.832   4.807   3.416
 5043TIP3   OH215005   2.744   4.761   3.547
 5043TIP3    H115006   2.656   4.798   3.568
 5043TIP3    H215007   2.717   4.689   3.487
 5044TIP3   OH215008   2.380   4.397   2.124
 5044TIP3    H115009   2.417   4.320   2.075
 5044TIP3    H215010   2.451   4.463   2.113
 5045TIP3   OH215011   0.783   4.220   2.885
 5045TIP3    H115012   0.689   4.225   2.911
 5045TIP3    H215013   0.785   4.281   2.808
 5046TIP3   OH215014   1.941   5.930   2.390
 5046TIP3    H115015   1.993   5.910   2.310
 5046TIP3    H215016   2.000   5.991   2.438
 5047TIP3   OH215017   1.003   4.303   3.702
 5047TIP3    H115018   0.954   4.300   3.785
 5047TIP3    H215019   0.937   4.342   3.642
 5048TIP3   OH215020   1.044   5.731   3.780
 5048TIP3    H115021   0.953   5.701   3.762
 5048TIP3    H215022   1.053   5.712   3.874
 5049TIP3   OH215023   1.220   5.762   3.327
 5049TIP3    H115024   1.173   5.838   3.287
 5049TIP3    H215025   1.306   5.774   3.283
 5050TIP3   OH215026   1.669   6.009   3.464
 5050TIP3    H115027   1.711   6.009   3.553
 5050TIP3    H215028   1.736   6.059   3.412
 5051TIP3   OH215029   1.847   6.159   3.320
 5051TIP3    H115030   1.918   6.106   3.281
 5051TIP3    H215031   1.899   6.216   3.382
 5052TIP3   OH215032   2.641   4.523   3.423
 5052TIP3    H115033   2.549   4.518   3.390
 5052TIP3    H215034   2.670   4.429   3.410
 5053TIP3   OH215035   0.899   6.022   3.346
 5053TIP3    H115036   0.810   6.057   3.326
 5053TIP3    H215037   0.909   6.050   3.438
 5054TIP3   OH215038   1.136   6.001   3.207
 5054TIP3    H115039   1.050   6.013   3.252
 5054TIP3    H215040   1.115   6.030   3.116
 5055TIP3   OH215041   1.563   6.030   3.003
 5055TIP3    H115042   1.491   6.051   2.939
 5055TIP3    H215043   1.575   6.116   3.048
 5056TIP3   OH215044   1.830   5.970   3.056
 5056TIP3    H115045   1.735   5.984   3.035
 5056TIP3    H215046   1.871   6.047   3.015
 5057TIP3   OH215047   2.040   6.162   2.973
 5057TIP3    H115048   2.025   6.245   2.924
 5057TIP3    H215049   2.064   6.100   2.901
 5058TIP3   OH215050   0.808   5.815   3.097
 5058TIP3    H115051   0.837   5.790   3.188
 5058TIP3    H215052   0.881   5.772   3.046
 5059TIP3   OH215053   1.001   5.691   2.956
 5059TIP3    H115054   1.019   5.600   2.987
 5059TIP3    H215055   1.093   5.721   2.939
 5060TIP3   OH215056   1.273   5.785   2.948
 5060TIP3    H115057   1.295   5.692   2.929
 5060TIP3    H215058   1.314   5.795   3.035
 5061TIP3   OH215059   1.849   4.439   3.043
 5061TIP3    H115060   1.803   4.369   3.093
 5061TIP3    H215061   1.918   4.389   2.995
 5062TIP3   OH215062   2.371   4.318   2.950
 5062TIP3    H115063   2.408   4.369   2.874
 5062TIP3    H215064   2.276   4.335   2.941
 5063TIP3   OH215065   2.464   4.420   2.713
 5063TIP3    H115066   2.536   4.367   2.671
 5063TIP3    H215067   2.497   4.511   2.696
 5064TIP3   OH215068   1.095   4.145   3.061
 5064TIP3    H115069   1.003   4.112   3.058
 5064TIP3    H215070   1.145   4.061   3.056
 5065TIP3   OH215071   0.879   4.013   2.703
 5065TIP3    H115072   0.912   4.072   2.632
 5065TIP3    H215073   0.850   4.079   2.770
 5066TIP3   OH215074   1.537   4.177   2.939
 5066TIP3    H115075   1.594   4.229   2.880
 5066TIP3    H215076   1.558   4.217   3.025
 5067TIP3   OH215077   2.089   4.323   2.923
 5067TIP3    H115078   2.083   4.291   2.833
 5067TIP3    H215079   2.072   4.241   2.975
 5068TIP3   OH215080   2.114   4.247   2.484
 5068TIP3    H115081   2.027   4.289   2.494
 5068TIP3    H215082   2.099   4.162   2.531
 5069TIP3   OH215083   0.598   5.581   2.487
 5069TIP3    H115084   0.515   5.548   2.450
 5069TIP3    H215085   0.586   5.676   2.474
 5070TIP3   OH215086   0.997   4.172   2.473
 5070TIP3    H115087   1.048   4.114   2.413
 5070TIP3    H215088   1.068   4.230   2.508
 5071TIP3   OH215089   1.511   4.347   2.569
 5071TIP3    H115090   1.574   4.304   2.630
 5071TIP3    H215091   1.529   4.441   2.592
 5072TIP3   OH215092   1.366   5.781   2.060
 5072TIP3    H115093   1.458   5.798   2.031
 5072TIP3    H215094   1.348   5.701   2.006
 5073TIP3   OH215095   2.090   5.892   2.160
 5073TIP3    H115096   2.082   5.794   2.148
 5073TIP3    H215097   2.045   5.923   2.079
 5074TIP3   OH215098   1.302   4.424   3.948
 5074TIP3    H115099   1.271   4.355   4.008
 5074TIP3    H215100   1.397   4.427   3.973
 5075TIP3   OH215101   1.550   4.423   4.068
 5075TIP3    H115102   1.636   4.399   4.029
 5075TIP3    H215103   1.540   4.353   4.135
 5076TIP3   OH215104   0.680   5.627   2.125
 5076TIP3    H115105   0.677   5.634   2.221
 5076TIP3    H215106   0.764   5.577   2.111
 5077TIP3   OH215107   2.375   4.483   3.857
 5077TIP3    H115108   2.395   4.452   3.948
 5077TIP3    H215109   2.463   4.479   3.814
 5078TIP3   OH215110   2.318   6.038   3.348
 5078TIP3    H115111   2.238   6.005   3.302
 5078TIP3    H215112   2.296   6.133   3.351
 5079TIP3   OH215113   3.583   5.409   2.115
 5079TIP3    H115114   3.556   5.501   2.097
 5079TIP3    H215115   3.503   5.361   2.087
 5080TIP3   OH215116   3.577   5.408   2.494
 5080TIP3    H115117   3.610   5.379   2.581
 5080TIP3    H215118   3.537   5.327   2.460
 5081TIP3   OH215119   2.881   5.306   2.859
 5081TIP3    H115120   2.912   5.239   2.923
 5081TIP3    H215121   2.959   5.363   2.855
 5082TIP3   OH215122   3.820   5.713   2.175
 5082TIP3    H115123   3.811   5.640   2.239
 5082TIP3    H215124   3.851   5.785   2.232
 5083TIP3   OH215125   2.850   5.714   2.586
 5083TIP3    H115126   2.840   5.616   2.590
 5083TIP3    H215127   2.947   5.722   2.585
 5084TIP3   OH215128   2.559   4.923   2.373
 5084TIP3    H115129   2.505   5.003   2.385
 5084TIP3    H215130   2.491   4.862   2.340
 5085TIP3   OH215131   2.619   5.206   2.541
 5085TIP3    H115132   2.666   5.129   2.580
 5085TIP3    H215133   2.675   5.227   2.465
 5086TIP3   OH215134   3.469   6.173   2.191
 5086TIP3    H115135   3.519   6.101   2.147
 5086TIP3    H215136   3.465   6.140   2.282
 5087TIP3   OH215137   3.380   5.635   2.542
 5087TIP3    H115138   3.417   5.556   2.497
 5087TIP3    H215139   3.464   5.679   2.566
 5088TIP3   OH215140   4.389   4.955   2.540
 5088TIP3    H115141   4.419   5.037   2.586
 5088TIP3    H215142   4.414   4.976   2.448
 5089TIP3   OH215143   3.792   5.138   2.578
 5089TIP3    H115144   3.834   5.053   2.598
 5089TIP3    H215145   3.761   5.122   2.486
 5090TIP3   OH215146   3.128   4.796   2.542
 5090TIP3    H115147   3.106   4.868   2.480
 5090TIP3    H215148   3.081   4.721   2.498
 5091TIP3   OH215149   3.822   4.886   2.165
 5091TIP3    H115150   3.894   4.870   2.231
 5091TIP3    H215151   3.874   4.922   2.091
 5092TIP3   OH215152   2.763   4.999   2.648
 5092TIP3    H115153   2.845   4.977   2.696
 5092TIP3    H215154   2.773   4.942   2.570
 5093TIP3   OH215155   3.205   5.197   2.438
 5093TIP3    H115156   3.297   5.170   2.454
 5093TIP3    H215157   3.164   5.112   2.409
 5094TIP3   OH215158   4.463   5.159   2.712
 5094TIP3    H115159   4.381   5.209   2.694
 5094TIP3    H215160   4.482   5.188   2.803
 5095TIP3   OH215161   3.126   4.779   2.976
 5095TIP3    H115162   3.065   4.815   2.909
 5095TIP3    H215163   3.075   4.797   3.058
 5096TIP3   OH215164   3.479   5.633   1.984
 5096TIP3    H115165   3.428   5.604   1.907
 5096TIP3    H215166   3.434   5.717   2.006
 5097TIP3   OH215167   3.232   5.554   2.774
 5097TIP3    H115168   3.168   5.617   2.812
 5097TIP3    H215169   3.274   5.608   2.704
 5098TIP3   OH215170   4.034   4.888   2.334
 5098TIP3    H115171   4.028   4.836   2.415
 5098TIP3    H215172   4.090   4.963   2.361
 5099TIP3   OH215173   2.996   4.894   2.761
 5099TIP3    H115174   3.059   4.967   2.783
 5099TIP3    H215175   3.044   4.852   2.686
 5100TIP3   OH215176   3.058   5.746   2.868
 5100TIP3    H115177   3.032   5.832   2.830
 5100TIP3    H215178   2.980   5.730   2.926
 5101TIP3   OH215179   2.460   5.437   2.105
 5101TIP3    H115180   2.412   5.463   2.024
 5101TIP3    H215181   2.486   5.523   2.143
 5102TIP3   OH215182   3.894   5.952   2.345
 5102TIP3    H115183   3.804   5.944   2.385
 5102TIP3    H215184   3.887   6.039   2.301
 5103TIP3   OH215185   4.184   4.855   2.707
 5103TIP3    H115186   4.097   4.887   2.678
 5103TIP3    H215187   4.243   4.887   2.636
 5104TIP3   OH215188   3.485   4.500   2.689
 5104TIP3    H115189   3.472   4.405   2.706
 5104TIP3    H215190   3.406   4.537   2.735
 5105TIP3   OH215191   3.599   6.001   2.021
 5105TIP3    H115192   3.650   5.919   2.000
 5105TIP3    H215193   3.657   6.068   1.978
 5106TIP3   OH215194   3.742   5.787   1.921
 5106TIP3    H115195   3.698   5.708   1.887
 5106TIP3    H215196   3.776   5.754   2.007
 5107TIP3   OH215197   4.120   5.869   2.688
 5107TIP3    H115198   4.111   5.790   2.630
 5107TIP3    H215199   4.106   5.942   2.625
 5108TIP3   OH215200   3.411   5.259   1.943
 5108TIP3    H115201   3.331   5.311   1.921
 5108TIP3    H215202   3.460   5.259   1.860
 5109TIP3   OH215203   3.371   5.046   1.659
 5109TIP3    H115204   3.436   5.092   1.715
 5109TIP3    H215205   3.430   4.981   1.616
 5110TIP3   OH215206   4.315   5.501   2.531
 5110TIP3    H115207   4.234   5.555   2.538
 5110TIP3    H215208   4.345   5.525   2.441
 5111TIP3   OH215209   3.759   5.343   1.917
 5111TIP3    H115210   3.705   5.367   1.996
 5111TIP3    H215211   3.842   5.315   1.960
 5112TIP3   OH215212   3.995   5.384   2.827
 5112TIP3    H115213   3.992   5.467   2.877
 5112TIP3    H215214   3.908   5.388   2.782
 5113TIP3   OH215215   2.993   5.343   2.331
 5113TIP3    H115216   2.951   5.283   2.265
 5113TIP3    H215217   3.069   5.288   2.361
 5114TIP3   OH215218   3.124   5.756   2.480
 5114TIP3    H115219   3.101   5.704   2.402
 5114TIP3    H215220   3.214   5.722   2.501
 5115TIP3   OH215221   3.131   5.311   2.688
 5115TIP3    H115222   3.163   5.293   2.597
 5115TIP3    H215223   3.172   5.398   2.709
 5116TIP3   OH215224   3.652   5.950   2.464
 5116TIP3    H115225   3.640   6.029   2.520
 5116TIP3    H215226   3.640   5.876   2.527
 5117TIP3   OH215227   3.265   5.870   3.011
 5117TIP3    H115228   3.206   5.932   3.058
 5117TIP3    H215229   3.198   5.816   2.963
 5118TIP3   OH215230   3.600   5.203   1.743
 5118TIP3    H115231   3.660   5.259   1.797
 5118TIP3    H215232   3.627   5.229   1.651
 5119TIP3   OH215233   3.018   5.428   3.109
 5119TIP3    H115234   3.023   5.513   3.157
 5119TIP3    H215235   2.923   5.408   3.119
 5120TIP3   OH215236   3.343   5.882   2.014
 5120TIP3    H115237   3.419   5.935   2.042
 5120TIP3    H215238   3.279   5.948   1.986
 5121TIP3   OH215239   3.060   6.040   3.099
 5121TIP3    H115240   3.025   6.035   3.008
 5121TIP3    H215241   2.981   6.018   3.153
 5122TIP3   OH215242   4.116   4.444   1.790
 5122TIP3    H115243   4.035   4.462   1.843
 5122TIP3    H215244   4.127   4.528   1.742
 5123TIP3   OH215245   2.859   5.184   2.136
 5123TIP3    H115246   2.791   5.227   2.081
 5123TIP3    H215247   2.818   5.099   2.155
 5124TIP3   OH215248   3.916   5.811   1.338
 5124TIP3    H115249   3.929   5.907   1.326
 5124TIP3    H215250   4.008   5.778   1.325
 5125TIP3   OH215251   2.640   5.568   3.045
 5125TIP3    H115252   2.574   5.544   2.977
 5125TIP3    H215253   2.676   5.480   3.071
 5126TIP3   OH215254   2.493   5.763   2.675
 5126TIP3    H115255   2.589   5.753   2.670
 5126TIP3    H215256   2.484   5.839   2.734
 5127TIP3   OH215257   4.355   6.210   2.730
 5127TIP3    H115258   4.357   6.113   2.744
 5127TIP3    H215259   4.273   6.233   2.778
 5128TIP3   OH215260   3.464   5.999   2.868
 5128TIP3    H115261   3.464   6.092   2.901
 5128TIP3    H215262   3.393   5.960   2.923
 5129TIP3   OH215263   3.224   6.133   1.819
 5129TIP3    H115264   3.168   6.112   1.742
 5129TIP3    H215265   3.191   6.221   1.846
 5130TIP3   OH215266   2.662   5.978   2.203
 5130TIP3    H115267   2.709   5.967   2.288
 5130TIP3    H215268   2.603   5.900   2.206
 5131TIP3   OH215269   3.467   6.069   1.464
 5131TIP3    H115270   3.506   5.985   1.430
 5131TIP3    H215271   3.471   6.049   1.562
 5132TIP3   OH215272   3.468   6.062   1.728
 5132TIP3    H115273   3.385   6.082   1.776
 5132TIP3    H215274   3.526   6.035   1.801
 5133TIP3   OH215275   4.248   5.343   3.008
 5133TIP3    H115276   4.168   5.356   2.954
 5133TIP3    H215277   4.263   5.247   2.998
 5134TIP3   OH215278   2.845   5.751   3.037
 5134TIP3    H115279   2.895   5.734   3.119
 5134TIP3    H215280   2.771   5.687   3.044
 5135TIP3   OH215281   3.244   4.575   2.816
 5135TIP3    H115282   3.154   4.543   2.792
 5135TIP3    H215283   3.219   4.658   2.862
 5136TIP3   OH215284   3.776   4.691   3.012
 5136TIP3    H115285   3.844   4.663   3.077
 5136TIP3    H215286   3.692   4.670   3.057
 5137TIP3   OH215287   4.018   5.118   2.930
 5137TIP3    H115288   3.970   5.115   3.016
 5137TIP3    H215289   3.993   5.206   2.896
 5138TIP3   OH215290   3.672   5.257   1.486
 5138TIP3    H115291   3.644   5.223   1.398
 5138TIP3    H215292   3.757   5.299   1.463
 5139TIP3   OH215293   3.388   4.630   1.786
 5139TIP3    H115294   3.359   4.624   1.879
 5139TIP3    H215295   3.351   4.545   1.753
 5140TIP3   OH215296   3.176   5.089   2.837
 5140TIP3    H115297   3.124   5.110   2.918
 5140TIP3    H215298   3.159   5.170   2.783
 5141TIP3   OH215299   3.058   4.977   2.351
 5141TIP3    H115300   2.966   4.948   2.369
 5141TIP3    H215301   3.072   4.935   2.263
 5142TIP3   OH215302   3.551   5.063   2.078
 5142TIP3    H115303   3.496   5.133   2.037
 5142TIP3    H215304   3.605   5.033   2.002
 5143TIP3   OH215305   3.724   5.343   3.166
 5143TIP3    H115306   3.702   5.269   3.228
 5143TIP3    H215307   3.818   5.355   3.187
 5144TIP3   OH215308   3.709   5.092   2.318
 5144TIP3    H115309   3.649   5.121   2.246
 5144TIP3    H215310   3.741   5.009   2.277
 5145TIP3   OH215311   2.994   5.120   3.046
 5145TIP3    H115312   3.020   5.182   3.115
 5145TIP3    H215313   2.982   5.037   3.096
 5146TIP3   OH215314   3.043   4.600   1.758
 5146TIP3    H115315   3.045   4.591   1.856
 5146TIP3    H215316   2.949   4.621   1.746
 5147TIP3   OH215317   2.585   4.646   2.627
 5147TIP3    H115318   2.666   4.671   2.677
 5147TIP3    H215319   2.620   4.607   2.545
 5148TIP3   OH215320   2.567   4.625   2.144
 5148TIP3    H115321   2.614   4.662   2.067
 5148TIP3    H215322   2.504   4.697   2.164
 5149TIP3   OH215323   3.717   5.339   2.741
 5149TIP3    H115324   3.750   5.266   2.683
 5149TIP3    H215325   3.690   5.288   2.819
 5150TIP3   OH215326   3.385   4.803   2.413
 5150TIP3    H115327   3.302   4.797   2.464
 5150TIP3    H215328   3.452   4.798   2.483
 5151TIP3   OH215329   2.821   4.853   2.420
 5151TIP3    H115330   2.726   4.859   2.395
 5151TIP3    H215331   2.843   4.760   2.398
 5152TIP3   OH215332   3.093   4.853   2.110
 5152TIP3    H115333   3.187   4.864   2.089
 5152TIP3    H215334   3.047   4.876   2.026
 5153TIP3   OH215335   3.877   4.874   2.613
 5153TIP3    H115336   3.842   4.885   2.705
 5153TIP3    H215337   3.813   4.811   2.576
 5154TIP3   OH215338   2.929   4.892   1.890
 5154TIP3    H115339   2.848   4.844   1.864
 5154TIP3    H215340   2.964   4.917   1.803
 5155TIP3   OH215341   4.045   6.562   2.831
 5155TIP3    H115342   4.044   6.584   2.736
 5155TIP3    H215343   4.121   6.614   2.863
 5156TIP3   OH215344   3.006   5.673   3.255
 5156TIP3    H115345   3.085   5.703   3.303
 5156TIP3    H215346   2.941   5.672   3.328
 5157TIP3   OH215347   3.471   5.127   2.510
 5157TIP3    H115348   3.541   5.084   2.459
 5157TIP3    H215349   3.480   5.085   2.598
 5158TIP3   OH215350   2.997   4.613   2.386
 5158TIP3    H115351   2.961   4.534   2.431
 5158TIP3    H215352   3.046   4.574   2.312
 5159TIP3   OH215353   3.447   5.021   2.799
 5159TIP3    H115354   3.357   5.057   2.814
 5159TIP3    H215355   3.504   5.081   2.851
 5160TIP3   OH215356   3.184   5.415   1.893
 5160TIP3    H115357   3.112   5.349   1.884
 5160TIP3    H215358   3.168   5.449   1.985
 5161TIP3   OH215359   4.085   5.651   2.525
 5161TIP3    H115360   4.110   5.698   2.443
 5161TIP3    H215361   3.999   5.610   2.501
 5162TIP3   OH215362   3.640   4.730   1.749
 5162TIP3    H115363   3.545   4.711   1.763
 5162TIP3    H215364   3.651   4.822   1.779
 5163TIP3   OH215365   3.585   5.733   2.891
 5163TIP3    H115366   3.603   5.706   2.982
 5163TIP3    H215367   3.544   5.820   2.901
 5164TIP3   OH215368   3.712   4.973   1.857
 5164TIP3    H115369   3.808   4.976   1.876
 5164TIP3    H215370   3.697   5.053   1.804
 5165TIP3   OH215371   2.877   5.437   2.572
 5165TIP3    H115372   2.914   5.406   2.487
 5165TIP3    H215373   2.910   5.371   2.634
 5166TIP3   OH215374   3.324   5.562   1.708
 5166TIP3    H115375   3.280   5.649   1.720
 5166TIP3    H215376   3.273   5.507   1.772
 5167TIP3   OH215377   2.754   5.357   3.184
 5167TIP3    H115378   2.776   5.342   3.278
 5167TIP3    H215379   2.686   5.290   3.168
 5168TIP3   OH215380   3.480   5.469   3.204
 5168TIP3    H115381   3.421   5.410   3.153
 5168TIP3    H215382   3.568   5.436   3.176
 5169TIP3   OH215383   3.744   5.995   2.784
 5169TIP3    H115384   3.648   5.990   2.798
 5169TIP3    H215385   3.771   6.044   2.864
 5170TIP3   OH215386   4.154   5.060   1.696
 5170TIP3    H115387   4.090   5.015   1.636
 5170TIP3    H215388   4.152   5.149   1.654
 5171TIP3   OH215389   4.371   5.921   2.777
 5171TIP3    H115390   4.273   5.915   2.769
 5171TIP3    H215391   4.397   5.890   2.687
 5172TIP3   OH215392   3.844   5.884   1.600
 5172TIP3    H115393   3.831   5.815   1.667
 5172TIP3    H215394   3.867   5.832   1.520
 5173TIP3   OH215395   3.849   5.512   2.444
 5173TIP3    H115396   3.756   5.485   2.457
 5173TIP3    H215397   3.885   5.432   2.400
 5174TIP3   OH215398   2.974   5.737   2.191
 5174TIP3    H115399   2.974   5.820   2.141
 5174TIP3    H215400   2.880   5.723   2.206
 5175TIP3   OH215401   2.537   5.045   1.897
 5175TIP3    H115402   2.583   5.128   1.919
 5175TIP3    H215403   2.460   5.050   1.958
 5176TIP3   OH215404   3.119   5.507   2.139
 5176TIP3    H115405   3.081   5.595   2.158
 5176TIP3    H215406   3.083   5.454   2.213
 5177TIP3   OH215407   3.244   6.083   2.666
 5177TIP3    H115408   3.286   6.155   2.615
 5177TIP3    H215409   3.320   6.049   2.715
 5178TIP3   OH215410   2.895   5.978   2.047
 5178TIP3    H115411   2.810   5.984   2.094
 5178TIP3    H215412   2.926   6.071   2.052
 5179TIP3   OH215413   3.637   5.718   2.622
 5179TIP3    H115414   3.627   5.716   2.720
 5179TIP3    H215415   3.716   5.664   2.609
 5180TIP3   OH215416   3.603   5.613   1.506
 5180TIP3    H115417   3.661   5.588   1.582
 5180TIP3    H215418   3.518   5.583   1.541
 5181TIP3   OH215419   3.882   6.254   2.677
 5181TIP3    H115420   3.806   6.194   2.669
 5181TIP3    H215421   3.866   6.316   2.603
 5182TIP3   OH215422   3.947   6.095   1.331
 5182TIP3    H115423   4.008   6.154   1.282
 5182TIP3    H215424   3.864   6.138   1.308
 5183TIP3   OH215425   2.969   4.863   3.193
 5183TIP3    H115426   2.872   4.867   3.207
 5183TIP3    H215427   2.996   4.800   3.263
 5184TIP3   OH215428   3.766   5.542   1.719
 5184TIP3    H115429   3.756   5.478   1.792
 5184TIP3    H215430   3.864   5.542   1.710
 5185TIP3   OH215431   2.684   5.947   2.825
 5185TIP3    H115432   2.734   5.870   2.854
 5185TIP3    H215433   2.712   6.013   2.890
 5186TIP3   OH215434   2.977   5.596   1.505
 5186TIP3    H115435   2.984   5.503   1.476
 5186TIP3    H215436   2.958   5.584   1.600
 5187TIP3   OH215437   2.923   5.596   1.774
 5187TIP3    H115438   2.986   5.565   1.841
 5187TIP3    H215439   2.927   5.693   1.786
 5188TIP3   OH215440   2.658   5.291   1.979
 5188TIP3    H115441   2.591   5.333   2.038
 5188TIP3    H215442   2.670   5.362   1.914
 5189TIP3   OH215443   3.802   4.927   2.872
 5189TIP3    H115444   3.883   4.964   2.911
 5189TIP3    H215445   3.788   4.846   2.926
 5190TIP3   OH215446   3.682   4.681   2.035
 5190TIP3    H115447   3.670   4.705   1.941
 5190TIP3    H215448   3.723   4.762   2.073
 5191TIP3   OH215449   3.184   5.794   1.725
 5191TIP3    H115450   3.099   5.818   1.765
 5191TIP3    H215451   3.200   5.870   1.668
 5192TIP3   OH215452   3.375   4.858   2.140
 5192TIP3    H115453   3.442   4.928   2.124
 5192TIP3    H215454   3.378   4.850   2.238
 5193TIP3   OH215455   3.643   5.177   2.948
 5193TIP3    H115456   3.661   5.230   3.028
 5193TIP3    H215457   3.699   5.099   2.963
 5194TIP3   OH215458   3.521   4.588   2.246
 5194TIP3    H115459   3.515   4.665   2.305
 5194TIP3    H215460   3.579   4.624   2.175
 5195TIP3   OH215461   2.928   5.869   1.793
 5195TIP3    H115462   2.896   5.938   1.731
 5195TIP3    H215463   2.910   5.911   1.880
 5196TIP3   OH215464   3.033   4.582   2.033
 5196TIP3    H115465   3.033   4.671   2.072
 5196TIP3    H215466   3.128   4.558   2.042
 5197TIP3   OH215467   4.285   5.076   2.929
 5197TIP3    H115468   4.187   5.073   2.935
 5197TIP3    H215469   4.298   5.039   2.841
 5198TIP3   OH215470   3.935   5.271   2.316
 5198TIP3    H115471   3.860   5.211   2.329
 5198TIP3    H215472   4.007   5.225   2.364
 5199TIP3   OH215473   2.645   5.504   1.789
 5199TIP3    H115474   2.709   5.577   1.796
 5199TIP3    H215475   2.691   5.449   1.722
 5200TIP3   OH215476   2.600   4.778   1.912
 5200TIP3    H115477   2.584   4.874   1.912
 5200TIP3    H215478   2.516   4.741   1.882
 5201TIP3   OH215479   3.902   6.225   2.267
 5201TIP3    H115480   3.861   6.272   2.191
 5201TIP3    H215481   3.996   6.244   2.248
 5202TIP3   OH215482   2.979   4.495   2.795
 5202TIP3    H115483   2.947   4.462   2.708
 5202TIP3    H215484   2.968   4.416   2.852
 5203TIP3   OH215485   2.522   5.718   2.178
 5203TIP3    H115486   2.445   5.745   2.229
 5203TIP3    H215487   2.498   5.754   2.089
 5204TIP3   OH215488   2.673   6.251   3.244
 5204TIP3    H115489   2.759   6.250   3.292
 5204TIP3    H215490   2.651   6.156   3.244
 5205TIP3   OH215491   3.159   6.223   3.288
 5205TIP3    H115492   3.253   6.199   3.298
 5205TIP3    H215493   3.133   6.164   3.214
 5206TIP3   OH215494   3.142   5.797   1.418
 5206TIP3    H115495   3.083   5.730   1.459
 5206TIP3    H215496   3.212   5.738   1.385
 5207TIP3   OH215497   3.796   6.125   3.022
 5207TIP3    H115498   3.786   6.054   3.090
 5207TIP3    H215499   3.874   6.174   3.054
 5208TIP3   OH215500   3.573   5.848   1.332
 5208TIP3    H115501   3.613   5.780   1.390
 5208TIP3    H215502   3.627   5.839   1.251
 5209TIP3   OH215503   2.805   5.660   3.445
 5209TIP3    H115504   2.822   5.564   3.450
 5209TIP3    H215505   2.717   5.662   3.403
 5210TIP3   OH215506   2.780   5.316   1.641
 5210TIP3    H115507   2.832   5.279   1.715
 5210TIP3    H215508   2.848   5.319   1.571
 5211TIP3   OH215509   3.414   5.744   3.218
 5211TIP3    H115510   3.371   5.757   3.132
 5211TIP3    H215511   3.445   5.651   3.213
 5212TIP3   OH215512   3.289   5.505   1.442
 5212TIP3    H115513   3.290   5.524   1.538
 5212TIP3    H215514   3.287   5.407   1.443
 5213TIP3   OH215515   3.906   5.750   2.824
 5213TIP3    H115516   3.979   5.797   2.780
 5213TIP3    H215517   3.834   5.814   2.813
 5214TIP3   OH215518   2.924   5.393   3.426
 5214TIP3    H115519   2.997   5.332   3.409
 5214TIP3    H215520   2.947   5.426   3.515
 5215TIP3   OH215521   2.993   5.216   1.862
 5215TIP3    H115522   2.963   5.176   1.945
 5215TIP3    H215523   3.022   5.138   1.810
 5216TIP3   OH215524   3.259   5.279   3.090
 5216TIP3    H115525   3.182   5.340   3.094
 5216TIP3    H215526   3.306   5.312   3.010
 5217TIP3   OH215527   3.093   5.009   1.687
 5217TIP3    H115528   3.094   4.923   1.643
 5217TIP3    H215529   3.189   5.030   1.691
 5218TIP3   OH215530   3.776   5.681   3.223
 5218TIP3    H115531   3.857   5.661   3.176
 5218TIP3    H215532   3.774   5.613   3.293
 5219TIP3   OH215533   3.910   5.342   1.363
 5219TIP3    H115534   3.893   5.292   1.281
 5219TIP3    H215535   3.881   5.431   1.335
 5220TIP3   OH215536   3.382   5.066   3.217
 5220TIP3    H115537   3.382   4.985   3.162
 5220TIP3    H215538   3.338   5.131   3.158
 5221TIP3   OH215539   3.385   4.853   3.022
 5221TIP3    H115540   3.412   4.893   2.937
 5221TIP3    H215541   3.291   4.830   3.004
 5222TIP3   OH215542   3.415   5.390   2.895
 5222TIP3    H115543   3.496   5.395   2.843
 5222TIP3    H215544   3.359   5.458   2.852
 5223TIP3   OH215545   3.997   5.357   3.279
 5223TIP3    H115546   4.044   5.273   3.288
 5223TIP3    H215547   4.066   5.415   3.244
 5224TIP3   OH215548   4.037   5.609   3.014
 5224TIP3    H115549   3.979   5.662   2.953
 5224TIP3    H215550   4.124   5.628   2.973
 5225TIP3   OH215551   3.258   5.183   3.444
 5225TIP3    H115552   3.190   5.114   3.458
 5225TIP3    H215553   3.295   5.156   3.357
 5226TIP3   OH215554   3.517   4.618   3.087
 5226TIP3    H115555   3.469   4.700   3.066
 5226TIP3    H215556   3.447   4.551   3.076
 5227TIP3   OH215557   3.643   5.124   3.305
 5227TIP3    H115558   3.633   5.112   3.401
 5227TIP3    H215559   3.553   5.098   3.277
 5228TIP3   OH215560   3.883   5.072   3.160
 5228TIP3    H115561   3.807   5.072   3.221
 5228TIP3    H215562   3.956   5.040   3.218
 5229TIP3   OH215563   4.112   5.011   3.312
 5229TIP3    H115564   4.124   4.916   3.332
 5229TIP3    H215565   4.108   5.051   3.402
 5230TIP3   OH215566   3.100   4.962   3.496
 5230TIP3    H115567   3.107   4.871   3.460
 5230TIP3    H215568   3.135   4.948   3.587
 5231TIP3   OH215569   3.613   4.628   3.345
 5231TIP3    H115570   3.680   4.557   3.340
 5231TIP3    H215571   3.572   4.620   3.256
 5232TIP3   OH215572   3.677   4.842   3.505
 5232TIP3    H115573   3.655   4.771   3.441
 5232TIP3    H215574   3.600   4.901   3.498
 5233TIP3   OH215575   2.897   6.071   1.605
 5233TIP3    H115576   2.992   6.072   1.584
 5233TIP3    H215577   2.861   6.117   1.527
 5234TIP3   OH215578   2.376   5.453   1.820
 5234TIP3    H115579   2.472   5.474   1.810
 5234TIP3    H215580   2.371   5.364   1.780
 5235TIP3   OH215581   2.290   6.066   2.235
 5235TIP3    H115582   2.223   6.002   2.201
 5235TIP3    H215583   2.335   6.010   2.302
 5236TIP3   OH215584   2.427   5.921   2.422
 5236TIP3    H115585   2.417   5.844   2.481
 5236TIP3    H215586   2.477   5.980   2.481
 5237TIP3   OH215587   4.151   6.325   2.220
 5237TIP3    H115588   4.183   6.351   2.308
 5237TIP3    H215589   4.219   6.360   2.161
 5238TIP3   OH215590   4.186   6.338   2.503
 5238TIP3    H115591   4.142   6.251   2.499
 5238TIP3    H215592   4.261   6.314   2.560
 5239TIP3   OH215593   4.230   6.015   3.075
 5239TIP3    H115594   4.157   6.021   3.140
 5239TIP3    H215595   4.271   6.103   3.082
 5240TIP3   OH215596   4.046   5.530   1.697
 5240TIP3    H115597   4.118   5.590   1.670
 5240TIP3    H215598   4.087   5.488   1.777
 5241TIP3   OH215599   4.172   5.397   1.900
 5241TIP3    H115600   4.110   5.352   1.961
 5241TIP3    H215601   4.241   5.432   1.960
 5242TIP3   OH215602   4.225   5.784   2.330
 5242TIP3    H115603   4.282   5.721   2.282
 5242TIP3    H215604   4.218   5.859   2.268
 5243TIP3   OH215605   4.061   6.088   2.527
 5243TIP3    H115606   3.990   6.126   2.581
 5243TIP3    H215607   4.011   6.037   2.460
 5244TIP3   OH215608   4.112   5.302   1.548
 5244TIP3    H115609   4.040   5.306   1.482
 5244TIP3    H215610   4.088   5.378   1.605
 5245TIP3   OH215611   3.980   4.977   1.505
 5245TIP3    H115612   3.946   5.012   1.422
 5245TIP3    H215613   3.956   4.882   1.496
 5246TIP3   OH215614   3.988   5.249   2.047
 5246TIP3    H115615   3.999   5.153   2.044
 5246TIP3    H215616   3.976   5.265   2.143
 5247TIP3   OH215617   2.616   5.325   2.793
 5247TIP3    H115618   2.615   5.295   2.700
 5247TIP3    H215619   2.713   5.326   2.810
 5248TIP3   OH215620   4.278   5.675   2.903
 5248TIP3    H115621   4.351   5.609   2.896
 5248TIP3    H215622   4.308   5.744   2.842
 5249TIP3   OH215623   4.463   5.483   2.929
 5249TIP3    H115624   4.389   5.430   2.965
 5249TIP3    H215625   4.537   5.419   2.938
 5250TIP3   OH215626   3.928   4.711   1.491
 5250TIP3    H115627   4.005   4.681   1.542
 5250TIP3    H215628   3.857   4.650   1.518
 5251TIP3   OH215629   3.983   4.965   1.942
 5251TIP3    H115630   4.024   4.877   1.959
 5251TIP3    H215631   4.044   4.998   1.874
 5252TIP3   OH215632   4.147   5.144   2.437
 5252TIP3    H115633   4.234   5.170   2.397
 5252TIP3    H215634   4.161   5.179   2.527
 5253TIP3   OH215635   4.214   5.284   2.672
 5253TIP3    H115636   4.136   5.319   2.719
 5253TIP3    H215637   4.247   5.364   2.625
 5254TIP3   OH215638   2.833   5.013   3.470
 5254TIP3    H115639   2.930   5.005   3.470
 5254TIP3    H215640   2.808   4.928   3.511
 5255TIP3   OH215641   4.667   4.874   3.228
 5255TIP3    H115642   4.725   4.808   3.184
 5255TIP3    H215643   4.640   4.931   3.152
 5256TIP3   OH215644   4.093   4.716   1.981
 5256TIP3    H115645   4.143   4.700   2.064
 5256TIP3    H215646   4.034   4.638   1.980
 5257TIP3   OH215647   2.795   4.703   2.801
 5257TIP3    H115648   2.857   4.627   2.810
 5257TIP3    H215649   2.857   4.777   2.795
 5258TIP3   OH215650   2.599   4.978   2.874
 5258TIP3    H115651   2.646   4.967   2.790
 5258TIP3    H215652   2.629   5.065   2.902
 5259TIP3   OH215653   4.540   5.017   3.035
 5259TIP3    H115654   4.451   5.055   3.054
 5259TIP3    H215655   4.515   4.945   2.974
 5260TIP3   OH215656   4.176   4.654   1.609
 5260TIP3    H115657   4.218   4.580   1.562
 5260TIP3    H215658   4.245   4.723   1.605
 5261TIP3   OH215659   2.581   4.496   2.382
 5261TIP3    H115660   2.486   4.480   2.398
 5261TIP3    H215661   2.579   4.544   2.296
 5262TIP3   OH215662   3.732   6.188   1.876
 5262TIP3    H115663   3.789   6.170   1.799
 5262TIP3    H215664   3.787   6.247   1.930
 5263TIP3   OH215665   2.800   4.561   3.189
 5263TIP3    H115666   2.750   4.555   3.272
 5263TIP3    H215667   2.733   4.599   3.129
 5264TIP3   OH215668   2.840   5.987   3.267
 5264TIP3    H115669   2.749   5.958   3.249
 5264TIP3    H215670   2.849   5.967   3.361
 5265TIP3   OH215671   3.017   6.017   2.813
 5265TIP3    H115672   2.968   6.092   2.775
 5265TIP3    H215673   3.103   6.031   2.769
 5266TIP3   OH215674   3.465   6.265   2.951
 5266TIP3    H115675   3.507   6.265   3.040
 5266TIP3    H215676   3.532   6.315   2.899
 5267TIP3   OH215677   3.644   6.415   2.807
 5267TIP3    H115678   3.716   6.362   2.768
 5267TIP3    H215679   3.694   6.472   2.869
 5268TIP3   OH215680   4.437   4.779   2.910
 5268TIP3    H115681   4.345   4.774   2.877
 5268TIP3    H215682   4.466   4.686   2.896
 5269TIP3   OH215683   2.696   6.279   2.834
 5269TIP3    H115684   2.607   6.313   2.812
 5269TIP3    H215685   2.703   6.306   2.926
 5270TIP3   OH215686   2.932   6.256   2.693
 5270TIP3    H115687   2.846   6.268   2.739
 5270TIP3    H215688   2.910   6.289   2.603
 5271TIP3   OH215689   3.359   6.287   2.489
 5271TIP3    H115690   3.288   6.308   2.426
 5271TIP3    H215691   3.371   6.373   2.534
 5272TIP3   OH215692   3.626   6.225   2.540
 5272TIP3    H115693   3.531   6.241   2.522
 5272TIP3    H215694   3.667   6.304   2.502
 5273TIP3   OH215695   3.836   6.418   2.460
 5273TIP3    H115696   3.821   6.502   2.411
 5273TIP3    H215697   3.861   6.357   2.387
 5274TIP3   OH215698   2.608   6.072   2.582
 5274TIP3    H115699   2.634   6.046   2.673
 5274TIP3    H215700   2.678   6.027   2.532
 5275TIP3   OH215701   2.800   5.942   2.436
 5275TIP3    H115702   2.814   5.857   2.485
 5275TIP3    H215703   2.890   5.978   2.433
 5276TIP3   OH215704   3.066   6.038   2.438
 5276TIP3    H115705   3.097   5.946   2.428
 5276TIP3    H215706   3.107   6.059   2.524
 5277TIP3   OH215707   3.640   4.694   2.526
 5277TIP3    H115708   3.597   4.625   2.581
 5277TIP3    H215709   3.711   4.644   2.482
 5278TIP3   OH215710   4.167   4.574   2.435
 5278TIP3    H115711   4.204   4.626   2.360
 5278TIP3    H215712   4.072   4.591   2.427
 5279TIP3   OH215713   4.261   4.675   2.197
 5279TIP3    H115714   4.334   4.624   2.157
 5279TIP3    H215715   4.295   4.767   2.183
 5280TIP3   OH215716   2.891   4.404   2.547
 5280TIP3    H115717   2.799   4.371   2.544
 5280TIP3    H215718   2.940   4.319   2.541
 5281TIP3   OH215719   2.658   4.263   2.207
 5281TIP3    H115720   2.712   4.290   2.131
 5281TIP3    H215721   2.647   4.344   2.259
 5282TIP3   OH215722   3.333   4.437   2.423
 5282TIP3    H115723   3.394   4.488   2.367
 5282TIP3    H215724   3.353   4.471   2.511
 5283TIP3   OH215725   3.885   4.581   2.409
 5283TIP3    H115726   3.878   4.544   2.320
 5283TIP3    H215727   3.870   4.500   2.464
 5284TIP3   OH215728   3.911   4.502   1.971
 5284TIP3    H115729   3.823   4.542   1.981
 5284TIP3    H215730   3.898   4.417   2.018
 5285TIP3   OH215731   2.396   5.839   1.972
 5285TIP3    H115732   2.311   5.805   1.938
 5285TIP3    H215733   2.381   5.934   1.960
 5286TIP3   OH215734   2.800   4.433   1.937
 5286TIP3    H115735   2.827   4.338   1.933
 5286TIP3    H215736   2.874   4.473   1.986
 5287TIP3   OH215737   3.310   4.608   2.051
 5287TIP3    H115738   3.362   4.554   2.111
 5287TIP3    H215739   3.334   4.698   2.082
 5288TIP3   OH215740   3.167   6.034   1.550
 5288TIP3    H115741   3.255   6.054   1.515
 5288TIP3    H215742   3.143   5.955   1.496
 5289TIP3   OH215743   3.877   6.148   1.643
 5289TIP3    H115744   3.868   6.050   1.638
 5289TIP3    H215745   3.885   6.169   1.549
 5290TIP3   OH215746   3.099   4.684   3.437
 5290TIP3    H115747   3.066   4.613   3.494
 5290TIP3    H215748   3.193   4.685   3.462
 5291TIP3   OH215749   3.347   4.681   3.555
 5291TIP3    H115750   3.432   4.654   3.516
 5291TIP3    H215751   3.335   4.610   3.622
 5292TIP3   OH215752   2.472   5.873   1.613
 5292TIP3    H115753   2.466   5.895   1.707
 5292TIP3    H215754   2.559   5.830   1.607
 5293TIP3   OH215755   4.171   4.740   3.343
 5293TIP3    H115756   4.192   4.709   3.434
 5293TIP3    H215757   4.259   4.736   3.300
 5294TIP3   OH215758   4.112   6.294   2.836
 5294TIP3    H115759   4.033   6.260   2.789
 5294TIP3    H215760   4.091   6.390   2.838
 5295TIP3   OH215761   5.378   5.664   1.602
 5295TIP3    H115762   5.352   5.756   1.585
 5295TIP3    H215763   5.299   5.617   1.571
 5296TIP3   OH215764   5.374   5.665   1.982
 5296TIP3    H115765   5.405   5.639   2.070
 5296TIP3    H215766   5.334   5.583   1.950
 5297TIP3   OH215767   4.675   5.564   2.350
 5297TIP3    H115768   4.706   5.496   2.413
 5297TIP3    H215769   4.756   5.616   2.339
 5298TIP3   OH215770   5.618   5.966   1.664
 5298TIP3    H115771   5.608   5.897   1.731
 5298TIP3    H215772   5.647   6.041   1.717
 5299TIP3   OH215773   4.644   5.969   2.074
 5299TIP3    H115774   4.637   5.871   2.077
 5299TIP3    H215775   4.741   5.978   2.071
 5300TIP3   OH215776   4.353   5.176   1.859
 5300TIP3    H115777   4.306   5.259   1.872
 5300TIP3    H215778   4.282   5.119   1.825
 5301TIP3   OH215779   4.413   5.460   2.025
 5301TIP3    H115780   4.461   5.385   2.066
 5301TIP3    H215781   4.477   5.491   1.960
 5302TIP3   OH215782   5.265   6.428   1.679
 5302TIP3    H115783   5.314   6.358   1.630
 5302TIP3    H215784   5.267   6.393   1.769
 5303TIP3   OH215785   5.176   5.892   2.028
 5303TIP3    H115786   5.214   5.814   1.984
 5303TIP3    H215787   5.260   5.936   2.053
 5304TIP3   OH215788   6.187   5.212   2.028
 5304TIP3    H115789   6.215   5.295   2.073
 5304TIP3    H215790   6.207   5.235   1.935
 5305TIP3   OH215791   5.587   5.393   2.065
 5305TIP3    H115792   5.630   5.308   2.085
 5305TIP3    H215793   5.558   5.378   1.973
 5306TIP3   OH215794   4.922   5.052   2.030
 5306TIP3    H115795   4.904   5.125   1.968
 5306TIP3    H215796   4.875   4.979   1.984
 5307TIP3   OH215797   5.618   5.142   1.653
 5307TIP3    H115798   5.691   5.126   1.717
 5307TIP3    H215799   5.669   5.179   1.578
 5308TIP3   OH215800   4.558   5.255   2.135
 5308TIP3    H115801   4.641   5.236   2.183
 5308TIP3    H215802   4.572   5.200   2.056
 5309TIP3   OH215803   5.001   5.453   1.925
 5309TIP3    H115804   5.094   5.428   1.940
 5309TIP3    H215805   4.962   5.368   1.895
 5310TIP3   OH215806   6.260   5.419   2.198
 5310TIP3    H115807   6.177   5.468   2.179
 5310TIP3    H215808   6.272   5.442   2.291
 5311TIP3   OH215809   4.921   5.035   2.462
 5311TIP3    H115810   4.862   5.074   2.395
 5311TIP3    H215811   4.871   5.055   2.544
 5312TIP3   OH215812   5.269   5.886   1.474
 5312TIP3    H115813   5.229   5.865   1.389
 5312TIP3    H215814   5.228   5.971   1.494
 5313TIP3   OH215815   5.025   5.812   2.259
 5313TIP3    H115816   4.962   5.877   2.298
 5313TIP3    H215817   5.071   5.865   2.192
 5314TIP3   OH215818   5.832   5.143   1.821
 5314TIP3    H115819   5.819   5.098   1.906
 5314TIP3    H215820   5.885   5.220   1.848
 5315TIP3   OH215821   4.790   5.150   2.248
 5315TIP3    H115822   4.851   5.224   2.271
 5315TIP3    H215823   4.841   5.110   2.174
 5316TIP3   OH215824   4.851   6.004   2.356
 5316TIP3    H115825   4.827   6.090   2.317
 5316TIP3    H215826   4.773   5.990   2.414
 5317TIP3   OH215827   4.252   5.694   1.593
 5317TIP3    H115828   4.214   5.722   1.508
 5317TIP3    H215829   4.284   5.778   1.631
 5318TIP3   OH215830   5.690   6.208   1.832
 5318TIP3    H115831   5.600   6.201   1.871
 5318TIP3    H215832   5.684   6.295   1.787
 5319TIP3   OH215833   5.981   5.109   2.193
 5319TIP3    H115834   5.894   5.144   2.168
 5319TIP3    H215835   6.039   5.143   2.122
 5320TIP3   OH215836   5.280   4.757   2.174
 5320TIP3    H115837   5.269   4.662   2.193
 5320TIP3    H215838   5.203   4.794   2.222
 5321TIP3   OH215839   5.393   6.257   1.506
 5321TIP3    H115840   5.443   6.176   1.485
 5321TIP3    H215841   5.453   6.324   1.465
 5322TIP3   OH215842   5.534   6.042   1.412
 5322TIP3    H115843   5.501   5.962   1.369
 5322TIP3    H215844   5.569   6.007   1.496
 5323TIP3   OH215845   5.919   6.125   2.175
 5323TIP3    H115846   5.907   6.046   2.118
 5323TIP3    H215847   5.901   6.198   2.112
 5324TIP3   OH215848   5.206   5.516   1.430
 5324TIP3    H115849   5.127   5.568   1.406
 5324TIP3    H215850   5.256   5.515   1.346
 5325TIP3   OH215851   5.167   5.301   1.151
 5325TIP3    H115852   5.235   5.350   1.200
 5325TIP3    H215853   5.224   5.237   1.103
 5326TIP3   OH215854   6.114   5.760   2.019
 5326TIP3    H115855   6.031   5.812   2.026
 5326TIP3    H215856   6.141   5.784   1.928
 5327TIP3   OH215857   5.555   5.598   1.405
 5327TIP3    H115858   5.501   5.624   1.483
 5327TIP3    H215859   5.639   5.573   1.449
 5328TIP3   OH215860   5.791   5.640   2.314
 5328TIP3    H115861   5.790   5.720   2.370
 5328TIP3    H215862   5.704   5.650   2.270
 5329TIP3   OH215863   4.788   5.599   1.821
 5329TIP3    H115864   4.748   5.540   1.754
 5329TIP3    H215865   4.866   5.546   1.850
 5330TIP3   OH215866   4.917   6.009   1.970
 5330TIP3    H115867   4.899   5.961   1.888
 5330TIP3    H215868   5.008   5.979   1.990
 5331TIP3   OH215869   4.920   5.572   2.172
 5331TIP3    H115870   4.959   5.551   2.085
 5331TIP3    H215871   4.968   5.653   2.199
 5332TIP3   OH215872   5.447   6.208   1.952
 5332TIP3    H115873   5.437   6.285   2.010
 5332TIP3    H215874   5.436   6.132   2.013
 5333TIP3   OH215875   5.064   6.128   2.495
 5333TIP3    H115876   5.010   6.188   2.548
 5333TIP3    H215877   4.996   6.072   2.453
 5334TIP3   OH215878   5.397   5.458   1.230
 5334TIP3    H115879   5.456   5.516   1.283
 5334TIP3    H215880   5.423   5.483   1.138
 5335TIP3   OH215881   4.812   5.688   2.598
 5335TIP3    H115882   4.817   5.773   2.644
 5335TIP3    H215883   4.717   5.667   2.606
 5336TIP3   OH215884   5.136   6.141   1.505
 5336TIP3    H115885   5.216   6.192   1.526
 5336TIP3    H215886   5.078   6.208   1.468
 5337TIP3   OH215887   4.854   6.300   2.585
 5337TIP3    H115888   4.823   6.291   2.493
 5337TIP3    H215889   4.774   6.276   2.637
 5338TIP3   OH215890   5.912   4.700   1.277
 5338TIP3    H115891   5.831   4.719   1.329
 5338TIP3    H215892   5.924   4.784   1.228
 5339TIP3   OH215893   4.654   5.440   1.626
 5339TIP3    H115894   4.589   5.483   1.567
 5339TIP3    H215895   4.614   5.354   1.640
 5340TIP3   OH215896   5.709   6.066   0.825
 5340TIP3    H115897   5.718   6.164   0.814
 5340TIP3    H215898   5.803   6.038   0.815
 5341TIP3   OH215899   4.435   5.825   2.532
 5341TIP3    H115900   4.373   5.798   2.461
 5341TIP3    H215901   4.473   5.740   2.562
 5342TIP3   OH215902   4.290   6.018   2.164
 5342TIP3    H115903   4.385   6.005   2.154
 5342TIP3    H215904   4.287   6.095   2.223
 5343TIP3   OH215905   6.156   6.467   2.223
 5343TIP3    H115906   6.153   6.370   2.233
 5343TIP3    H215907   6.071   6.492   2.266
 5344TIP3   OH215908   5.257   6.260   2.350
 5344TIP3    H115909   5.258   6.350   2.389
 5344TIP3    H215910   5.190   6.216   2.408
 5345TIP3   OH215911   5.014   6.382   1.309
 5345TIP3    H115912   4.976   6.366   1.221
 5345TIP3    H215913   4.989   6.475   1.327
 5346TIP3   OH215914   4.456   6.234   1.691
 5346TIP3    H115915   4.508   6.225   1.774
 5346TIP3    H215916   4.400   6.155   1.698
 5347TIP3   OH215917   5.220   6.282   0.950
 5347TIP3    H115918   5.281   6.215   0.912
 5347TIP3    H215919   5.258   6.293   1.040
 5348TIP3   OH215920   5.269   6.333   1.220
 5348TIP3    H115921   5.183   6.340   1.266
 5348TIP3    H215922   5.325   6.293   1.290
 5349TIP3   OH215923   6.051   5.602   2.487
 5349TIP3    H115924   5.963   5.619   2.451
 5349TIP3    H215925   6.057   5.505   2.485
 5350TIP3   OH215926   4.638   6.011   2.527
 5350TIP3    H115927   4.692   5.989   2.606
 5350TIP3    H215928   4.567   5.944   2.532
 5351TIP3   OH215929   5.040   4.830   2.304
 5351TIP3    H115930   4.949   4.801   2.280
 5351TIP3    H215931   5.018   4.915   2.348
 5352TIP3   OH215932   5.572   4.944   2.498
 5352TIP3    H115933   5.640   4.922   2.565
 5352TIP3    H215934   5.488   4.927   2.545
 5353TIP3   OH215935   5.818   5.379   2.417
 5353TIP3    H115936   5.769   5.371   2.502
 5353TIP3    H215937   5.789   5.466   2.383
 5354TIP3   OH215938   5.471   5.507   0.974
 5354TIP3    H115939   5.440   5.479   0.885
 5354TIP3    H215940   5.552   5.556   0.950
 5355TIP3   OH215941   5.185   4.882   1.275
 5355TIP3    H115942   5.155   4.880   1.368
 5355TIP3    H215943   5.148   4.797   1.244
 5356TIP3   OH215944   4.967   5.345   2.319
 5356TIP3    H115945   4.933   5.375   2.406
 5356TIP3    H215946   4.955   5.428   2.267
 5357TIP3   OH215947   4.855   5.232   1.837
 5357TIP3    H115948   4.763   5.205   1.854
 5357TIP3    H215949   4.870   5.191   1.749
 5358TIP3   OH215950   5.345   5.317   1.563
 5358TIP3    H115951   5.292   5.390   1.523
 5358TIP3    H215952   5.401   5.290   1.487
 5359TIP3   OH215953   5.504   5.348   1.805
 5359TIP3    H115954   5.446   5.380   1.734
 5359TIP3    H215955   5.535   5.265   1.763
 5360TIP3   OH215956   4.780   5.378   2.536
 5360TIP3    H115957   4.834   5.437   2.591
 5360TIP3    H215958   4.779   5.295   2.588
 5361TIP3   OH215959   4.840   4.851   1.242
 5361TIP3    H115960   4.835   4.849   1.340
 5361TIP3    H215961   4.760   4.903   1.220
 5362TIP3   OH215962   4.383   4.900   2.112
 5362TIP3    H115963   4.459   4.931   2.166
 5362TIP3    H215964   4.425   4.865   2.032
 5363TIP3   OH215965   4.359   4.878   1.632
 5363TIP3    H115966   4.406   4.918   1.555
 5363TIP3    H215967   4.300   4.952   1.655
 5364TIP3   OH215968   5.511   5.596   2.226
 5364TIP3    H115969   5.545   5.521   2.172
 5364TIP3    H215970   5.488   5.550   2.309
 5365TIP3   OH215971   5.179   5.055   1.899
 5365TIP3    H115972   5.098   5.053   1.954
 5365TIP3    H215973   5.249   5.058   1.967
 5366TIP3   OH215974   4.617   5.109   1.908
 5366TIP3    H115975   4.522   5.115   1.881
 5366TIP3    H215976   4.642   5.018   1.885
 5367TIP3   OH215977   4.888   5.107   1.595
 5367TIP3    H115978   4.983   5.122   1.577
 5367TIP3    H215979   4.844   5.132   1.511
 5368TIP3   OH215980   5.676   5.129   2.095
 5368TIP3    H115981   5.645   5.141   2.188
 5368TIP3    H215982   5.608   5.069   2.062
 5369TIP3   OH215983   4.723   5.141   1.374
 5369TIP3    H115984   4.652   5.096   1.324
 5369TIP3    H215985   4.777   5.176   1.300
 5370TIP3   OH215986   5.838   6.824   2.316
 5370TIP3    H115987   5.841   6.841   2.219
 5370TIP3    H215988   5.920   6.868   2.345
 5371TIP3   OH215989   4.800   5.932   2.742
 5371TIP3    H115990   4.884   5.959   2.785
 5371TIP3    H215991   4.740   5.930   2.819
 5372TIP3   OH215992   5.265   5.380   1.994
 5372TIP3    H115993   5.341   5.343   1.945
 5372TIP3    H215994   5.280   5.345   2.084
 5373TIP3   OH215995   4.789   4.872   1.871
 5373TIP3    H115996   4.759   4.790   1.917
 5373TIP3    H215997   4.846   4.837   1.802
 5374TIP3   OH215998   5.244   5.277   2.293
 5374TIP3    H115999   5.156   5.320   2.302
 5374TIP3    H216000   5.303   5.340   2.339
 5375TIP3   OH216001   4.978   5.672   1.379
 5375TIP3    H116002   4.906   5.606   1.370
 5375TIP3    H216003   4.963   5.705   1.471
 5376TIP3   OH216004   5.882   5.906   2.012
 5376TIP3    H116005   5.906   5.955   1.930
 5376TIP3    H216006   5.796   5.867   1.989
 5377TIP3   OH216007   5.438   4.984   1.240
 5377TIP3    H116008   5.341   4.970   1.249
 5377TIP3    H216009   5.450   5.078   1.264
 5378TIP3   OH216010   5.382   5.985   2.374
 5378TIP3    H116011   5.403   5.940   2.458
 5378TIP3    H216012   5.342   6.069   2.402
 5379TIP3   OH216013   5.509   5.229   1.344
 5379TIP3    H116014   5.605   5.235   1.361
 5379TIP3    H216015   5.491   5.309   1.291
 5380TIP3   OH216016   4.667   5.688   2.058
 5380TIP3    H116017   4.709   5.663   1.973
 5380TIP3    H216018   4.715   5.631   2.120
 5381TIP3   OH216019   5.124   5.819   1.199
 5381TIP3    H116020   5.078   5.906   1.207
 5381TIP3    H216021   5.071   5.764   1.260
 5382TIP3   OH216022   4.545   5.619   2.674
 5382TIP3    H116023   4.576   5.602   2.765
 5382TIP3    H216024   4.485   5.544   2.658
 5383TIP3   OH216025   5.539   6.254   2.266
 5383TIP3    H116026   5.444   6.246   2.283
 5383TIP3    H216027   5.568   6.300   2.349
 5384TIP3   OH216028   5.951   5.318   1.183
 5384TIP3    H116029   5.888   5.273   1.122
 5384TIP3    H216030   5.949   5.406   1.141
 5385TIP3   OH216031   6.169   6.178   2.264
 5385TIP3    H116032   6.071   6.172   2.256
 5385TIP3    H216033   6.193   6.148   2.173
 5386TIP3   OH216034   5.643   6.138   1.088
 5386TIP3    H116035   5.628   6.066   1.151
 5386TIP3    H216036   5.662   6.092   1.005
 5387TIP3   OH216037   5.646   5.769   1.930
 5387TIP3    H116038   5.553   5.743   1.945
 5387TIP3    H216039   5.680   5.689   1.886
 5388TIP3   OH216040   4.771   5.994   1.682
 5388TIP3    H116041   4.777   6.076   1.629
 5388TIP3    H216042   4.676   5.982   1.688
 5389TIP3   OH216043   4.333   5.301   1.382
 5389TIP3    H116044   4.382   5.383   1.404
 5389TIP3    H216045   4.258   5.307   1.445
 5390TIP3   OH216046   4.912   5.762   1.626
 5390TIP3    H116047   4.879   5.851   1.645
 5390TIP3    H216048   4.878   5.712   1.702
 5391TIP3   OH216049   5.040   6.339   2.153
 5391TIP3    H116050   5.084   6.410   2.102
 5391TIP3    H216051   5.116   6.305   2.204
 5392TIP3   OH216052   4.692   6.235   1.534
 5392TIP3    H116053   4.606   6.244   1.581
 5392TIP3    H216054   4.725   6.327   1.538
 5393TIP3   OH216055   5.433   5.975   2.107
 5393TIP3    H116056   5.421   5.974   2.205
 5393TIP3    H216057   5.513   5.921   2.098
 5394TIP3   OH216058   5.402   5.862   0.993
 5394TIP3    H116059   5.457   5.840   1.072
 5394TIP3    H216060   5.314   5.840   1.027
 5395TIP3   OH216061   5.678   6.513   2.165
 5395TIP3    H116062   5.603   6.451   2.158
 5395TIP3    H216063   5.661   6.573   2.089
 5396TIP3   OH216064   5.744   6.339   0.818
 5396TIP3    H116065   5.771   6.402   0.749
 5396TIP3    H216066   5.666   6.388   0.851
 5397TIP3   OH216067   4.767   5.118   2.681
 5397TIP3    H116068   4.671   5.124   2.695
 5397TIP3    H216069   4.794   5.057   2.751
 5398TIP3   OH216070   5.562   5.801   1.211
 5398TIP3    H116071   5.554   5.733   1.282
 5398TIP3    H216072   5.659   5.799   1.197
 5399TIP3   OH216073   4.478   6.204   2.314
 5399TIP3    H116074   4.530   6.126   2.336
 5399TIP3    H216075   4.515   6.268   2.376
 5400TIP3   OH216076   4.768   5.847   0.992
 5400TIP3    H116077   4.788   5.757   0.962
 5400TIP3    H216078   4.752   5.833   1.087
 5401TIP3   OH216079   4.715   5.851   1.267
 5401TIP3    H116080   4.789   5.824   1.323
 5401TIP3    H216081   4.721   5.949   1.272
 5402TIP3   OH216082   4.452   5.544   1.466
 5402TIP3    H116083   4.388   5.590   1.525
 5402TIP3    H216084   4.472   5.615   1.402
 5403TIP3   OH216085   5.605   5.176   2.352
 5403TIP3    H116086   5.672   5.224   2.403
 5403TIP3    H216087   5.585   5.099   2.410
 5404TIP3   OH216088   5.479   4.936   1.521
 5404TIP3    H116089   5.466   4.961   1.428
 5404TIP3    H216090   5.519   5.018   1.559
 5405TIP3   OH216091   4.979   6.048   1.212
 5405TIP3    H116092   4.894   6.081   1.248
 5405TIP3    H216093   5.001   6.120   1.151
 5406TIP3   OH216094   5.170   5.112   1.626
 5406TIP3    H116095   5.235   5.183   1.607
 5406TIP3    H216096   5.176   5.105   1.723
 5407TIP3   OH216097   5.442   5.441   2.444
 5407TIP3    H116098   5.435   5.498   2.523
 5407TIP3    H216099   5.498   5.369   2.477
 5408TIP3   OH216100   5.316   4.843   1.730
 5408TIP3    H116101   5.312   4.918   1.792
 5408TIP3    H216102   5.376   4.880   1.661
 5409TIP3   OH216103   4.720   6.125   1.279
 5409TIP3    H116104   4.694   6.195   1.216
 5409TIP3    H216105   4.708   6.170   1.365
 5410TIP3   OH216106   4.826   4.837   1.518
 5410TIP3    H116107   4.824   4.928   1.555
 5410TIP3    H216108   4.922   4.818   1.527
 5411TIP3   OH216109   6.082   5.327   2.413
 5411TIP3    H116110   5.984   5.330   2.423
 5411TIP3    H216111   6.088   5.294   2.322
 5412TIP3   OH216112   5.731   5.527   1.803
 5412TIP3    H116113   5.655   5.468   1.817
 5412TIP3    H216114   5.803   5.480   1.851
 5413TIP3   OH216115   4.441   5.761   1.272
 5413TIP3    H116116   4.508   5.830   1.283
 5413TIP3    H216117   4.488   5.705   1.206
 5414TIP3   OH216118   4.389   5.031   1.407
 5414TIP3    H116119   4.388   5.129   1.400
 5414TIP3    H216120   4.306   5.007   1.366
 5415TIP3   OH216121   5.699   6.481   1.754
 5415TIP3    H116122   5.657   6.528   1.678
 5415TIP3    H216123   5.793   6.502   1.735
 5416TIP3   OH216124   4.774   4.752   2.282
 5416TIP3    H116125   4.743   4.718   2.195
 5416TIP3    H216126   4.764   4.672   2.339
 5417TIP3   OH216127   4.319   5.969   1.667
 5417TIP3    H116128   4.241   6.003   1.713
 5417TIP3    H216129   4.305   6.007   1.578
 5418TIP3   OH216130   4.468   6.508   2.735
 5418TIP3    H116131   4.556   6.502   2.777
 5418TIP3    H216132   4.446   6.413   2.729
 5419TIP3   OH216133   4.956   6.480   2.781
 5419TIP3    H116134   5.054   6.473   2.784
 5419TIP3    H216135   4.936   6.424   2.704
 5420TIP3   OH216136   4.933   6.052   0.906
 5420TIP3    H116137   4.878   5.980   0.945
 5420TIP3    H216138   5.010   6.001   0.874
 5421TIP3   OH216139   5.597   6.377   2.503
 5421TIP3    H116140   5.579   6.317   2.578
 5421TIP3    H216141   5.667   6.434   2.541
 5422TIP3   OH216142   5.368   6.092   0.815
 5422TIP3    H116143   5.419   6.033   0.874
 5422TIP3    H216144   5.427   6.100   0.737
 5423TIP3   OH216145   4.600   5.917   2.934
 5423TIP3    H116146   4.620   5.821   2.937
 5423TIP3    H216147   4.513   5.918   2.889
 5424TIP3   OH216148   4.576   5.569   1.125
 5424TIP3    H116149   4.632   5.534   1.197
 5424TIP3    H216150   4.643   5.574   1.054
 5425TIP3   OH216151   5.198   5.964   2.709
 5425TIP3    H116152   5.184   5.995   2.619
 5425TIP3    H216153   5.270   5.897   2.697
 5426TIP3   OH216154   5.080   5.765   0.931
 5426TIP3    H116155   5.088   5.779   1.028
 5426TIP3    H216156   5.083   5.667   0.928
 5427TIP3   OH216157   5.704   6.004   2.311
 5427TIP3    H116158   5.776   6.054   2.268
 5427TIP3    H216159   5.630   6.066   2.302
 5428TIP3   OH216160   4.719   5.649   2.912
 5428TIP3    H116161   4.795   5.594   2.890
 5428TIP3    H216162   4.744   5.681   3.001
 5429TIP3   OH216163   4.785   5.470   1.348
 5429TIP3    H116164   4.763   5.428   1.432
 5429TIP3    H216165   4.822   5.396   1.296
 5430TIP3   OH216166   5.042   5.520   2.562
 5430TIP3    H116167   4.984   5.597   2.577
 5430TIP3    H216168   5.108   5.558   2.500
 5431TIP3   OH216169   4.886   5.263   1.190
 5431TIP3    H116170   4.860   5.264   1.095
 5431TIP3    H216171   4.984   5.271   1.182
 5432TIP3   OH216172   5.708   5.596   0.850
 5432TIP3    H116173   5.689   5.549   0.767
 5432TIP3    H216174   5.678   5.686   0.824
 5433TIP3   OH216175   5.170   5.323   2.707
 5433TIP3    H116176   5.179   5.244   2.651
 5433TIP3    H216177   5.132   5.388   2.645
 5434TIP3   OH216178   5.181   5.106   2.508
 5434TIP3    H116179   5.209   5.152   2.426
 5434TIP3    H216180   5.087   5.087   2.489
 5435TIP3   OH216181   5.202   5.625   2.362
 5435TIP3    H116182   5.294   5.649   2.345
 5435TIP3    H216183   5.154   5.706   2.334
 5436TIP3   OH216184   5.876   5.615   2.803
 5436TIP3    H116185   5.834   5.539   2.762
 5436TIP3    H216186   5.849   5.687   2.743
 5437TIP3   OH216187   5.842   5.856   2.496
 5437TIP3    H116188   5.776   5.910   2.447
 5437TIP3    H216189   5.925   5.885   2.454
 5438TIP3   OH216190   5.052   5.441   2.932
 5438TIP3    H116191   4.985   5.371   2.945
 5438TIP3    H216192   5.090   5.415   2.846
 5439TIP3   OH216193   5.313   4.874   2.575
 5439TIP3    H116194   5.266   4.957   2.553
 5439TIP3    H216195   5.242   4.808   2.563
 5440TIP3   OH216196   5.448   5.354   2.776
 5440TIP3    H116197   5.451   5.390   2.865
 5440TIP3    H216198   5.351   5.348   2.761
 5441TIP3   OH216199   5.681   5.325   2.640
 5441TIP3    H116200   5.600   5.334   2.695
 5441TIP3    H216201   5.747   5.295   2.706
 5442TIP3   OH216202   5.912   5.269   2.804
 5442TIP3    H116203   5.921   5.174   2.824
 5442TIP3    H216204   5.908   5.311   2.893
 5443TIP3   OH216205   4.893   5.219   2.985
 5443TIP3    H116206   4.906   5.131   2.945
 5443TIP3    H216207   4.931   5.205   3.074
 5444TIP3   OH216208   5.407   4.881   2.833
 5444TIP3    H116209   5.476   4.813   2.826
 5444TIP3    H216210   5.368   4.877   2.743
 5445TIP3   OH216211   5.469   5.095   2.997
 5445TIP3    H116212   5.448   5.028   2.928
 5445TIP3    H216213   5.398   5.161   2.983
 5446TIP3   OH216214   4.692   6.326   1.091
 5446TIP3    H116215   4.788   6.324   1.075
 5446TIP3    H216216   4.664   6.375   1.012
 5447TIP3   OH216217   4.173   5.709   1.309
 5447TIP3    H116218   4.268   5.733   1.296
 5447TIP3    H216219   4.171   5.620   1.269
 5448TIP3   OH216220   4.084   6.319   1.724
 5448TIP3    H116221   4.017   6.254   1.696
 5448TIP3    H216222   4.133   6.267   1.791
 5449TIP3   OH216223   4.222   6.177   1.910
 5449TIP3    H116224   4.217   6.100   1.969
 5449TIP3    H216225   4.275   6.237   1.966
 5450TIP3   OH216226   5.948   6.579   1.707
 5450TIP3    H116227   5.983   6.615   1.791
 5450TIP3    H216228   6.012   6.613   1.642
 5451TIP3   OH216229   5.977   6.597   1.994
 5451TIP3    H116230   5.938   6.507   1.987
 5451TIP3    H216231   6.060   6.576   2.038
 5452TIP3   OH216232   6.029   6.272   2.565
 5452TIP3    H116233   5.951   6.280   2.624
 5452TIP3    H216234   6.067   6.362   2.570
 5453TIP3   OH216235   5.842   5.785   1.184
 5453TIP3    H116236   5.912   5.848   1.156
 5453TIP3    H216237   5.885   5.744   1.263
 5454TIP3   OH216238   5.970   5.651   1.387
 5454TIP3    H116239   5.905   5.609   1.447
 5454TIP3    H216240   6.034   5.691   1.449
 5455TIP3   OH216241   6.023   6.042   1.819
 5455TIP3    H116242   6.077   5.980   1.767
 5455TIP3    H216243   6.017   6.119   1.760
 5456TIP3   OH216244   5.857   6.342   2.015
 5456TIP3    H116245   5.786   6.383   2.067
 5456TIP3    H216246   5.807   6.293   1.946
 5457TIP3   OH216247   5.909   5.558   1.035
 5457TIP3    H116248   5.837   5.562   0.968
 5457TIP3    H216249   5.884   5.635   1.090
 5458TIP3   OH216250   5.778   5.232   0.992
 5458TIP3    H116251   5.743   5.274   0.913
 5458TIP3    H216252   5.752   5.138   0.978
 5459TIP3   OH216253   5.785   5.506   1.534
 5459TIP3    H116254   5.795   5.410   1.531
 5459TIP3    H216255   5.772   5.522   1.630
 5460TIP3   OH216256   4.412   5.584   2.279
 5460TIP3    H116257   4.413   5.553   2.186
 5460TIP3    H216258   4.509   5.585   2.298
 5461TIP3   OH216259   6.079   5.934   2.387
 5461TIP3    H116260   6.151   5.867   2.380
 5461TIP3    H216261   6.109   6.004   2.327
 5462TIP3   OH216262   6.265   5.742   2.409
 5462TIP3    H116263   6.189   5.693   2.447
 5462TIP3    H216264   6.335   5.675   2.423
 5463TIP3   OH216265   5.725   4.965   0.976
 5463TIP3    H116266   5.801   4.937   1.030
 5463TIP3    H216267   5.653   4.907   1.004
 5464TIP3   OH216268   5.780   5.222   1.430
 5464TIP3    H116269   5.822   5.134   1.446
 5464TIP3    H216270   5.839   5.256   1.361
 5465TIP3   OH216271   5.944   5.398   1.924
 5465TIP3    H116272   6.031   5.425   1.885
 5465TIP3    H216273   5.955   5.436   2.013
 5466TIP3   OH216274   6.009   5.540   2.156
 5466TIP3    H116275   5.933   5.574   2.208
 5466TIP3    H216276   6.042   5.622   2.113
 5467TIP3   OH216277   4.626   5.268   2.954
 5467TIP3    H116278   4.724   5.262   2.955
 5467TIP3    H216279   4.604   5.184   2.998
 5468TIP3   OH216280   6.466   5.133   2.714
 5468TIP3    H116281   6.521   5.066   2.669
 5468TIP3    H216282   6.436   5.188   2.639
 5469TIP3   OH216283   5.891   4.972   1.467
 5469TIP3    H116284   5.939   4.957   1.551
 5469TIP3    H216285   5.830   4.895   1.466
 5470TIP3   OH216286   4.589   4.959   2.288
 5470TIP3    H116287   4.652   4.885   2.298
 5470TIP3    H216288   4.651   5.034   2.281
 5471TIP3   OH216289   4.393   5.235   2.359
 5471TIP3    H116290   4.443   5.226   2.276
 5471TIP3    H216291   4.428   5.319   2.392
 5472TIP3   OH216292   6.338   5.274   2.522
 5472TIP3    H116293   6.252   5.314   2.549
 5472TIP3    H216294   6.305   5.205   2.461
 5473TIP3   OH216295   5.973   4.910   1.099
 5473TIP3    H116296   6.014   4.837   1.048
 5473TIP3    H216297   6.040   4.981   1.091
 5474TIP3   OH216298   4.376   4.737   1.861
 5474TIP3    H116299   4.282   4.736   1.886
 5474TIP3    H216300   4.375   4.795   1.782
 5475TIP3   OH216301   5.534   6.441   1.366
 5475TIP3    H116302   5.584   6.423   1.284
 5475TIP3    H216303   5.591   6.506   1.410
 5476TIP3   OH216304   4.596   4.817   2.676
 5476TIP3    H116305   4.546   4.812   2.759
 5476TIP3    H216306   4.529   4.855   2.616
 5477TIP3   OH216307   4.632   6.252   2.756
 5477TIP3    H116308   4.546   6.214   2.735
 5477TIP3    H216309   4.648   6.218   2.845
 5478TIP3   OH216310   4.811   6.274   2.299
 5478TIP3    H116311   4.768   6.352   2.259
 5478TIP3    H216312   4.899   6.284   2.258
 5479TIP3   OH216313   5.259   6.521   2.441
 5479TIP3    H116314   5.292   6.496   2.531
 5479TIP3    H216315   5.336   6.566   2.401
 5480TIP3   OH216316   5.442   6.672   2.295
 5480TIP3    H116317   5.508   6.617   2.251
 5480TIP3    H216318   5.497   6.727   2.354
 5481TIP3   OH216319   6.234   5.036   2.396
 5481TIP3    H116320   6.142   5.035   2.363
 5481TIP3    H216321   6.260   4.942   2.382
 5482TIP3   OH216322   4.491   6.536   2.319
 5482TIP3    H116323   4.402   6.573   2.298
 5482TIP3    H216324   4.495   6.553   2.413
 5483TIP3   OH216325   4.728   6.512   2.180
 5483TIP3    H116326   4.642   6.527   2.224
 5483TIP3    H216327   4.709   6.545   2.090
 5484TIP3   OH216328   5.153   6.543   1.978
 5484TIP3    H116329   5.086   6.565   1.911
 5484TIP3    H216330   5.168   6.630   2.020
 5485TIP3   OH216331   5.422   6.483   2.029
 5485TIP3    H116332   5.328   6.499   2.008
 5485TIP3    H216333   5.465   6.558   1.985
 5486TIP3   OH216334   5.628   6.673   1.945
 5486TIP3    H116335   5.616   6.758   1.897
 5486TIP3    H216336   5.657   6.614   1.873
 5487TIP3   OH216337   4.402   6.326   2.070
 5487TIP3    H116338   4.430   6.302   2.160
 5487TIP3    H216339   4.474   6.284   2.018
 5488TIP3   OH216340   4.595   6.199   1.923
 5488TIP3    H116341   4.612   6.114   1.970
 5488TIP3    H216342   4.686   6.236   1.920
 5489TIP3   OH216343   4.860   6.294   1.927
 5489TIP3    H116344   4.893   6.203   1.913
 5489TIP3    H216345   4.905   6.315   2.011
 5490TIP3   OH216346   5.436   4.949   2.010
 5490TIP3    H116347   5.394   4.882   2.066
 5490TIP3    H216348   5.510   4.901   1.969
 5491TIP3   OH216349   5.963   4.828   1.920
 5491TIP3    H116350   6.000   4.882   1.847
 5491TIP3    H216351   5.868   4.849   1.916
 5492TIP3   OH216352   6.057   4.931   1.684
 5492TIP3    H116353   6.131   4.881   1.643
 5492TIP3    H216354   6.090   5.023   1.670
 5493TIP3   OH216355   4.687   4.659   2.033
 5493TIP3    H116356   4.596   4.625   2.033
 5493TIP3    H216357   4.738   4.575   2.029
 5494TIP3   OH216358   4.469   4.527   1.677
 5494TIP3    H116359   4.503   4.586   1.607
 5494TIP3    H216360   4.443   4.592   1.746
 5495TIP3   OH216361   5.128   4.693   1.912
 5495TIP3    H116362   5.188   4.743   1.854
 5495TIP3    H216363   5.151   4.729   1.999
 5496TIP3   OH216364   5.679   4.837   1.897
 5496TIP3    H116365   5.676   4.803   1.807
 5496TIP3    H216366   5.664   4.755   1.950
 5497TIP3   OH216367   5.707   4.758   1.457
 5497TIP3    H116368   5.620   4.801   1.467
 5497TIP3    H216369   5.692   4.674   1.505
 5498TIP3   OH216370   4.190   6.098   1.466
 5498TIP3    H116371   4.108   6.065   1.427
 5498TIP3    H216372   4.182   6.193   1.449
 5499TIP3   OH216373   4.589   4.690   1.443
 5499TIP3    H116374   4.639   4.626   1.387
 5499TIP3    H216375   4.662   4.743   1.480
 5500TIP3   OH216376   5.103   4.861   1.542
 5500TIP3    H116377   5.164   4.816   1.603
 5500TIP3    H216378   5.124   4.954   1.567
 5501TIP3   OH216379   4.962   6.290   1.042
 5501TIP3    H116380   5.051   6.312   1.007
 5501TIP3    H216381   4.940   6.215   0.983
 5502TIP3   OH216382   5.678   6.404   1.135
 5502TIP3    H116383   5.670   6.307   1.119
 5502TIP3    H216384   5.638   6.440   1.053
 5503TIP3   OH216385   4.894   4.937   2.921
 5503TIP3    H116386   4.862   4.868   2.981
 5503TIP3    H216387   4.989   4.941   2.946
 5504TIP3   OH216388   5.141   4.937   3.042
 5504TIP3    H116389   5.228   4.919   3.001
 5504TIP3    H216390   5.134   4.865   3.106
 5505TIP3   OH216391   4.266   6.121   1.103
 5505TIP3    H116392   4.279   6.157   1.192
 5505TIP3    H216393   4.354   6.080   1.084
 5506TIP3   OH216394   5.966   4.995   2.830
 5506TIP3    H116395   5.988   4.966   2.921
 5506TIP3    H216396   6.054   4.994   2.787
 5507TIP3   OH216397   5.909   6.552   2.325
 5507TIP3    H116398   5.830   6.517   2.277
 5507TIP3    H216399   5.888   6.648   2.322
 5508TIP3   OH216400   7.174   5.924   1.091
 5508TIP3    H116401   7.147   6.015   1.067
 5508TIP3    H216402   7.098   5.874   1.056
 5509TIP3   OH216403   7.182   5.918   1.463
 5509TIP3    H116404   7.201   5.892   1.555
 5509TIP3    H216405   7.130   5.843   1.431
 5510TIP3   OH216406   6.474   5.818   1.831
 5510TIP3    H116407   6.506   5.752   1.896
 5510TIP3    H216408   6.548   5.880   1.830
 5511TIP3   OH216409   7.423   6.218   1.151
 5511TIP3    H116410   7.394   6.157   1.219
 5511TIP3    H216411   7.440   6.299   1.201
 5512TIP3   OH216412   6.445   6.227   1.563
 5512TIP3    H116413   6.435   6.130   1.565
 5512TIP3    H216414   6.541   6.235   1.554
 5513TIP3   OH216415   6.151   5.432   1.348
 5513TIP3    H116416   6.102   5.516   1.360
 5513TIP3    H216417   6.081   5.377   1.310
 5514TIP3   OH216418   6.210   5.719   1.514
 5514TIP3    H116419   6.259   5.643   1.552
 5514TIP3    H216420   6.268   5.744   1.441
 5515TIP3   OH216421   7.065   6.689   1.165
 5515TIP3    H116422   7.113   6.615   1.122
 5515TIP3    H216423   7.049   6.654   1.253
 5516TIP3   OH216424   6.972   6.147   1.517
 5516TIP3    H116425   7.006   6.075   1.462
 5516TIP3    H216426   7.057   6.190   1.541
 5517TIP3   OH216427   7.407   5.654   1.543
 5517TIP3    H116428   7.427   5.562   1.569
 5517TIP3    H216429   7.355   5.639   1.461
 5518TIP3   OH216430   6.722   5.309   1.515
 5518TIP3    H116431   6.698   5.381   1.453
 5518TIP3    H216432   6.673   5.235   1.473
 5519TIP3   OH216433   7.408   5.400   1.139
 5519TIP3    H116434   7.481   5.387   1.203
 5519TIP3    H216435   7.458   5.436   1.062
 5520TIP3   OH216436   6.355   5.512   1.622
 5520TIP3    H116437   6.438   5.491   1.670
 5520TIP3    H216438   6.366   5.456   1.543
 5521TIP3   OH216439   6.797   5.710   1.411
 5521TIP3    H116440   6.889   5.683   1.427
 5521TIP3    H216441   6.756   5.626   1.381
 5522TIP3   OH216442   6.719   5.292   1.950
 5522TIP3    H116443   6.658   5.329   1.883
 5522TIP3    H216444   6.667   5.310   2.031
 5523TIP3   OH216445   7.070   6.143   0.963
 5523TIP3    H116446   7.032   6.123   0.875
 5523TIP3    H216447   7.026   6.229   0.980
 5524TIP3   OH216448   6.825   6.067   1.749
 5524TIP3    H116449   6.760   6.130   1.786
 5524TIP3    H216450   6.864   6.120   1.677
 5525TIP3   OH216451   7.620   5.399   1.308
 5525TIP3    H116452   7.604   5.330   1.375
 5525TIP3    H216453   7.714   5.415   1.314
 5526TIP3   OH216454   6.589   5.407   1.734
 5526TIP3    H116455   6.651   5.480   1.757
 5526TIP3    H216456   6.637   5.366   1.659
 5527TIP3   OH216457   6.652   6.259   1.843
 5527TIP3    H116458   6.626   6.344   1.802
 5527TIP3    H216459   6.573   6.245   1.900
 5528TIP3   OH216460   6.049   5.950   1.080
 5528TIP3    H116461   6.008   5.976   0.995
 5528TIP3    H216462   6.078   6.037   1.116
 5529TIP3   OH216463   7.490   6.465   1.319
 5529TIP3    H116464   7.400   6.456   1.359
 5529TIP3    H216465   7.480   6.551   1.273
 5530TIP3   OH216466   7.779   5.398   1.663
 5530TIP3    H116467   7.683   5.413   1.669
 5530TIP3    H216468   7.785   5.343   1.583
 5531TIP3   OH216469   7.077   5.014   1.663
 5531TIP3    H116470   7.065   4.919   1.680
 5531TIP3    H216471   6.998   5.050   1.709
 5532TIP3   OH216472   7.194   6.512   1.003
 5532TIP3    H116473   7.242   6.432   0.973
 5532TIP3    H216474   7.247   6.580   0.954
 5533TIP3   OH216475   7.337   6.304   0.899
 5533TIP3    H116476   7.299   6.231   0.848
 5533TIP3    H216477   7.366   6.258   0.981
 5534TIP3   OH216478   7.715   6.380   1.660
 5534TIP3    H116479   7.704   6.303   1.602
 5534TIP3    H216480   7.695   6.455   1.600
 5535TIP3   OH216481   7.005   5.774   0.919
 5535TIP3    H116482   6.922   5.824   0.904
 5535TIP3    H216483   7.038   5.767   0.828
 5536TIP3   OH216484   6.965   5.548   0.670
 5536TIP3    H116485   7.049   5.592   0.693
 5536TIP3    H216486   6.994   5.493   0.596
 5537TIP3   OH216487   7.901   5.971   1.480
 5537TIP3    H116488   7.829   6.034   1.507
 5537TIP3    H216489   7.939   6.024   1.405
 5538TIP3   OH216490   7.352   5.851   0.898
 5538TIP3    H116491   7.295   5.881   0.972
 5538TIP3    H216492   7.436   5.831   0.943
 5539TIP3   OH216493   7.586   5.894   1.808
 5539TIP3    H116494   7.585   5.980   1.852
 5539TIP3    H216495   7.502   5.899   1.758
 5540TIP3   OH216496   6.583   5.855   1.308
 5540TIP3    H116497   6.540   5.798   1.240
 5540TIP3    H216498   6.661   5.801   1.333
 5541TIP3   OH216499   6.713   6.263   1.458
 5541TIP3    H116500   6.691   6.222   1.373
 5541TIP3    H216501   6.804   6.231   1.474
 5542TIP3   OH216502   6.728   5.823   1.662
 5542TIP3    H116503   6.754   5.809   1.569
 5542TIP3    H216504   6.764   5.912   1.682
 5543TIP3   OH216505   7.251   6.462   1.440
 5543TIP3    H116506   7.230   6.543   1.490
 5543TIP3    H216507   7.231   6.390   1.503
 5544TIP3   OH216508   6.857   6.381   1.986
 5544TIP3    H116509   6.798   6.445   2.031
 5544TIP3    H216510   6.791   6.329   1.936
 5545TIP3   OH216511   7.207   5.709   0.715
 5545TIP3    H116512   7.256   5.771   0.774
 5545TIP3    H216513   7.193   5.764   0.636
 5546TIP3   OH216514   6.611   5.939   2.083
 5546TIP3    H116515   6.616   6.025   2.130
 5546TIP3    H216516   6.515   5.920   2.094
 5547TIP3   OH216517   6.934   6.393   0.998
 5547TIP3    H116518   7.003   6.455   1.024
 5547TIP3    H216519   6.865   6.450   0.960
 5548TIP3   OH216520   6.654   6.553   2.073
 5548TIP3    H116521   6.619   6.551   1.982
 5548TIP3    H216522   6.574   6.531   2.126
 5549TIP3   OH216523   7.699   4.944   0.773
 5549TIP3    H116524   7.619   4.961   0.827
 5549TIP3    H216525   7.707   5.028   0.724
 5550TIP3   OH216526   6.449   5.696   1.115
 5550TIP3    H116527   6.387   5.744   1.056
 5550TIP3    H216528   6.405   5.611   1.124
 5551TIP3   OH216529   6.232   6.080   2.019
 5551TIP3    H116530   6.167   6.059   1.950
 5551TIP3    H216531   6.268   5.992   2.044
 5552TIP3   OH216532   6.086   6.272   1.657
 5552TIP3    H116533   6.182   6.269   1.642
 5552TIP3    H216534   6.078   6.355   1.706
 5553TIP3   OH216535   7.951   6.723   1.706
 5553TIP3    H116536   7.948   6.627   1.721
 5553TIP3    H216537   7.868   6.750   1.752
 5554TIP3   OH216538   7.059   6.510   1.844
 5554TIP3    H116539   7.058   6.603   1.874
 5554TIP3    H216540   6.985   6.472   1.896
 5555TIP3   OH216541   6.795   6.646   0.807
 5555TIP3    H116542   6.762   6.627   0.719
 5555TIP3    H216543   6.777   6.740   0.819
 5556TIP3   OH216544   6.254   6.490   1.175
 5556TIP3    H116545   6.303   6.482   1.260
 5556TIP3    H216546   6.189   6.418   1.186
 5557TIP3   OH216547   7.050   6.564   0.749
 5557TIP3    H116548   6.956   6.577   0.775
 5557TIP3    H216549   7.083   6.510   0.822
 5558TIP3   OH216550   7.841   5.860   1.977
 5558TIP3    H116551   7.756   5.872   1.931
 5558TIP3    H216552   7.856   5.765   1.967
 5559TIP3   OH216553   6.438   6.263   2.010
 5559TIP3    H116554   6.487   6.245   2.093
 5559TIP3    H216555   6.363   6.200   2.017
 5560TIP3   OH216556   6.837   5.089   1.789
 5560TIP3    H116557   6.747   5.057   1.765
 5560TIP3    H216558   6.811   5.171   1.836
 5561TIP3   OH216559   7.368   5.205   1.986
 5561TIP3    H116560   7.434   5.176   2.052
 5561TIP3    H216561   7.283   5.183   2.031
 5562TIP3   OH216562   7.617   5.635   1.906
 5562TIP3    H116563   7.565   5.629   1.989
 5562TIP3    H216564   7.589   5.722   1.871
 5563TIP3   OH216565   6.983   5.134   0.761
 5563TIP3    H116566   6.950   5.136   0.853
 5563TIP3    H216567   6.941   5.052   0.730
 5564TIP3   OH216568   6.770   5.601   1.811
 5564TIP3    H116569   6.717   5.622   1.891
 5564TIP3    H216570   6.754   5.682   1.757
 5565TIP3   OH216571   6.652   5.488   1.324
 5565TIP3    H116572   6.559   5.464   1.340
 5565TIP3    H216573   6.665   5.449   1.235
 5566TIP3   OH216574   7.142   5.577   1.054
 5566TIP3    H116575   7.088   5.648   1.011
 5566TIP3    H216576   7.194   5.546   0.977
 5567TIP3   OH216577   7.316   5.855   2.139
 5567TIP3    H116578   7.293   5.783   2.201
 5567TIP3    H216579   7.410   5.869   2.161
 5568TIP3   OH216580   7.300   5.610   1.287
 5568TIP3    H116581   7.236   5.637   1.219
 5568TIP3    H216582   7.330   5.526   1.246
 5569TIP3   OH216583   6.589   5.632   2.019
 5569TIP3    H116584   6.607   5.697   2.089
 5569TIP3    H216585   6.574   5.550   2.070
 5570TIP3   OH216586   6.636   5.108   0.730
 5570TIP3    H116587   6.627   5.107   0.828
 5570TIP3    H216588   6.559   5.162   0.705
 5571TIP3   OH216589   6.179   5.156   1.599
 5571TIP3    H116590   6.255   5.186   1.652
 5571TIP3    H216591   6.220   5.122   1.518
 5572TIP3   OH216592   6.157   5.136   1.120
 5572TIP3    H116593   6.200   5.176   1.041
 5572TIP3    H216594   6.095   5.208   1.142
 5573TIP3   OH216595   7.311   5.850   1.712
 5573TIP3    H116596   7.347   5.778   1.656
 5573TIP3    H216597   7.283   5.799   1.791
 5574TIP3   OH216598   6.979   5.315   1.389
 5574TIP3    H116599   6.893   5.310   1.434
 5574TIP3    H216600   7.040   5.312   1.464
 5575TIP3   OH216601   6.414   5.366   1.395
 5575TIP3    H116602   6.319   5.374   1.368
 5575TIP3    H216603   6.436   5.275   1.370
 5576TIP3   OH216604   6.687   5.365   1.081
 5576TIP3    H116605   6.779   5.382   1.055
 5576TIP3    H216606   6.636   5.387   1.000
 5577TIP3   OH216607   7.476   5.379   1.588
 5577TIP3    H116608   7.441   5.393   1.679
 5577TIP3    H216609   7.408   5.320   1.551
 5578TIP3   OH216610   6.517   5.391   0.868
 5578TIP3    H116611   6.449   5.349   0.813
 5578TIP3    H216612   6.573   5.432   0.799
 5579TIP3   OH216613   7.639   7.074   1.805
 5579TIP3    H116614   7.636   7.100   1.711
 5579TIP3    H216615   7.716   7.126   1.838
 5580TIP3   OH216616   6.598   6.185   2.229
 5580TIP3    H116617   6.677   6.217   2.277
 5580TIP3    H216618   6.533   6.184   2.301
 5581TIP3   OH216619   7.065   5.642   1.488
 5581TIP3    H116620   7.125   5.588   1.435
 5581TIP3    H216621   7.069   5.598   1.575
 5582TIP3   OH216622   6.589   5.127   1.360
 5582TIP3    H116623   6.555   5.047   1.405
 5582TIP3    H216624   6.638   5.090   1.286
 5583TIP3   OH216625   7.040   5.537   1.769
 5583TIP3    H116626   6.949   5.570   1.785
 5583TIP3    H216627   7.095   5.596   1.824
 5584TIP3   OH216628   6.772   5.919   0.876
 5584TIP3    H116629   6.696   5.858   0.863
 5584TIP3    H216630   6.753   5.956   0.965
 5585TIP3   OH216631   7.690   6.150   1.498
 5585TIP3    H116632   7.710   6.207   1.420
 5585TIP3    H216633   7.598   6.122   1.480
 5586TIP3   OH216634   7.234   5.235   0.736
 5586TIP3    H116635   7.137   5.220   0.739
 5586TIP3    H216636   7.240   5.333   0.742
 5587TIP3   OH216637   7.181   6.247   1.865
 5587TIP3    H116638   7.191   6.221   1.957
 5587TIP3    H216639   7.136   6.334   1.872
 5588TIP3   OH216640   7.305   5.486   0.839
 5588TIP3    H116641   7.401   5.497   0.850
 5588TIP3    H216642   7.282   5.561   0.779
 5589TIP3   OH216643   6.469   5.948   1.547
 5589TIP3    H116644   6.505   5.920   1.460
 5589TIP3    H216645   6.503   5.881   1.607
 5590TIP3   OH216646   6.924   6.086   0.734
 5590TIP3    H116647   6.879   6.173   0.725
 5590TIP3    H216648   6.858   6.030   0.780
 5591TIP3   OH216649   6.348   5.867   2.156
 5591TIP3    H116650   6.366   5.854   2.251
 5591TIP3    H216651   6.276   5.803   2.141
 5592TIP3   OH216652   7.071   5.982   2.178
 5592TIP3    H116653   7.011   5.924   2.128
 5592TIP3    H216654   7.159   5.949   2.148
 5593TIP3   OH216655   7.338   6.504   1.760
 5593TIP3    H116656   7.242   6.501   1.772
 5593TIP3    H216657   7.364   6.556   1.839
 5594TIP3   OH216658   7.707   5.594   0.710
 5594TIP3    H116659   7.733   5.518   0.655
 5594TIP3    H216660   7.721   5.669   0.649
 5595TIP3   OH216661   7.963   6.430   1.752
 5595TIP3    H116662   7.865   6.428   1.744
 5595TIP3    H216663   7.988   6.404   1.661
 5596TIP3   OH216664   7.442   6.024   1.422
 5596TIP3    H116665   7.348   6.001   1.435
 5596TIP3    H216666   7.471   5.948   1.368
 5597TIP3   OH216667   6.567   6.250   1.168
 5597TIP3    H116668   6.570   6.333   1.117
 5597TIP3    H216669   6.472   6.239   1.179
 5598TIP3   OH216670   6.133   5.557   0.870
 5598TIP3    H116671   6.179   5.641   0.890
 5598TIP3    H216672   6.055   5.564   0.930
 5599TIP3   OH216673   6.711   6.019   1.119
 5599TIP3    H116674   6.674   6.109   1.132
 5599TIP3    H216675   6.670   5.971   1.192
 5600TIP3   OH216676   6.833   6.598   1.643
 5600TIP3    H116677   6.870   6.670   1.588
 5600TIP3    H216678   6.913   6.566   1.688
 5601TIP3   OH216679   6.490   6.489   1.025
 5601TIP3    H116680   6.403   6.497   1.068
 5601TIP3    H216681   6.520   6.583   1.026
 5602TIP3   OH216682   7.228   6.229   1.597
 5602TIP3    H116683   7.218   6.230   1.695
 5602TIP3    H216684   7.309   6.177   1.586
 5603TIP3   OH216685   7.120   6.222   0.602
 5603TIP3    H116686   7.197   6.164   0.625
 5603TIP3    H216687   7.090   6.165   0.526
 5604TIP3   OH216688   7.476   6.765   1.647
 5604TIP3    H116689   7.397   6.708   1.639
 5604TIP3    H216690   7.460   6.830   1.575
 5605TIP3   OH216691   6.561   5.374   2.167
 5605TIP3    H116692   6.465   5.382   2.182
 5605TIP3    H216693   6.587   5.313   2.238
 5606TIP3   OH216694   7.343   6.062   0.722
 5606TIP3    H116695   7.348   5.987   0.787
 5606TIP3    H216696   7.435   6.066   0.689
 5607TIP3   OH216697   6.274   6.456   1.802
 5607TIP3    H116698   6.330   6.389   1.843
 5607TIP3    H216699   6.299   6.537   1.850
 5608TIP3   OH216700   6.534   6.093   0.481
 5608TIP3    H116701   6.549   6.006   0.441
 5608TIP3    H216702   6.543   6.076   0.577
 5609TIP3   OH216703   6.514   6.106   0.757
 5609TIP3    H116704   6.583   6.082   0.820
 5609TIP3    H216705   6.519   6.204   0.760
 5610TIP3   OH216706   6.250   5.804   0.954
 5610TIP3    H116707   6.184   5.849   1.011
 5610TIP3    H216708   6.266   5.873   0.888
 5611TIP3   OH216709   7.403   5.435   1.841
 5611TIP3    H116710   7.469   5.478   1.897
 5611TIP3    H216711   7.379   5.356   1.896
 5612TIP3   OH216712   7.276   5.190   1.009
 5612TIP3    H116713   7.257   5.213   0.916
 5612TIP3    H216714   7.310   5.276   1.044
 5613TIP3   OH216715   6.776   6.311   0.692
 5613TIP3    H116716   6.688   6.339   0.726
 5613TIP3    H216717   6.773   6.346   0.602
 5614TIP3   OH216718   6.973   5.366   1.113
 5614TIP3    H116719   7.034   5.441   1.095
 5614TIP3    H216720   6.972   5.365   1.211
 5615TIP3   OH216721   7.238   5.691   1.922
 5615TIP3    H116722   7.249   5.750   1.999
 5615TIP3    H216723   7.291   5.614   1.948
 5616TIP3   OH216724   7.113   5.105   1.221
 5616TIP3    H116725   7.097   5.186   1.273
 5616TIP3    H216726   7.172   5.140   1.150
 5617TIP3   OH216727   6.519   6.376   0.772
 5617TIP3    H116728   6.494   6.447   0.708
 5617TIP3    H216729   6.505   6.422   0.857
 5618TIP3   OH216730   6.621   5.093   1.007
 5618TIP3    H116731   6.617   5.185   1.041
 5618TIP3    H216732   6.717   5.077   1.015
 5619TIP3   OH216733   7.879   5.588   1.874
 5619TIP3    H116734   7.784   5.597   1.900
 5619TIP3    H216735   7.870   5.517   1.808
 5620TIP3   OH216736   7.531   5.769   1.296
 5620TIP3    H116737   7.442   5.732   1.282
 5620TIP3    H216738   7.551   5.731   1.382
 5621TIP3   OH216739   6.231   6.029   0.769
 5621TIP3    H116740   6.299   6.098   0.775
 5621TIP3    H216741   6.277   5.968   0.707
 5622TIP3   OH216742   6.184   5.287   0.895
 5622TIP3    H116743   6.185   5.384   0.889
 5622TIP3    H216744   6.103   5.266   0.847
 5623TIP3   OH216745   7.495   6.736   1.242
 5623TIP3    H116746   7.449   6.782   1.169
 5623TIP3    H216747   7.588   6.757   1.218
 5624TIP3   OH216748   6.573   5.008   1.768
 5624TIP3    H116749   6.540   4.975   1.682
 5624TIP3    H216750   6.561   4.929   1.826
 5625TIP3   OH216751   6.111   6.221   1.152
 5625TIP3    H116752   6.037   6.258   1.201
 5625TIP3    H216753   6.096   6.263   1.064
 5626TIP3   OH216754   6.264   6.764   2.225
 5626TIP3    H116755   6.352   6.760   2.268
 5626TIP3    H216756   6.243   6.670   2.215
 5627TIP3   OH216757   6.751   6.734   2.265
 5627TIP3    H116758   6.846   6.713   2.269
 5627TIP3    H216759   6.724   6.677   2.189
 5628TIP3   OH216760   7.390   6.638   1.995
 5628TIP3    H116761   7.379   6.568   2.064
 5628TIP3    H216762   7.466   6.689   2.028
 5629TIP3   OH216763   6.398   6.174   2.420
 5629TIP3    H116764   6.415   6.078   2.423
 5629TIP3    H216765   6.310   6.177   2.377
 5630TIP3   OH216766   6.362   5.832   0.644
 5630TIP3    H116767   6.419   5.795   0.714
 5630TIP3    H216768   6.426   5.822   0.569
 5631TIP3   OH216769   7.007   6.258   2.192
 5631TIP3    H116770   6.962   6.272   2.107
 5631TIP3    H216771   7.036   6.164   2.186
 5632TIP3   OH216772   6.959   6.035   0.459
 5632TIP3    H116773   6.914   6.061   0.542
 5632TIP3    H216774   6.899   5.967   0.424
 5633TIP3   OH216775   7.499   6.262   1.796
 5633TIP3    H116776   7.570   6.314   1.754
 5633TIP3    H216777   7.424   6.324   1.789
 5634TIP3   OH216778   6.518   5.909   2.399
 5634TIP3    H116779   6.587   5.844   2.384
 5634TIP3    H216780   6.540   5.940   2.489
 5635TIP3   OH216781   6.577   5.727   0.841
 5635TIP3    H116782   6.554   5.682   0.923
 5635TIP3    H216783   6.619   5.655   0.789
 5636TIP3   OH216784   6.853   5.795   2.065
 5636TIP3    H116785   6.774   5.851   2.069
 5636TIP3    H216786   6.897   5.826   1.983
 5637TIP3   OH216787   6.689   5.517   0.703
 5637TIP3    H116788   6.661   5.508   0.609
 5637TIP3    H216789   6.787   5.526   0.693
 5638TIP3   OH216790   7.368   6.194   2.198
 5638TIP3    H116791   7.449   6.173   2.150
 5638TIP3    H216792   7.366   6.126   2.268
 5639TIP3   OH216793   6.976   5.580   2.190
 5639TIP3    H116794   6.973   5.499   2.135
 5639TIP3    H216795   6.931   5.646   2.133
 5640TIP3   OH216796   6.977   5.366   1.994
 5640TIP3    H116797   7.002   5.406   1.909
 5640TIP3    H216798   6.883   5.343   1.978
 5641TIP3   OH216799   7.010   5.904   1.868
 5641TIP3    H116800   7.088   5.912   1.813
 5641TIP3    H216801   6.950   5.970   1.827
 5642TIP3   OH216802   7.587   5.870   2.251
 5642TIP3    H116803   7.637   5.789   2.268
 5642TIP3    H216804   7.656   5.930   2.219
 5643TIP3   OH216805   7.629   6.123   1.987
 5643TIP3    H116806   7.570   6.174   1.927
 5643TIP3    H216807   7.716   6.142   1.945
 5644TIP3   OH216808   6.853   5.695   2.418
 5644TIP3    H116809   6.783   5.628   2.432
 5644TIP3    H216810   6.887   5.669   2.331
 5645TIP3   OH216811   7.110   5.131   2.060
 5645TIP3    H116812   7.060   5.213   2.039
 5645TIP3    H216813   7.040   5.063   2.050
 5646TIP3   OH216814   7.237   5.637   2.278
 5646TIP3    H116815   7.226   5.625   2.374
 5646TIP3    H216816   7.146   5.612   2.249
 5647TIP3   OH216817   7.474   5.578   2.129
 5647TIP3    H116818   7.398   5.585   2.191
 5647TIP3    H216819   7.546   5.550   2.189
 5648TIP3   OH216820   7.706   5.523   2.283
 5648TIP3    H116821   7.716   5.428   2.306
 5648TIP3    H216822   7.699   5.565   2.372
 5649TIP3   OH216823   6.693   5.475   2.470
 5649TIP3    H116824   6.699   5.384   2.435
 5649TIP3    H216825   6.727   5.461   2.561
 5650TIP3   OH216826   7.206   5.141   2.317
 5650TIP3    H116827   7.272   5.070   2.313
 5650TIP3    H216828   7.164   5.133   2.229
 5651TIP3   OH216829   7.270   5.356   2.477
 5651TIP3    H116830   7.247   5.285   2.414
 5651TIP3    H216831   7.192   5.415   2.472
 5652TIP3   OH216832   6.479   6.582   0.595
 5652TIP3    H116833   6.553   6.617   0.543
 5652TIP3    H216834   6.405   6.594   0.534
 5653TIP3   OH216835   5.967   5.965   0.800
 5653TIP3    H116836   6.061   5.992   0.786
 5653TIP3    H216837   5.965   5.877   0.757
 5654TIP3   OH216838   5.881   6.579   1.210
 5654TIP3    H116839   5.815   6.515   1.174
 5654TIP3    H216840   5.928   6.523   1.275
 5655TIP3   OH216841   6.021   6.431   1.393
 5655TIP3    H116842   6.011   6.358   1.456
 5655TIP3    H216843   6.073   6.494   1.446
 5656TIP3   OH216844   7.746   6.832   1.195
 5656TIP3    H116845   7.768   6.863   1.285
 5656TIP3    H216846   7.809   6.880   1.140
 5657TIP3   OH216847   7.780   6.850   1.475
 5657TIP3    H116848   7.734   6.763   1.472
 5657TIP3    H216849   7.851   6.829   1.537
 5658TIP3   OH216850   7.824   6.527   2.049
 5658TIP3    H116851   7.750   6.534   2.113
 5658TIP3    H216852   7.864   6.616   2.054
 5659TIP3   OH216853   7.622   6.035   0.668
 5659TIP3    H116854   7.680   6.110   0.645
 5659TIP3    H216855   7.670   5.993   0.742
 5660TIP3   OH216856   7.771   5.908   0.867
 5660TIP3    H116857   7.702   5.868   0.925
 5660TIP3    H216858   7.831   5.950   0.932
 5661TIP3   OH216859   7.822   6.300   1.309
 5661TIP3    H116860   7.873   6.239   1.253
 5661TIP3    H216861   7.805   6.374   1.248
 5662TIP3   OH216862   7.654   6.600   1.503
 5662TIP3    H116863   7.583   6.643   1.554
 5662TIP3    H216864   7.601   6.553   1.434
 5663TIP3   OH216865   7.589   5.763   1.022
 5663TIP3    H116866   7.584   5.666   1.010
 5663TIP3    H216867   7.573   5.773   1.119
 5664TIP3   OH216868   6.209   5.836   1.767
 5664TIP3    H116869   6.207   5.809   1.673
 5664TIP3    H216870   6.306   5.838   1.783
 5665TIP3   OH216871   7.871   6.188   1.876
 5665TIP3    H116872   7.945   6.124   1.869
 5665TIP3    H216873   7.900   6.261   1.819
 5666TIP3   OH216874   8.057   5.994   1.890
 5666TIP3    H116875   7.983   5.946   1.933
 5666TIP3    H216876   8.130   5.931   1.906
 5667TIP3   OH216877   7.523   5.245   0.493
 5667TIP3    H116878   7.590   5.196   0.543
 5667TIP3    H216879   7.443   5.191   0.513
 5668TIP3   OH216880   7.578   5.484   0.928
 5668TIP3    H116881   7.620   5.395   0.932
 5668TIP3    H216882   7.626   5.524   0.852
 5669TIP3   OH216883   6.426   5.525   2.440
 5669TIP3    H116884   6.524   5.516   2.443
 5669TIP3    H216885   6.399   5.442   2.485
 5670TIP3   OH216886   8.257   5.385   2.200
 5670TIP3    H116887   8.317   5.320   2.156
 5670TIP3    H216888   8.234   5.445   2.126
 5671TIP3   OH216889   7.691   5.227   0.950
 5671TIP3    H116890   7.732   5.209   1.037
 5671TIP3    H216891   7.623   5.155   0.948
 5672TIP3   OH216892   6.387   5.215   1.772
 5672TIP3    H116893   6.450   5.141   1.784
 5672TIP3    H216894   6.448   5.291   1.768
 5673TIP3   OH216895   6.191   5.490   1.848
 5673TIP3    H116896   6.240   5.484   1.763
 5673TIP3    H216897   6.217   5.578   1.878
 5674TIP3   OH216898   8.136   5.534   2.006
 5674TIP3    H116899   8.053   5.573   2.039
 5674TIP3    H216900   8.100   5.465   1.947
 5675TIP3   OH216901   7.752   5.155   0.613
 5675TIP3    H116902   7.824   5.117   0.557
 5675TIP3    H216903   7.773   5.250   0.609
 5676TIP3   OH216904   6.172   4.994   1.348
 5676TIP3    H116905   6.078   4.993   1.373
 5676TIP3    H216906   6.172   5.052   1.269
 5677TIP3   OH216907   7.336   6.695   0.864
 5677TIP3    H116908   7.373   6.666   0.780
 5677TIP3    H216909   7.391   6.771   0.889
 5678TIP3   OH216910   6.392   5.073   2.162
 5678TIP3    H116911   6.343   5.069   2.246
 5678TIP3    H216912   6.325   5.113   2.103
 5679TIP3   OH216913   6.434   6.499   2.241
 5679TIP3    H116914   6.343   6.472   2.220
 5679TIP3    H216915   6.438   6.480   2.336
 5680TIP3   OH216916   6.607   6.530   1.790
 5680TIP3    H116917   6.544   6.594   1.752
 5680TIP3    H216918   6.688   6.553   1.740
 5681TIP3   OH216919   7.059   6.776   1.924
 5681TIP3    H116920   7.100   6.780   2.013
 5681TIP3    H216921   7.124   6.828   1.872
 5682TIP3   OH216922   7.237   6.927   1.782
 5682TIP3    H116923   7.308   6.876   1.742
 5682TIP3    H216924   7.287   6.986   1.843
 5683TIP3   OH216925   8.029   5.288   1.880
 5683TIP3    H116926   7.936   5.270   1.860
 5683TIP3    H216927   8.066   5.197   1.872
 5684TIP3   OH216928   6.279   6.754   1.838
 5684TIP3    H116929   6.225   6.803   1.774
 5684TIP3    H216930   6.292   6.823   1.904
 5685TIP3   OH216931   6.951   6.799   1.463
 5685TIP3    H116932   6.880   6.815   1.398
 5685TIP3    H216933   6.960   6.887   1.505
 5686TIP3   OH216934   7.218   6.739   1.515
 5686TIP3    H116935   7.122   6.752   1.496
 5686TIP3    H216936   7.256   6.818   1.474
 5687TIP3   OH216937   7.433   6.933   1.433
 5687TIP3    H116938   7.412   7.016   1.386
 5687TIP3    H216939   7.451   6.871   1.359
 5688TIP3   OH216940   6.196   6.577   1.558
 5688TIP3    H116941   6.229   6.560   1.648
 5688TIP3    H216942   6.272   6.542   1.506
 5689TIP3   OH216943   6.392   6.455   1.408
 5689TIP3    H116944   6.411   6.373   1.458
 5689TIP3    H216945   6.481   6.495   1.400
 5690TIP3   OH216946   6.660   6.543   1.400
 5690TIP3    H116947   6.692   6.451   1.407
 5690TIP3    H216948   6.688   6.580   1.485
 5691TIP3   OH216949   7.242   5.208   1.509
 5691TIP3    H116950   7.191   5.143   1.560
 5691TIP3    H216951   7.296   5.152   1.452
 5692TIP3   OH216952   7.760   5.122   1.424
 5692TIP3    H116953   7.794   5.145   1.335
 5692TIP3    H216954   7.665   5.104   1.405
 5693TIP3   OH216955   7.854   5.190   1.175
 5693TIP3    H116956   7.923   5.133   1.134
 5693TIP3    H216957   7.891   5.279   1.154
 5694TIP3   OH216958   6.484   4.916   1.520
 5694TIP3    H116959   6.392   4.882   1.519
 5694TIP3    H216960   6.534   4.831   1.517
 5695TIP3   OH216961   6.268   4.784   1.164
 5695TIP3    H116962   6.299   4.843   1.093
 5695TIP3    H216963   6.239   4.848   1.232
 5696TIP3   OH216964   6.924   4.951   1.397
 5696TIP3    H116965   6.989   4.998   1.343
 5696TIP3    H216966   6.944   4.985   1.486
 5697TIP3   OH216967   7.490   5.091   1.377
 5697TIP3    H116968   7.466   5.053   1.291
 5697TIP3    H216969   7.470   5.015   1.437
 5698TIP3   OH216970   7.501   5.016   0.950
 5698TIP3    H116971   7.413   5.058   0.957
 5698TIP3    H216972   7.484   4.933   0.999
 5699TIP3   OH216973   5.987   6.355   0.951
 5699TIP3    H116974   5.902   6.324   0.913
 5699TIP3    H216975   5.979   6.450   0.930
 5700TIP3   OH216976   6.384   4.944   0.931
 5700TIP3    H116977   6.435   4.883   0.874
 5700TIP3    H216978   6.456   5.000   0.968
 5701TIP3   OH216979   6.899   5.118   1.027
 5701TIP3    H116980   6.955   5.070   1.090
 5701TIP3    H216981   6.921   5.210   1.053
 5702TIP3   OH216982   6.692   5.198   2.409
 5702TIP3    H116983   6.657   5.127   2.467
 5702TIP3    H216984   6.786   5.198   2.436
 5703TIP3   OH216985   6.940   5.193   2.529
 5703TIP3    H116986   7.024   5.166   2.490
 5703TIP3    H216987   6.926   5.123   2.596
 5704TIP3   OH216988   6.060   6.374   0.585
 5704TIP3    H116989   6.050   6.416   0.672
 5704TIP3    H216990   6.152   6.341   0.587
 5705TIP3   OH216991   7.763   5.252   2.317
 5705TIP3    H116992   7.782   5.222   2.409
 5705TIP3    H216993   7.852   5.248   2.277
 5706TIP3   OH216994   7.707   6.807   1.807
 5706TIP3    H116995   7.626   6.774   1.762
 5706TIP3    H216996   7.685   6.903   1.811
 5707TIP3   OH216997   8.938   6.167   0.964
 5707TIP3    H116998   8.996   6.170   1.043
 5707TIP3    H216999   8.915   6.072   0.963
 5708TIP3   OH217000   8.269   6.078   1.323
 5708TIP3    H117001   8.302   6.011   1.386
 5708TIP3    H217002   8.348   6.132   1.309
 5709TIP3   OH217003   8.235   6.477   1.055
 5709TIP3    H117004   8.226   6.379   1.053
 5709TIP3    H217005   8.331   6.486   1.067
 5710TIP3   OH217006   7.937   5.683   0.831
 5710TIP3    H117007   7.905   5.774   0.847
 5710TIP3    H217008   7.851   5.640   0.815
 5711TIP3   OH217009   8.011   5.977   0.998
 5711TIP3    H117010   8.055   5.901   1.042
 5711TIP3    H217011   8.079   6.005   0.936
 5712TIP3   OH217012   8.760   6.403   1.001
 5712TIP3    H117013   8.796   6.317   0.975
 5712TIP3    H217014   8.845   6.446   1.027
 5713TIP3   OH217015   9.197   5.932   1.039
 5713TIP3    H117016   9.194   5.836   1.060
 5713TIP3    H217017   9.156   5.932   0.952
 5714TIP3   OH217018   8.503   5.558   1.015
 5714TIP3    H117019   8.482   5.638   0.961
 5714TIP3    H217020   8.459   5.490   0.961
 5715TIP3   OH217021   8.145   5.769   1.109
 5715TIP3    H117022   8.226   5.751   1.161
 5715TIP3    H217023   8.158   5.711   1.033
 5716TIP3   OH217024   8.610   5.975   0.917
 5716TIP3    H117025   8.703   5.946   0.922
 5716TIP3    H217026   8.567   5.895   0.880
 5717TIP3   OH217027   8.514   5.549   1.437
 5717TIP3    H117028   8.455   5.587   1.369
 5717TIP3    H217029   8.461   5.564   1.517
 5718TIP3   OH217030   8.621   6.324   1.235
 5718TIP3    H117031   8.557   6.387   1.274
 5718TIP3    H217032   8.668   6.380   1.170
 5719TIP3   OH217033   8.379   5.667   1.228
 5719TIP3    H117034   8.442   5.740   1.246
 5719TIP3    H217035   8.426   5.623   1.153
 5720TIP3   OH217036   8.445   6.515   1.326
 5720TIP3    H117037   8.421   6.604   1.293
 5720TIP3    H217038   8.369   6.499   1.386
 5721TIP3   OH217039   8.871   5.272   1.152
 5721TIP3    H117040   8.859   5.175   1.161
 5721TIP3    H217041   8.789   5.305   1.195
 5722TIP3   OH217042   8.348   6.054   0.827
 5722TIP3    H117043   8.338   6.116   0.751
 5722TIP3    H217044   8.444   6.040   0.831
 5723TIP3   OH217045   8.522   6.530   0.925
 5723TIP3    H117046   8.478   6.448   0.895
 5723TIP3    H217047   8.607   6.494   0.960
 5724TIP3   OH217048   8.516   6.082   1.155
 5724TIP3    H117049   8.549   6.059   1.066
 5724TIP3    H217050   8.561   6.167   1.173
 5725TIP3   OH217051   8.652   6.638   1.473
 5725TIP3    H117052   8.595   6.701   1.521
 5725TIP3    H217053   8.585   6.585   1.426
 5726TIP3   OH217054   8.408   6.196   1.572
 5726TIP3    H117055   8.413   6.282   1.619
 5726TIP3    H217056   8.312   6.180   1.577
 5727TIP3   OH217057   8.448   6.808   1.559
 5727TIP3    H117058   8.412   6.803   1.469
 5727TIP3    H217059   8.370   6.787   1.615
 5728TIP3   OH217060   8.029   6.339   1.506
 5728TIP3    H117061   7.963   6.317   1.437
 5728TIP3    H217062   8.065   6.251   1.530
 5729TIP3   OH217063   7.883   6.529   1.142
 5729TIP3    H117064   7.979   6.526   1.129
 5729TIP3    H217065   7.872   6.608   1.197
 5730TIP3   OH217066   8.847   6.770   1.326
 5730TIP3    H117067   8.852   6.861   1.362
 5730TIP3    H217068   8.781   6.730   1.386
 5731TIP3   OH217069   8.235   6.520   1.496
 5731TIP3    H117070   8.284   6.505   1.580
 5731TIP3    H217071   8.160   6.458   1.505
 5732TIP3   OH217072   8.631   5.342   1.278
 5732TIP3    H117073   8.540   5.313   1.253
 5732TIP3    H217074   8.609   5.428   1.319
 5733TIP3   OH217075   9.157   5.460   1.477
 5733TIP3    H117076   9.205   5.448   1.560
 5733TIP3    H217077   9.065   5.440   1.505
 5734TIP3   OH217078   8.563   5.858   1.298
 5734TIP3    H117079   8.516   5.882   1.380
 5734TIP3    H217080   8.548   5.938   1.243
 5735TIP3   OH217081   8.427   5.753   0.855
 5735TIP3    H117082   8.341   5.711   0.837
 5735TIP3    H217083   8.469   5.764   0.766
 5736TIP3   OH217084   9.115   6.111   1.624
 5736TIP3    H117085   9.090   6.040   1.688
 5736TIP3    H217086   9.208   6.125   1.647
 5737TIP3   OH217087   8.379   5.889   1.510
 5737TIP3    H117088   8.412   5.955   1.573
 5737TIP3    H217089   8.381   5.807   1.563
 5738TIP3   OH217090   7.974   5.416   1.093
 5738TIP3    H117091   8.054   5.444   1.141
 5738TIP3    H217092   8.008   5.382   1.008
 5739TIP3   OH217093   8.105   5.464   0.581
 5739TIP3    H117094   8.121   5.558   0.561
 5739TIP3    H217095   8.011   5.461   0.603
 5740TIP3   OH217096   9.078   6.113   1.200
 5740TIP3    H117097   9.137   6.055   1.146
 5740TIP3    H217098   9.070   6.059   1.280
 5741TIP3   OH217099   8.762   5.497   0.932
 5741TIP3    H117100   8.678   5.536   0.961
 5741TIP3    H217101   8.823   5.571   0.939
 5742TIP3   OH217102   8.194   5.607   0.867
 5742TIP3    H117103   8.096   5.614   0.860
 5742TIP3    H217104   8.212   5.512   0.856
 5743TIP3   OH217105   9.164   5.667   1.076
 5743TIP3    H117106   9.176   5.669   1.173
 5743TIP3    H217107   9.144   5.572   1.058
 5744TIP3   OH217108   8.395   6.441   1.716
 5744TIP3    H117109   8.474   6.472   1.763
 5744TIP3    H217110   8.330   6.442   1.789
 5745TIP3   OH217111   8.876   5.890   0.969
 5745TIP3    H117112   8.914   5.820   0.915
 5745TIP3    H217113   8.883   5.853   1.059
 5746TIP3   OH217114   8.385   5.380   0.841
 5746TIP3    H117115   8.353   5.300   0.889
 5746TIP3    H217116   8.464   5.348   0.797
 5747TIP3   OH217117   8.836   5.791   1.263
 5747TIP3    H117118   8.746   5.828   1.274
 5747TIP3    H217119   8.892   5.854   1.313
 5748TIP3   OH217120   8.965   6.499   1.355
 5748TIP3    H117121   8.987   6.482   1.448
 5748TIP3    H217122   8.937   6.592   1.356
 5749TIP3   OH217123   8.264   6.202   1.039
 5749TIP3    H117124   8.287   6.158   0.954
 5749TIP3    H217125   8.301   6.138   1.102
 5750TIP3   OH217126   8.139   6.124   1.645
 5750TIP3    H117127   8.175   6.125   1.736
 5750TIP3    H217128   8.074   6.053   1.653
 5751TIP3   OH217129   8.869   6.238   1.663
 5751TIP3    H117130   8.811   6.180   1.610
 5751TIP3    H217131   8.957   6.208   1.635
 5752TIP3   OH217132   9.134   6.761   1.246
 5752TIP3    H117133   9.037   6.762   1.248
 5752TIP3    H217134   9.156   6.812   1.326
 5753TIP3   OH217135   8.632   6.849   1.130
 5753TIP3    H117136   8.673   6.929   1.095
 5753TIP3    H217137   8.706   6.811   1.181
 5754TIP3   OH217138   9.009   6.472   1.081
 5754TIP3    H117139   9.010   6.487   1.177
 5754TIP3    H217140   9.103   6.457   1.063
 5755TIP3   OH217141   8.361   5.630   1.663
 5755TIP3    H117142   8.287   5.658   1.718
 5755TIP3    H217143   8.402   5.563   1.722
 5756TIP3   OH217144   8.073   6.721   1.286
 5756TIP3    H117145   8.121   6.641   1.310
 5756TIP3    H217146   8.097   6.779   1.359
 5757TIP3   OH217147   9.219   5.698   1.354
 5757TIP3    H117148   9.254   5.743   1.434
 5757TIP3    H217149   9.183   5.616   1.394
 5758TIP3   OH217150   9.031   5.942   1.412
 5758TIP3    H117151   9.045   6.004   1.487
 5758TIP3    H217152   9.095   5.872   1.432
 5759TIP3   OH217153   8.365   5.265   1.256
 5759TIP3    H117154   8.335   5.231   1.169
 5759TIP3    H217155   8.356   5.186   1.313
 5760TIP3   OH217156   8.062   7.021   1.703
 5760TIP3    H117157   8.147   7.021   1.752
 5760TIP3    H217158   8.040   6.927   1.705
 5761TIP3   OH217159   8.547   6.993   1.748
 5761TIP3    H117160   8.641   6.972   1.759
 5761TIP3    H217161   8.524   6.933   1.674
 5762TIP3   OH217162   9.189   6.889   1.484
 5762TIP3    H117163   9.165   6.819   1.549
 5762TIP3    H217164   9.262   6.933   1.529
 5763TIP3   OH217165   8.194   6.431   1.905
 5763TIP3    H117166   8.210   6.335   1.914
 5763TIP3    H217167   8.105   6.433   1.864
 5764TIP3   OH217168   8.804   6.514   1.678
 5764TIP3    H117169   8.761   6.529   1.592
 5764TIP3    H217170   8.834   6.421   1.673
 5765TIP3   OH217171   8.312   6.160   1.884
 5765TIP3    H117172   8.387   6.101   1.872
 5765TIP3    H217173   8.333   6.196   1.973
 5766TIP3   OH217174   8.644   6.045   1.545
 5766TIP3    H117175   8.571   6.109   1.554
 5766TIP3    H217176   8.694   6.081   1.468
 5767TIP3   OH217177   9.156   6.450   1.687
 5767TIP3    H117178   9.237   6.432   1.639
 5767TIP3    H217179   9.158   6.383   1.758
 5768TIP3   OH217180   8.771   5.836   1.676
 5768TIP3    H117181   8.771   5.756   1.621
 5768TIP3    H217182   8.727   5.902   1.618
 5769TIP3   OH217183   8.774   5.621   1.481
 5769TIP3    H117184   8.799   5.666   1.397
 5769TIP3    H217185   8.680   5.599   1.464
 5770TIP3   OH217186   8.805   6.158   1.354
 5770TIP3    H117187   8.887   6.165   1.303
 5770TIP3    H217188   8.750   6.227   1.312
 5771TIP3   OH217189   9.394   6.129   1.730
 5771TIP3    H117190   9.426   6.048   1.772
 5771TIP3    H217191   9.476   6.181   1.728
 5772TIP3   OH217192   8.645   5.954   1.901
 5772TIP3    H117193   8.578   5.885   1.919
 5772TIP3    H217194   8.684   5.922   1.817
 5773TIP3   OH217195   8.905   5.387   1.543
 5773TIP3    H117196   8.854   5.470   1.524
 5773TIP3    H217197   8.834   5.319   1.534
 5774TIP3   OH217198   9.034   5.893   1.763
 5774TIP3    H117199   9.028   5.882   1.860
 5774TIP3    H217200   8.942   5.868   1.739
 5775TIP3   OH217201   9.263   5.811   1.610
 5775TIP3    H117202   9.188   5.835   1.668
 5775TIP3    H217203   9.334   5.799   1.676
 5776TIP3   OH217204   9.476   5.759   1.791
 5776TIP3    H117205   9.528   5.693   1.838
 5776TIP3    H217206   9.473   5.830   1.860
 5777TIP3   OH217207   8.491   5.730   1.957
 5777TIP3    H117208   8.500   5.638   1.926
 5777TIP3    H217209   8.525   5.722   2.048
 5778TIP3   OH217210   9.005   5.400   1.799
 5778TIP3    H117211   9.068   5.326   1.798
 5778TIP3    H217212   8.960   5.389   1.713
 5779TIP3   OH217213   9.067   5.614   1.962
 5779TIP3    H117214   9.042   5.543   1.899
 5779TIP3    H217215   8.989   5.674   1.960
 5780TIP3   OH217216   7.812   6.696   0.903
 5780TIP3    H117217   7.794   6.618   0.957
 5780TIP3    H217218   7.854   6.755   0.968
 5781TIP3   OH217219   8.005   6.090   1.256
 5781TIP3    H117220   8.004   6.067   1.161
 5781TIP3    H217221   8.102   6.096   1.272
 5782TIP3   OH217222   8.228   5.782   1.915
 5782TIP3    H117223   8.324   5.776   1.934
 5782TIP3    H217224   8.195   5.701   1.960
 5783TIP3   OH217225   8.184   5.474   1.266
 5783TIP3    H117226   8.246   5.399   1.275
 5783TIP3    H217227   8.246   5.548   1.257
 5784TIP3   OH217228   7.962   5.270   0.839
 5784TIP3    H117229   7.869   5.253   0.864
 5784TIP3    H217230   7.955   5.310   0.752
 5785TIP3   OH217231   8.195   5.335   1.656
 5785TIP3    H117232   8.144   5.324   1.738
 5785TIP3    H217233   8.126   5.352   1.591
 5786TIP3   OH217234   8.229   6.754   1.726
 5786TIP3    H117235   8.137   6.728   1.711
 5786TIP3    H217236   8.239   6.739   1.821
 5787TIP3   OH217237   8.404   6.784   1.274
 5787TIP3    H117238   8.350   6.854   1.235
 5787TIP3    H217239   8.490   6.802   1.232
 5788TIP3   OH217240   8.850   7.034   1.414
 5788TIP3    H117241   8.895   7.039   1.501
 5788TIP3    H217242   8.916   7.081   1.357
 5789TIP3   OH217243   9.023   7.173   1.254
 5789TIP3    H117244   9.108   7.150   1.214
 5789TIP3    H217245   9.055   7.229   1.328
 5790TIP3   OH217246   8.087   7.052   1.295
 5790TIP3    H117247   7.995   7.081   1.275
 5790TIP3    H217248   8.092   7.075   1.389
 5791TIP3   OH217249   8.312   7.045   1.143
 5791TIP3    H117250   8.232   7.050   1.201
 5791TIP3    H217251   8.272   7.021   1.058
 5792TIP3   OH217252   7.990   6.863   1.055
 5792TIP3    H117253   8.013   6.831   1.145
 5792TIP3    H217254   8.055   6.810   1.003
 5793TIP3   OH217255   8.181   6.724   0.927
 5793TIP3    H117256   8.195   6.633   0.962
 5793TIP3    H217257   8.273   6.757   0.922
 5794TIP3   OH217258   8.440   6.805   0.921
 5794TIP3    H117259   8.473   6.715   0.909
 5794TIP3    H217260   8.501   6.837   0.990
 5795TIP3   OH217261   9.059   5.419   0.978
 5795TIP3    H117262   8.984   5.390   1.033
 5795TIP3    H217263   9.059   5.348   0.912
 5796TIP3   OH217264   8.281   5.172   1.005
 5796TIP3    H117265   8.189   5.138   1.005
 5796TIP3    H217266   8.331   5.088   1.002
 5797TIP3   OH217267   8.099   5.040   0.683
 5797TIP3    H117268   8.059   5.063   0.597
 5797TIP3    H217269   8.050   5.095   0.745
 5798TIP3   OH217270   8.718   5.206   0.888
 5798TIP3    H117271   8.754   5.275   0.831
 5798TIP3    H217272   8.735   5.248   0.974
 5799TIP3   OH217273   8.489   5.452   1.891
 5799TIP3    H117274   8.453   5.385   1.952
 5799TIP3    H217275   8.583   5.453   1.921
 5800TIP3   OH217276   8.734   5.447   2.014
 5800TIP3    H117277   8.823   5.422   1.982
 5800TIP3    H217278   8.720   5.379   2.084
 5801TIP3   OH217279  -0.058   6.998   2.835
 5801TIP3    H117280  -0.027   6.954   2.916
 5801TIP3    H217281  -0.051   7.092   2.857
 5802TIP3   OH217282   0.433   6.261   3.203
 5802TIP3    H117283   0.464   6.340   3.252
 5802TIP3    H217284   0.459   6.284   3.112
 5803TIP3   OH217285  -0.087   6.439   3.226
 5803TIP3    H117286  -0.061   6.349   3.255
 5803TIP3    H217287  -0.123   6.418   3.139
 5804TIP3   OH217288  -0.144   6.181   2.839
 5804TIP3    H117289  -0.072   6.163   2.904
 5804TIP3    H217290  -0.093   6.220   2.768
 5805TIP3   OH217291   0.511   6.464   3.371
 5805TIP3    H117292   0.427   6.512   3.355
 5805TIP3    H217293   0.524   6.484   3.466
 5806TIP3   OH217294   0.080   6.194   2.995
 5806TIP3    H117295   0.067   6.143   3.076
 5806TIP3    H217296   0.135   6.268   3.028
 5807TIP3   OH217297   0.235   6.149   3.369
 5807TIP3    H117298   0.151   6.197   3.366
 5807TIP3    H217299   0.287   6.188   3.295
 5808TIP3   OH217300   0.178   7.175   3.357
 5808TIP3    H117301   0.146   7.093   3.316
 5808TIP3    H217302   0.154   7.241   3.291
 5809TIP3   OH217303   0.379   6.791   3.191
 5809TIP3    H117304   0.294   6.840   3.203
 5809TIP3    H217305   0.403   6.822   3.102
 5810TIP3   OH217306  -0.197   6.577   2.570
 5810TIP3    H117307  -0.254   6.640   2.619
 5810TIP3    H217308  -0.112   6.592   2.615
 5811TIP3   OH217309   0.056   6.710   3.460
 5811TIP3    H117310   0.052   6.775   3.533
 5811TIP3    H217311  -0.038   6.703   3.435
 5812TIP3   OH217312   0.162   5.738   2.457
 5812TIP3    H117313   0.081   5.751   2.511
 5812TIP3    H217314   0.146   5.798   2.383
 5813TIP3   OH217315   0.415   7.504   3.391
 5813TIP3    H117316   0.414   7.409   3.414
 5813TIP3    H217317   0.323   7.529   3.415
 5814TIP3   OH217318   0.304   6.653   3.667
 5814TIP3    H117319   0.215   6.664   3.629
 5814TIP3    H217320   0.305   6.557   3.681
 5815TIP3   OH217321  -0.164   5.977   3.671
 5815TIP3    H117322  -0.090   5.950   3.730
 5815TIP3    H217323  -0.240   5.962   3.727
 5816TIP3   OH217324   0.108   6.457   3.586
 5816TIP3    H117325   0.064   6.431   3.670
 5816TIP3    H217326   0.040   6.515   3.548
 5817TIP3   OH217327  -0.236   6.398   2.989
 5817TIP3    H117328  -0.315   6.423   2.939
 5817TIP3    H217329  -0.218   6.310   2.948
 5818TIP3   OH217330  -0.075   6.167   3.258
 5818TIP3    H117331  -0.067   6.172   3.356
 5818TIP3    H217332  -0.145   6.101   3.248
 5819TIP3   OH217333   0.154   6.934   3.188
 5819TIP3    H117334   0.175   6.992   3.111
 5819TIP3    H217335   0.057   6.946   3.194
 5820TIP3   OH217336  -0.349   6.040   2.424
 5820TIP3    H117337  -0.437   6.078   2.407
 5820TIP3    H217338  -0.294   6.120   2.420
 5821TIP3   OH217339  -0.180   6.275   2.484
 5821TIP3    H117340  -0.145   6.351   2.534
 5821TIP3    H217341  -0.270   6.310   2.471
 5822TIP3   OH217342   0.425   7.221   3.443
 5822TIP3    H117343   0.327   7.216   3.436
 5822TIP3    H217344   0.449   7.191   3.353
 5823TIP3   OH217345  -0.110   6.817   3.080
 5823TIP3    H117346  -0.178   6.778   3.137
 5823TIP3    H217347  -0.062   6.738   3.050
 5824TIP3   OH217348  -0.047   6.203   3.522
 5824TIP3    H117349  -0.036   6.282   3.577
 5824TIP3    H217350  -0.104   6.149   3.580
 5825TIP3   OH217351  -0.254   5.966   2.683
 5825TIP3    H117352  -0.301   6.003   2.606
 5825TIP3    H217353  -0.245   6.043   2.743
 5826TIP3   OH217354   0.351   6.354   3.586
 5826TIP3    H117355   0.257   6.383   3.593
 5826TIP3    H217356   0.352   6.326   3.494
 5827TIP3   OH217357  -0.016   6.577   2.976
 5827TIP3    H117358  -0.092   6.517   2.985
 5827TIP3    H217359   0.053   6.531   3.029
 5828TIP3   OH217360   0.009   7.466   2.922
 5828TIP3    H117361  -0.064   7.514   2.881
 5828TIP3    H217362   0.085   7.524   2.897
 5829TIP3   OH217363   0.069   6.644   3.905
 5829TIP3    H117364   0.102   6.582   3.972
 5829TIP3    H217365   0.107   6.727   3.936
 5830TIP3   OH217366   0.085   6.903   3.654
 5830TIP3    H117367   0.031   6.972   3.615
 5830TIP3    H217368   0.175   6.925   3.620
 5831TIP3   OH217369  -0.029   6.370   3.794
 5831TIP3    H117370  -0.102   6.392   3.853
 5831TIP3    H217371   0.044   6.353   3.858
 5832TIP3   OH217372   0.147   6.305   3.984
 5832TIP3    H117373   0.170   6.212   4.005
 5832TIP3    H217374   0.143   6.349   4.071
 5833TIP3   OH217375   0.212   7.636   2.879
 5833TIP3    H117376   0.234   7.669   2.968
 5833TIP3    H217377   0.275   7.684   2.824
 5834TIP3   OH217378   0.235   7.644   3.157
 5834TIP3    H117379   0.200   7.554   3.156
 5834TIP3    H217380   0.301   7.635   3.228
 5835TIP3   OH217381   0.268   7.323   3.727
 5835TIP3    H117382   0.222   7.316   3.811
 5835TIP3    H217383   0.317   7.408   3.737
 5836TIP3   OH217384   0.128   6.807   2.364
 5836TIP3    H117385   0.195   6.876   2.377
 5836TIP3    H217386   0.135   6.761   2.450
 5837TIP3   OH217387   0.226   6.683   2.580
 5837TIP3    H117388   0.160   6.646   2.642
 5837TIP3    H217389   0.290   6.727   2.639
 5838TIP3   OH217390   0.261   7.086   2.988
 5838TIP3    H117391   0.323   7.024   2.946
 5838TIP3    H217392   0.272   7.166   2.932
 5839TIP3   OH217393   0.083   7.371   3.183
 5839TIP3    H117394   0.034   7.440   3.229
 5839TIP3    H217395   0.058   7.388   3.089
 5840TIP3   OH217396   0.135   6.607   2.185
 5840TIP3    H117397   0.043   6.612   2.155
 5840TIP3    H217398   0.132   6.675   2.257
 5841TIP3   OH217399   0.045   6.533   2.720
 5841TIP3    H117400   0.077   6.448   2.750
 5841TIP3    H217401   0.021   6.574   2.806
 5842TIP3   OH217402   0.327   6.978   3.565
 5842TIP3    H117403   0.398   6.911   3.558
 5842TIP3    H217404   0.357   7.047   3.504
 5843TIP3   OH217405   0.516   6.788   3.583
 5843TIP3    H117406   0.440   6.738   3.620
 5843TIP3    H217407   0.587   6.723   3.598
 5844TIP3   OH217408   0.009   6.002   2.250
 5844TIP3    H117409   0.054   5.961   2.174
 5844TIP3    H217410  -0.083   5.967   2.231
 5845TIP3   OH217411   0.194   6.442   3.093
 5845TIP3    H117412   0.282   6.471   3.061
 5845TIP3    H217413   0.200   6.477   3.185
 5846TIP3   OH217414   0.262   6.580   3.327
 5846TIP3    H117415   0.188   6.616   3.380
 5846TIP3    H217416   0.298   6.661   3.286
 5847TIP3   OH217417   0.711   6.171   3.892
 5847TIP3    H117418   0.770   6.107   3.847
 5847TIP3    H217419   0.686   6.230   3.819
 5848TIP3   OH217420   0.127   6.022   2.606
 5848TIP3    H117421   0.180   6.024   2.689
 5848TIP3    H217422   0.076   5.940   2.626
 5849TIP3   OH217423   0.594   6.318   3.700
 5849TIP3    H117424   0.505   6.355   3.718
 5849TIP3    H217425   0.567   6.248   3.638
 5850TIP3   OH217426   0.486   6.077   3.573
 5850TIP3    H117427   0.394   6.078   3.543
 5850TIP3    H217428   0.511   5.983   3.559
 5851TIP3   OH217429  -0.269   5.967   3.214
 5851TIP3    H117430  -0.287   5.886   3.264
 5851TIP3    H217431  -0.196   5.936   3.157
 5852TIP3   OH217432   0.216   5.872   3.090
 5852TIP3    H117433   0.249   5.930   3.018
 5852TIP3    H217434   0.120   5.891   3.089
 5853TIP3   OH217435   0.296   5.985   2.843
 5853TIP3    H117436   0.372   5.927   2.817
 5853TIP3    H217437   0.339   6.073   2.841
 5854TIP3   OH217438  -0.061   5.874   3.062
 5854TIP3    H117439  -0.059   5.833   2.974
 5854TIP3    H217440  -0.076   5.795   3.119
 5855TIP3   OH217441  -0.042   5.804   2.629
 5855TIP3    H117442  -0.127   5.849   2.649
 5855TIP3    H217443  -0.055   5.719   2.678
 5856TIP3   OH217444   0.218   6.040   4.008
 5856TIP3    H117445   0.240   6.009   4.099
 5856TIP3    H217446   0.305   6.037   3.964
 5857TIP3   OH217447   0.161   7.589   3.436
 5857TIP3    H117448   0.085   7.545   3.477
 5857TIP3    H217449   0.167   7.666   3.495
 5858TIP3   OH217450   1.436   6.951   2.610
 5858TIP3    H117451   1.463   6.953   2.704
 5858TIP3    H217452   1.378   6.872   2.614
 5859TIP3   OH217453   0.721   6.862   3.009
 5859TIP3    H117454   0.750   6.796   3.074
 5859TIP3    H217455   0.794   6.925   3.014
 5860TIP3   OH217456   0.690   7.268   2.736
 5860TIP3    H117457   0.682   7.171   2.741
 5860TIP3    H217458   0.787   7.278   2.737
 5861TIP3   OH217459   0.392   6.466   2.505
 5861TIP3    H117460   0.357   6.556   2.517
 5861TIP3    H217461   0.333   6.417   2.564
 5862TIP3   OH217462   0.464   6.763   2.691
 5862TIP3    H117463   0.513   6.688   2.733
 5862TIP3    H217464   0.529   6.798   2.630
 5863TIP3   OH217465   1.305   7.727   2.338
 5863TIP3    H117466   1.361   7.658   2.298
 5863TIP3    H217467   1.307   7.705   2.431
 5864TIP3   OH217468   1.221   7.192   2.690
 5864TIP3    H117469   1.255   7.115   2.644
 5864TIP3    H217470   1.304   7.235   2.718
 5865TIP3   OH217471   2.229   6.515   2.690
 5865TIP3    H117472   2.259   6.596   2.736
 5865TIP3    H217473   2.254   6.535   2.598
 5866TIP3   OH217474   1.632   6.700   2.722
 5866TIP3    H117475   1.673   6.614   2.746
 5866TIP3    H217476   1.611   6.685   2.628
 5867TIP3   OH217477   0.966   6.354   2.693
 5867TIP3    H117478   0.948   6.426   2.629
 5867TIP3    H217479   0.921   6.279   2.649
 5868TIP3   OH217480   1.663   6.446   2.315
 5868TIP3    H117481   1.733   6.426   2.382
 5868TIP3    H217482   1.718   6.480   2.243
 5869TIP3   OH217483   0.606   6.556   2.797
 5869TIP3    H117484   0.687   6.537   2.848
 5869TIP3    H217485   0.622   6.499   2.719
 5870TIP3   OH217486   1.048   6.755   2.586
 5870TIP3    H117487   1.139   6.726   2.605
 5870TIP3    H217488   1.006   6.670   2.559
 5871TIP3   OH217489   2.305   6.720   2.860
 5871TIP3    H117490   2.221   6.766   2.844
 5871TIP3    H217491   2.320   6.741   2.953
 5872TIP3   OH217492   0.967   6.337   3.125
 5872TIP3    H117493   0.905   6.374   3.060
 5872TIP3    H217494   0.917   6.353   3.208
 5873TIP3   OH217495   1.335   7.192   2.141
 5873TIP3    H117496   1.286   7.157   2.065
 5873TIP3    H217497   1.284   7.274   2.159
 5874TIP3   OH217498   1.072   7.112   2.923
 5874TIP3    H117499   1.007   7.173   2.964
 5874TIP3    H217500   1.113   7.169   2.857
 5875TIP3   OH217501   1.875   6.447   2.483
 5875TIP3    H117502   1.872   6.393   2.564
 5875TIP3    H217503   1.927   6.524   2.512
 5876TIP3   OH217504   0.835   6.453   2.912
 5876TIP3    H117505   0.898   6.525   2.936
 5876TIP3    H217506   0.886   6.410   2.839
 5877TIP3   OH217507   0.898   7.303   3.016
 5877TIP3    H117508   0.874   7.391   2.981
 5877TIP3    H217509   0.821   7.289   3.076
 5878TIP3   OH217510   0.335   7.000   2.279
 5878TIP3    H117511   0.290   7.024   2.197
 5878TIP3    H217512   0.350   7.090   2.317
 5879TIP3   OH217513   1.740   7.510   2.504
 5879TIP3    H117514   1.647   7.503   2.536
 5879TIP3    H217515   1.735   7.593   2.453
 5880TIP3   OH217516   2.025   6.414   2.857
 5880TIP3    H117517   1.938   6.446   2.829
 5880TIP3    H217518   2.084   6.445   2.785
 5881TIP3   OH217519   1.324   6.057   2.837
 5881TIP3    H117520   1.315   5.962   2.859
 5881TIP3    H217521   1.246   6.092   2.885
 5882TIP3   OH217522   1.444   7.557   2.174
 5882TIP3    H117523   1.492   7.481   2.134
 5882TIP3    H217524   1.499   7.629   2.136
 5883TIP3   OH217525   1.579   7.347   2.059
 5883TIP3    H117526   1.538   7.273   2.013
 5883TIP3    H217527   1.606   7.309   2.143
 5884TIP3   OH217528   1.961   7.427   2.842
 5884TIP3    H117529   1.966   7.353   2.779
 5884TIP3    H217530   1.946   7.504   2.782
 5885TIP3   OH217531   1.257   6.815   2.086
 5885TIP3    H117532   1.177   6.870   2.073
 5885TIP3    H217533   1.297   6.817   1.997
 5886TIP3   OH217534   1.213   6.598   1.819
 5886TIP3    H117535   1.280   6.647   1.868
 5886TIP3    H217536   1.270   6.537   1.767
 5887TIP3   OH217537   2.161   7.056   2.681
 5887TIP3    H117538   2.079   7.109   2.687
 5887TIP3    H217539   2.192   7.081   2.592
 5888TIP3   OH217540   1.592   6.918   2.095
 5888TIP3    H117541   1.514   6.875   2.132
 5888TIP3    H217542   1.667   6.864   2.128
 5889TIP3   OH217543   1.836   6.943   2.978
 5889TIP3    H117544   1.835   7.023   3.033
 5889TIP3    H217545   1.746   6.946   2.939
 5890TIP3   OH217546   0.836   6.899   2.483
 5890TIP3    H117547   0.795   6.838   2.418
 5890TIP3    H217548   0.913   6.847   2.514
 5891TIP3   OH217549   0.962   7.309   2.633
 5891TIP3    H117550   0.944   7.261   2.551
 5891TIP3    H217551   1.053   7.280   2.654
 5892TIP3   OH217552   0.970   6.871   2.835
 5892TIP3    H117553   1.006   6.853   2.746
 5892TIP3    H217554   1.012   6.956   2.860
 5893TIP3   OH217555   1.493   7.503   2.615
 5893TIP3    H117556   1.480   7.589   2.658
 5893TIP3    H217557   1.479   7.439   2.687
 5894TIP3   OH217558   1.106   7.426   3.160
 5894TIP3    H117559   1.049   7.490   3.209
 5894TIP3    H217560   1.037   7.374   3.114
 5895TIP3   OH217561   1.452   6.764   1.892
 5895TIP3    H117562   1.509   6.832   1.930
 5895TIP3    H217563   1.467   6.781   1.796
 5896TIP3   OH217564   0.858   6.988   3.256
 5896TIP3    H117565   0.865   7.072   3.306
 5896TIP3    H217566   0.764   6.966   3.273
 5897TIP3   OH217567   1.183   7.442   2.172
 5897TIP3    H117568   1.257   7.500   2.195
 5897TIP3    H217569   1.121   7.504   2.132
 5898TIP3   OH217570   0.903   7.595   3.247
 5898TIP3    H117571   0.864   7.593   3.158
 5898TIP3    H217572   0.825   7.575   3.304
 5899TIP3   OH217573   1.958   6.002   1.941
 5899TIP3    H117574   1.876   6.018   1.993
 5899TIP3    H217575   1.967   6.085   1.891
 5900TIP3   OH217576   0.703   6.738   2.291
 5900TIP3    H117577   0.638   6.784   2.234
 5900TIP3    H217578   0.662   6.652   2.305
 5901TIP3   OH217579   1.754   7.368   1.492
 5901TIP3    H117580   1.760   7.465   1.473
 5901TIP3    H217581   1.847   7.340   1.477
 5902TIP3   OH217582   0.482   7.125   3.196
 5902TIP3    H117583   0.417   7.098   3.129
 5902TIP3    H217584   0.519   7.039   3.226
 5903TIP3   OH217585   0.335   7.314   2.839
 5903TIP3    H117586   0.430   7.314   2.820
 5903TIP3    H217587   0.326   7.400   2.884
 5904TIP3   OH217588   2.200   7.767   2.884
 5904TIP3    H117589   2.198   7.672   2.901
 5904TIP3    H217590   2.117   7.795   2.929
 5905TIP3   OH217591   1.305   7.557   3.017
 5905TIP3    H117592   1.306   7.649   3.051
 5905TIP3    H217593   1.234   7.518   3.073
 5906TIP3   OH217594   1.061   7.682   1.986
 5906TIP3    H117595   1.044   7.674   1.890
 5906TIP3    H217596   1.035   7.775   2.004
 5907TIP3   OH217597   0.511   7.497   2.361
 5907TIP3    H117598   0.576   7.517   2.431
 5907TIP3    H217599   0.444   7.456   2.419
 5908TIP3   OH217600   1.308   7.604   1.611
 5908TIP3    H117601   1.355   7.535   1.559
 5908TIP3    H217602   1.346   7.594   1.700
 5909TIP3   OH217603   1.319   7.634   1.891
 5909TIP3    H117604   1.231   7.641   1.933
 5909TIP3    H217605   1.372   7.599   1.964
 5910TIP3   OH217606   2.090   6.902   3.158
 5910TIP3    H117607   2.009   6.913   3.107
 5910TIP3    H217608   2.106   6.806   3.149
 5911TIP3   OH217609   0.687   7.308   3.186
 5911TIP3    H117610   0.737   7.293   3.269
 5911TIP3    H217611   0.613   7.244   3.195
 5912TIP3   OH217612   1.084   6.134   2.966
 5912TIP3    H117613   0.994   6.102   2.942
 5912TIP3    H217614   1.059   6.215   3.015
 5913TIP3   OH217615   1.617   6.249   3.162
 5913TIP3    H117616   1.686   6.221   3.226
 5913TIP3    H217617   1.534   6.227   3.209
 5914TIP3   OH217618   1.859   6.677   3.081
 5914TIP3    H117619   1.812   6.671   3.167
 5914TIP3    H217620   1.833   6.764   3.048
 5915TIP3   OH217621   1.517   6.809   1.637
 5915TIP3    H117622   1.485   6.779   1.550
 5915TIP3    H217623   1.597   6.859   1.611
 5916TIP3   OH217624   1.218   6.191   1.930
 5916TIP3    H117625   1.198   6.188   2.026
 5916TIP3    H217626   1.190   6.101   1.905
 5917TIP3   OH217627   1.015   6.648   2.986
 5917TIP3    H117628   0.967   6.669   3.069
 5917TIP3    H217629   0.998   6.729   2.934
 5918TIP3   OH217630   0.899   6.536   2.501
 5918TIP3    H117631   0.807   6.506   2.519
 5918TIP3    H217632   0.915   6.493   2.414
 5919TIP3   OH217633   1.398   6.631   2.227
 5919TIP3    H117634   1.335   6.693   2.182
 5919TIP3    H217635   1.444   6.590   2.151
 5920TIP3   OH217636   1.565   6.900   3.315
 5920TIP3    H117637   1.543   6.827   3.377
 5920TIP3    H217638   1.658   6.915   3.338
 5921TIP3   OH217639   1.542   6.656   2.460
 5921TIP3    H117640   1.480   6.656   2.384
 5921TIP3    H217641   1.593   6.577   2.434
 5922TIP3   OH217642   0.833   6.677   3.196
 5922TIP3    H117643   0.862   6.739   3.265
 5922TIP3    H217644   0.823   6.594   3.248
 5923TIP3   OH217645   0.432   6.210   2.762
 5923TIP3    H117646   0.501   6.236   2.827
 5923TIP3    H217647   0.482   6.159   2.697
 5924TIP3   OH217648   0.381   6.210   2.310
 5924TIP3    H117649   0.430   6.208   2.225
 5924TIP3    H217650   0.390   6.303   2.334
 5925TIP3   OH217651   1.560   6.901   2.887
 5925TIP3    H117652   1.589   6.825   2.831
 5925TIP3    H217653   1.532   6.852   2.967
 5926TIP3   OH217654   1.224   6.368   2.564
 5926TIP3    H117655   1.144   6.355   2.618
 5926TIP3    H217656   1.295   6.352   2.629
 5927TIP3   OH217657   0.662   6.410   2.569
 5927TIP3    H117658   0.569   6.410   2.537
 5927TIP3    H217659   0.693   6.319   2.551
 5928TIP3   OH217660   0.935   6.410   2.261
 5928TIP3    H117661   1.030   6.421   2.242
 5928TIP3    H217662   0.892   6.433   2.176
 5929TIP3   OH217663   1.717   6.435   2.762
 5929TIP3    H117664   1.684   6.445   2.855
 5929TIP3    H217665   1.657   6.369   2.727
 5930TIP3   OH217666   0.769   6.449   2.045
 5930TIP3    H117667   0.690   6.404   2.014
 5930TIP3    H217668   0.813   6.477   1.962
 5931TIP3   OH217669   1.888   8.119   2.982
 5931TIP3    H117670   1.887   8.145   2.888
 5931TIP3    H217671   1.965   8.169   3.014
 5932TIP3   OH217672   0.847   7.231   3.405
 5932TIP3    H117673   0.927   7.261   3.453
 5932TIP3    H217674   0.783   7.230   3.479
 5933TIP3   OH217675   1.314   6.692   2.662
 5933TIP3    H117676   1.382   6.643   2.613
 5933TIP3    H217677   1.317   6.648   2.750
 5934TIP3   OH217678   0.832   6.173   2.535
 5934TIP3    H117679   0.802   6.092   2.583
 5934TIP3    H217680   0.894   6.136   2.471
 5935TIP3   OH217681   1.288   6.583   2.945
 5935TIP3    H117682   1.198   6.617   2.965
 5935TIP3    H217683   1.346   6.638   3.000
 5936TIP3   OH217684   1.025   6.968   2.048
 5936TIP3    H117685   0.950   6.907   2.039
 5936TIP3    H217686   1.010   7.005   2.139
 5937TIP3   OH217687   1.933   7.207   2.671
 5937TIP3    H117688   1.962   7.259   2.592
 5937TIP3    H217689   1.838   7.225   2.674
 5938TIP3   OH217690   1.479   6.285   1.908
 5938TIP3    H117691   1.382   6.273   1.911
 5938TIP3    H217692   1.492   6.380   1.927
 5939TIP3   OH217693   1.420   7.290   3.041
 5939TIP3    H117694   1.444   7.265   3.131
 5939TIP3    H217695   1.385   7.381   3.053
 5940TIP3   OH217696   1.553   6.532   2.010
 5940TIP3    H117697   1.650   6.532   2.021
 5940TIP3    H217698   1.539   6.607   1.948
 5941TIP3   OH217699   0.711   6.986   2.721
 5941TIP3    H117700   0.757   6.961   2.639
 5941TIP3    H217701   0.755   6.930   2.787
 5942TIP3   OH217702   1.173   7.117   1.871
 5942TIP3    H117703   1.128   7.204   1.881
 5942TIP3    H217704   1.117   7.062   1.930
 5943TIP3   OH217705   0.597   6.917   3.334
 5943TIP3    H117706   0.619   6.902   3.429
 5943TIP3    H217707   0.531   6.846   3.319
 5944TIP3   OH217708   1.321   7.027   3.352
 5944TIP3    H117709   1.264   6.965   3.304
 5944TIP3    H217710   1.410   6.995   3.327
 5945TIP3   OH217711   1.583   7.540   2.939
 5945TIP3    H117712   1.487   7.549   2.952
 5945TIP3    H217713   1.615   7.595   3.014
 5946TIP3   OH217714   1.994   6.620   1.848
 5946TIP3    H117715   1.932   6.573   1.786
 5946TIP3    H217716   1.992   6.708   1.803
 5947TIP3   OH217717   2.212   7.475   2.931
 5947TIP3    H117718   2.114   7.473   2.923
 5947TIP3    H217719   2.237   7.448   2.840
 5948TIP3   OH217720   1.694   7.439   1.753
 5948TIP3    H117721   1.670   7.365   1.810
 5948TIP3    H217722   1.709   7.398   1.667
 5949TIP3   OH217723   0.815   7.293   2.338
 5949TIP3    H117724   0.826   7.376   2.289
 5949TIP3    H217725   0.721   7.297   2.360
 5950TIP3   OH217726   0.392   6.594   2.099
 5950TIP3    H117727   0.418   6.686   2.083
 5950TIP3    H217728   0.302   6.604   2.138
 5951TIP3   OH217729   0.958   7.063   2.290
 5951TIP3    H117730   0.920   7.152   2.306
 5951TIP3    H217731   0.922   7.014   2.366
 5952TIP3   OH217732   1.086   7.640   2.814
 5952TIP3    H117733   1.124   7.715   2.765
 5952TIP3    H217734   1.162   7.611   2.867
 5953TIP3   OH217735   0.747   7.532   2.194
 5953TIP3    H117736   0.661   7.541   2.239
 5953TIP3    H217737   0.780   7.624   2.199
 5954TIP3   OH217738   1.477   7.263   2.778
 5954TIP3    H117739   1.453   7.279   2.872
 5954TIP3    H217740   1.565   7.226   2.791
 5955TIP3   OH217741   1.450   7.159   1.655
 5955TIP3    H117742   1.496   7.138   1.738
 5955TIP3    H217743   1.358   7.141   1.678
 5956TIP3   OH217744   1.724   7.809   2.822
 5956TIP3    H117745   1.643   7.755   2.811
 5956TIP3    H217746   1.711   7.876   2.751
 5957TIP3   OH217747   1.787   7.644   1.472
 5957TIP3    H117748   1.829   7.716   1.423
 5957TIP3    H217749   1.710   7.693   1.508
 5958TIP3   OH217750   0.811   6.419   3.343
 5958TIP3    H117751   0.715   6.426   3.361
 5958TIP3    H217752   0.840   6.360   3.414
 5959TIP3   OH217753   1.607   7.104   1.878
 5959TIP3    H117754   1.604   7.043   1.954
 5959TIP3    H217755   1.703   7.103   1.857
 5960TIP3   OH217756   0.525   7.504   2.975
 5960TIP3    H117757   0.577   7.430   3.010
 5960TIP3    H217758   0.552   7.575   3.035
 5961TIP3   OH217759   0.774   7.142   1.665
 5961TIP3    H117760   0.833   7.088   1.610
 5961TIP3    H217761   0.802   7.119   1.755
 5962TIP3   OH217762   0.783   7.139   1.956
 5962TIP3    H117763   0.869   7.143   2.000
 5962TIP3    H217764   0.771   7.235   1.937
 5963TIP3   OH217765   0.520   6.873   2.129
 5963TIP3    H117766   0.459   6.867   2.205
 5963TIP3    H217767   0.489   6.961   2.098
 5964TIP3   OH217768   1.643   6.483   3.022
 5964TIP3    H117769   1.722   6.521   3.063
 5964TIP3    H217770   1.628   6.403   3.076
 5965TIP3   OH217771   1.517   6.242   2.187
 5965TIP3    H117772   1.511   6.262   2.092
 5965TIP3    H217773   1.563   6.320   2.223
 5966TIP3   OH217774   1.021   7.340   1.904
 5966TIP3    H117775   0.942   7.389   1.930
 5966TIP3    H217776   1.050   7.391   1.826
 5967TIP3   OH217777   1.215   6.418   2.290
 5967TIP3    H117778   1.285   6.484   2.277
 5967TIP3    H217779   1.219   6.406   2.388
 5968TIP3   OH217780   1.487   6.738   3.096
 5968TIP3    H117781   1.503   6.790   3.177
 5968TIP3    H217782   1.540   6.658   3.113
 5969TIP3   OH217783   1.359   6.146   2.394
 5969TIP3    H117784   1.367   6.216   2.461
 5969TIP3    H217785   1.418   6.182   2.324
 5970TIP3   OH217786   0.755   7.426   1.942
 5970TIP3    H117787   0.754   7.506   1.885
 5970TIP3    H217788   0.749   7.466   2.032
 5971TIP3   OH217789   0.867   6.134   2.184
 5971TIP3    H117790   0.870   6.226   2.215
 5971TIP3    H217791   0.962   6.113   2.184
 5972TIP3   OH217792   2.126   6.635   3.076
 5972TIP3    H117793   2.028   6.632   3.085
 5972TIP3    H217794   2.135   6.591   2.990
 5973TIP3   OH217795   8.053   3.301   9.493
 5973TIP3    H117796   8.089   3.391   9.502
 5973TIP3    H217797   7.995   3.316   9.415
 5974TIP3   OH217798   0.446   6.328   2.058
 5974TIP3    H117799   0.442   6.425   2.077
 5974TIP3    H217800   0.359   6.313   2.020
 5975TIP3   OH217801   1.745   7.776   2.415
 5975TIP3    H117802   1.702   7.826   2.342
 5975TIP3    H217803   1.839   7.799   2.396
 5976TIP3   OH217804   0.817   6.053   2.946
 5976TIP3    H117805   0.789   6.016   2.859
 5976TIP3    H217806   0.811   5.974   3.004
 5977TIP3   OH217807   0.337   7.266   2.319
 5977TIP3    H117808   0.292   7.324   2.382
 5977TIP3    H217809   0.387   7.329   2.266
 5978TIP3   OH217810   0.513   7.806   3.397
 5978TIP3    H117811   0.600   7.812   3.444
 5978TIP3    H217812   0.500   7.710   3.394
 5979TIP3   OH217813   0.997   7.780   3.439
 5979TIP3    H117814   1.092   7.763   3.451
 5979TIP3    H217815   0.976   7.721   3.364
 5980TIP3   OH217816   0.992   7.359   1.615
 5980TIP3    H117817   0.925   7.289   1.606
 5980TIP3    H217818   1.050   7.332   1.541
 5981TIP3   OH217819   1.641   7.678   3.169
 5981TIP3    H117820   1.629   7.612   3.240
 5981TIP3    H217821   1.715   7.733   3.202
 5982TIP3   OH217822   1.432   7.396   1.483
 5982TIP3    H117823   1.486   7.336   1.536
 5982TIP3    H217824   1.480   7.400   1.398
 5983TIP3   OH217825   0.650   7.217   3.598
 5983TIP3    H117826   0.667   7.121   3.603
 5983TIP3    H217827   0.563   7.219   3.553
 5984TIP3   OH217828   0.655   6.853   1.795
 5984TIP3    H117829   0.708   6.773   1.786
 5984TIP3    H217830   0.669   6.888   1.705
 5985TIP3   OH217831   1.257   7.302   3.368
 5985TIP3    H117832   1.213   7.316   3.282
 5985TIP3    H217833   1.287   7.209   3.363
 5986TIP3   OH217834   1.144   7.062   1.601
 5986TIP3    H117835   1.144   7.076   1.697
 5986TIP3    H217836   1.130   6.965   1.596
 5987TIP3   OH217837   1.743   7.303   2.959
 5987TIP3    H117838   1.820   7.356   2.930
 5987TIP3    H217839   1.675   7.373   2.964
 5988TIP3   OH217840   0.769   6.951   3.575
 5988TIP3    H117841   0.840   6.887   3.563
 5988TIP3    H217842   0.789   6.984   3.665
 5989TIP3   OH217843   0.810   6.780   2.020
 5989TIP3    H117844   0.802   6.731   2.104
 5989TIP3    H217845   0.852   6.711   1.964
 5990TIP3   OH217846   1.098   6.835   3.237
 5990TIP3    H117847   1.023   6.897   3.244
 5990TIP3    H217848   1.146   6.869   3.159
 5991TIP3   OH217849   0.927   6.575   1.853
 5991TIP3    H117850   0.907   6.568   1.757
 5991TIP3    H217851   1.025   6.575   1.851
 5992TIP3   OH217852   1.615   7.236   3.371
 5992TIP3    H117853   1.703   7.222   3.334
 5992TIP3    H217854   1.613   7.172   3.444
 5993TIP3   OH217855   1.755   6.897   1.514
 5993TIP3    H117856   1.735   6.850   1.430
 5993TIP3    H217857   1.725   6.987   1.489
 5994TIP3   OH217858   1.223   6.624   3.368
 5994TIP3    H117859   1.223   6.543   3.313
 5994TIP3    H217860   1.178   6.688   3.309
 5995TIP3   OH217861   1.225   6.412   3.171
 5995TIP3    H117862   1.252   6.449   3.085
 5995TIP3    H217863   1.132   6.387   3.154
 5996TIP3   OH217864   1.253   6.945   3.043
 5996TIP3    H117865   1.337   6.953   2.996
 5996TIP3    H217866   1.199   7.016   3.002
 5997TIP3   OH217867   1.836   6.914   3.427
 5997TIP3    H117868   1.884   6.832   3.443
 5997TIP3    H217869   1.907   6.973   3.398
 5998TIP3   OH217870   1.876   7.166   3.157
 5998TIP3    H117871   1.818   7.219   3.098
 5998TIP3    H217872   1.964   7.187   3.118
 5999TIP3   OH217873   1.097   6.742   3.591
 5999TIP3    H117874   1.029   6.673   3.609
 5999TIP3    H217875   1.136   6.710   3.507
 6000TIP3   OH217876   1.358   6.176   3.237
 6000TIP3    H117877   1.309   6.258   3.217
 6000TIP3    H217878   1.289   6.108   3.227
 6001TIP3   OH217879   1.484   6.683   3.456
 6001TIP3    H117880   1.477   6.671   3.552
 6001TIP3    H217881   1.393   6.656   3.430
 6002TIP3   OH217882   1.723   6.627   3.309
 6002TIP3    H117883   1.648   6.629   3.371
 6002TIP3    H217884   1.797   6.597   3.367
 6003TIP3   OH217885   1.952   6.568   3.461
 6003TIP3    H117886   1.965   6.473   3.481
 6003TIP3    H217887   1.947   6.609   3.550
 6004TIP3   OH217888   0.941   6.519   3.646
 6004TIP3    H117889   0.949   6.428   3.613
 6004TIP3    H217890   0.975   6.508   3.737
 6005TIP3   OH217891   1.453   6.186   3.495
 6005TIP3    H117892   1.522   6.116   3.491
 6005TIP3    H217893   1.414   6.177   3.406
 6006TIP3   OH217894   1.518   6.400   3.655
 6006TIP3    H117895   1.496   6.329   3.591
 6006TIP3    H217896   1.440   6.459   3.649
 6007TIP3   OH217897   0.304   7.460   2.552
 6007TIP3    H117898   0.252   7.406   2.613
 6007TIP3    H217899   0.324   7.535   2.611
 6008TIP3   OH217900   1.996   7.872   2.372
 6008TIP3    H117901   2.021   7.911   2.458
 6008TIP3    H217902   2.051   7.922   2.310
 6009TIP3   OH217903   2.024   7.897   2.654
 6009TIP3    H117904   1.986   7.806   2.650
 6009TIP3    H217905   2.102   7.880   2.710
 6010TIP3   OH217906   2.071   7.571   3.225
 6010TIP3    H117907   1.998   7.579   3.290
 6010TIP3    H217908   2.112   7.660   3.230
 6011TIP3   OH217909   1.886   7.087   1.849
 6011TIP3    H117910   1.953   7.151   1.817
 6011TIP3    H217911   1.932   7.048   1.926
 6012TIP3   OH217912   2.011   6.954   2.054
 6012TIP3    H117913   1.958   6.909   2.122
 6012TIP3    H217914   2.087   6.989   2.106
 6013TIP3   OH217915   2.056   7.337   2.471
 6013TIP3    H117916   2.123   7.282   2.426
 6013TIP3    H217917   2.060   7.421   2.420
 6014TIP3   OH217918   1.904   7.643   2.683
 6014TIP3    H117919   1.835   7.692   2.732
 6014TIP3    H217920   1.851   7.599   2.613
 6015TIP3   OH217921   1.953   6.860   1.700
 6015TIP3    H117922   1.883   6.862   1.631
 6015TIP3    H217923   1.927   6.939   1.751
 6016TIP3   OH217924   1.821   6.535   1.657
 6016TIP3    H117925   1.788   6.573   1.575
 6016TIP3    H217926   1.796   6.441   1.646
 6017TIP3   OH217927   1.817   6.792   2.224
 6017TIP3    H117928   1.826   6.705   2.181
 6017TIP3    H217929   1.866   6.776   2.306
 6018TIP3   OH217930   0.457   6.890   2.942
 6018TIP3    H117931   0.457   6.859   2.849
 6018TIP3    H217932   0.554   6.888   2.961
 6019TIP3   OH217933   2.118   7.232   3.050
 6019TIP3    H117934   2.191   7.167   3.045
 6019TIP3    H217935   2.152   7.306   2.997
 6020TIP3   OH217936   2.305   7.041   3.074
 6020TIP3    H117937   2.231   6.989   3.113
 6020TIP3    H217938   2.378   6.978   3.087
 6021TIP3   OH217939   1.767   6.270   1.645
 6021TIP3    H117940   1.846   6.237   1.693
 6021TIP3    H217941   1.698   6.205   1.667
 6022TIP3   OH217942   1.830   6.530   2.090
 6022TIP3    H117943   1.866   6.441   2.112
 6022TIP3    H217944   1.889   6.553   2.017
 6023TIP3   OH217945   1.986   6.706   2.574
 6023TIP3    H117946   2.075   6.733   2.542
 6023TIP3    H217947   1.991   6.738   2.665
 6024TIP3   OH217948   2.053   6.840   2.819
 6024TIP3    H117949   1.978   6.875   2.870
 6024TIP3    H217950   2.089   6.920   2.776
 6025TIP3   OH217951   0.674   6.570   3.615
 6025TIP3    H117952   0.772   6.564   3.620
 6025TIP3    H217953   0.650   6.487   3.661
 6026TIP3   OH217954   2.508   6.432   3.377
 6026TIP3    H117955   2.566   6.365   3.334
 6026TIP3    H217956   2.482   6.489   3.302
 6027TIP3   OH217957   1.930   6.277   2.133
 6027TIP3    H117958   1.982   6.260   2.215
 6027TIP3    H217959   1.873   6.197   2.131
 6028TIP3   OH217960   0.632   6.259   2.945
 6028TIP3    H117961   0.694   6.185   2.959
 6028TIP3    H217962   0.695   6.334   2.945
 6029TIP3   OH217963   0.439   6.535   3.020
 6029TIP3    H117964   0.494   6.534   2.939
 6029TIP3    H217965   0.468   6.616   3.064
 6030TIP3   OH217966   2.382   6.575   3.183
 6030TIP3    H117967   2.295   6.612   3.208
 6030TIP3    H217968   2.353   6.503   3.124
 6031TIP3   OH217969   2.017   6.212   1.761
 6031TIP3    H117970   2.057   6.137   1.711
 6031TIP3    H217971   2.086   6.280   1.753
 6032TIP3   OH217972   0.425   6.038   2.515
 6032TIP3    H117973   0.337   6.032   2.554
 6032TIP3    H217974   0.412   6.100   2.440
 6033TIP3   OH217975   1.585   7.735   2.033
 6033TIP3    H117976   1.633   7.724   1.948
 6033TIP3    H217977   1.630   7.811   2.072
 6034TIP3   OH217978   0.640   6.120   3.339
 6034TIP3    H117979   0.593   6.111   3.423
 6034TIP3    H217980   0.570   6.156   3.281
 6035TIP3   OH217981   0.687   7.543   3.417
 6035TIP3    H117982   0.595   7.515   3.400
 6035TIP3    H217983   0.696   7.527   3.511
 6036TIP3   OH217984   0.858   7.572   2.961
 6036TIP3    H117985   0.810   7.650   2.924
 6036TIP3    H217986   0.944   7.588   2.918
 6037TIP3   OH217987   1.306   7.821   3.099
 6037TIP3    H117988   1.346   7.823   3.189
 6037TIP3    H217989   1.373   7.873   3.049
 6038TIP3   OH217990   1.486   7.971   2.958
 6038TIP3    H117991   1.561   7.923   2.920
 6038TIP3    H217992   1.534   8.031   3.020
 6039TIP3   OH217993   2.278   6.336   3.059
 6039TIP3    H117994   2.186   6.329   3.029
 6039TIP3    H217995   2.308   6.243   3.047
 6040TIP3   OH217996   0.538   7.831   2.988
 6040TIP3    H117997   0.450   7.869   2.965
 6040TIP3    H217998   0.550   7.870   3.076
 6041TIP3   OH217999   0.772   7.809   2.842
 6041TIP3    H118000   0.687   7.825   2.889
 6041TIP3    H218001   0.753   7.848   2.754
 6042TIP3   OH218002   1.198   7.843   2.641
 6042TIP3    H118003   1.133   7.866   2.572
 6042TIP3    H218004   1.213   7.930   2.683
 6043TIP3   OH218005   1.466   7.777   2.686
 6043TIP3    H118006   1.372   7.799   2.672
 6043TIP3    H218007   1.509   7.857   2.651
 6044TIP3   OH218008   1.674   7.974   2.609
 6044TIP3    H118009   1.659   8.060   2.564
 6044TIP3    H218010   1.700   7.917   2.533
 6045TIP3   OH218011   0.455   7.633   2.732
 6045TIP3    H118012   0.477   7.607   2.824
 6045TIP3    H218013   0.525   7.585   2.684
 6046TIP3   OH218014   0.647   7.500   2.593
 6046TIP3    H118015   0.662   7.417   2.644
 6046TIP3    H218016   0.738   7.539   2.593
 6047TIP3   OH218017   0.906   7.594   2.591
 6047TIP3    H118018   0.942   7.504   2.581
 6047TIP3    H218019   0.949   7.621   2.674
 6048TIP3   OH218020   1.475   6.247   2.667
 6048TIP3    H118021   1.437   6.181   2.728
 6048TIP3    H218022   1.553   6.200   2.632
 6049TIP3   OH218023   2.008   6.133   2.584
 6049TIP3    H118024   2.043   6.184   2.508
 6049TIP3    H218025   1.912   6.148   2.576
 6050TIP3   OH218026   2.101   6.235   2.346
 6050TIP3    H118027   2.174   6.182   2.307
 6050TIP3    H218028   2.136   6.326   2.332
 6051TIP3   OH218029   0.731   5.960   2.695
 6051TIP3    H118030   0.641   5.922   2.697
 6051TIP3    H218031   0.785   5.878   2.694
 6052TIP3   OH218032   0.511   5.827   2.341
 6052TIP3    H118033   0.546   5.883   2.270
 6052TIP3    H218034   0.491   5.892   2.411
 6053TIP3   OH218035   1.167   6.007   2.576
 6053TIP3    H118036   1.235   6.047   2.519
 6053TIP3    H218037   1.200   6.028   2.665
 6054TIP3   OH218038   1.723   6.138   2.559
 6054TIP3    H118039   1.724   6.098   2.472
 6054TIP3    H218040   1.710   6.058   2.616
 6055TIP3   OH218041   1.752   6.059   2.121
 6055TIP3    H118042   1.662   6.094   2.129
 6055TIP3    H218043   1.742   5.974   2.170
 6056TIP3   OH218044   0.635   5.997   2.106
 6056TIP3    H118045   0.683   5.926   2.062
 6056TIP3    H218046   0.709   6.049   2.144
 6057TIP3   OH218047   1.150   6.166   2.199
 6057TIP3    H118048   1.203   6.114   2.262
 6057TIP3    H218049   1.173   6.256   2.231
 6058TIP3   OH218050   1.064   7.600   1.717
 6058TIP3    H118051   1.151   7.625   1.679
 6058TIP3    H218052   1.050   7.516   1.667
 6059TIP3   OH218053   1.724   7.707   1.798
 6059TIP3    H118054   1.715   7.610   1.782
 6059TIP3    H218055   1.681   7.743   1.718
 6060TIP3   OH218056   0.940   6.242   3.585
 6060TIP3    H118057   0.906   6.172   3.643
 6060TIP3    H218058   1.035   6.242   3.612
 6061TIP3   OH218059   1.188   6.237   3.705
 6061TIP3    H118060   1.274   6.211   3.666
 6061TIP3    H218061   1.176   6.168   3.772
 6062TIP3   OH218062   2.012   6.298   3.494
 6062TIP3    H118063   2.032   6.267   3.585
 6062TIP3    H218064   2.100   6.293   3.451
 6063TIP3   OH218065   1.955   7.852   2.984
 6063TIP3    H118066   1.874   7.821   2.938
 6063TIP3    H218067   1.937   7.948   2.987
 6064TIP3   OH218068   3.218   7.221   1.754
 6064TIP3    H118069   3.193   7.314   1.735
 6064TIP3    H218070   3.139   7.176   1.720
 6065TIP3   OH218071   3.218   7.222   2.129
 6065TIP3    H118072   3.247   7.193   2.218
 6065TIP3    H218073   3.174   7.143   2.095
 6066TIP3   OH218074   2.516   7.120   2.500
 6066TIP3    H118075   2.549   7.054   2.563
 6066TIP3    H218076   2.593   7.178   2.492
 6067TIP3   OH218077   3.460   7.522   1.814
 6067TIP3    H118078   3.447   7.456   1.883
 6067TIP3    H218079   3.487   7.600   1.865
 6068TIP3   OH218080   2.487   7.525   2.225
 6068TIP3    H118081   2.479   7.428   2.228
 6068TIP3    H218082   2.583   7.536   2.218
 6069TIP3   OH218083   2.193   6.731   2.011
 6069TIP3    H118084   2.147   6.817   2.016
 6069TIP3    H218085   2.123   6.676   1.972
 6070TIP3   OH218086   2.251   7.016   2.173
 6070TIP3    H118087   2.302   6.943   2.214
 6070TIP3    H218088   2.316   7.053   2.112
 6071TIP3   OH218089   3.105   7.986   1.827
 6071TIP3    H118090   3.155   7.915   1.782
 6071TIP3    H218091   3.103   7.955   1.918
 6072TIP3   OH218092   3.017   7.448   2.180
 6072TIP3    H118093   3.055   7.373   2.131
 6072TIP3    H218094   3.100   7.493   2.205
 6073TIP3   OH218095   4.027   6.770   2.176
 6073TIP3    H118096   4.055   6.852   2.221
 6073TIP3    H218097   4.051   6.790   2.084
 6074TIP3   OH218098   3.428   6.952   2.216
 6074TIP3    H118099   3.470   6.866   2.235
 6074TIP3    H218100   3.398   6.937   2.124
 6075TIP3   OH218101   2.765   6.610   2.180
 6075TIP3    H118102   2.744   6.683   2.117
 6075TIP3    H218103   2.716   6.537   2.136
 6076TIP3   OH218104   3.459   6.699   1.803
 6076TIP3    H118105   3.532   6.685   1.868
 6076TIP3    H218106   3.509   6.740   1.730
 6077TIP3   OH218107   2.401   6.814   2.285
 6077TIP3    H118108   2.483   6.794   2.333
 6077TIP3    H218109   2.413   6.758   2.206
 6078TIP3   OH218110   2.842   7.011   2.076
 6078TIP3    H118111   2.935   6.984   2.091
 6078TIP3    H218112   2.802   6.926   2.045
 6079TIP3   OH218113   4.101   6.975   2.347
 6079TIP3    H118114   4.019   7.025   2.326
 6079TIP3    H218115   4.113   7.000   2.440
 6080TIP3   OH218116   2.763   6.593   2.612
 6080TIP3    H118117   2.702   6.631   2.546
 6080TIP3    H218118   2.712   6.610   2.695
 6081TIP3   OH218119   3.111   7.443   1.623
 6081TIP3    H118120   3.069   7.424   1.538
 6081TIP3    H218121   3.070   7.529   1.645
 6082TIP3   OH218122   2.869   7.368   2.411
 6082TIP3    H118123   2.805   7.433   2.449
 6082TIP3    H218124   2.911   7.420   2.341
 6083TIP3   OH218125   3.673   6.701   1.971
 6083TIP3    H118126   3.661   6.655   2.055
 6083TIP3    H218127   3.727   6.778   1.997
 6084TIP3   OH218128   2.632   6.709   2.398
 6084TIP3    H118129   2.695   6.782   2.421
 6084TIP3    H218130   2.682   6.668   2.324
 6085TIP3   OH218131   2.695   7.560   2.505
 6085TIP3    H118132   2.671   7.647   2.466
 6085TIP3    H218133   2.617   7.547   2.563
 6086TIP3   OH218134   2.090   7.251   1.744
 6086TIP3    H118135   2.053   7.276   1.657
 6086TIP3    H218136   2.120   7.338   1.779
 6087TIP3   OH218137   3.533   7.765   1.982
 6087TIP3    H118138   3.442   7.758   2.021
 6087TIP3    H218139   3.527   7.851   1.937
 6088TIP3   OH218140   3.822   6.670   2.344
 6088TIP3    H118141   3.734   6.702   2.316
 6088TIP3    H218142   3.880   6.702   2.272
 6089TIP3   OH218143   3.121   6.315   2.325
 6089TIP3    H118144   3.110   6.219   2.344
 6089TIP3    H218145   3.043   6.351   2.372
 6090TIP3   OH218146   3.237   7.815   1.659
 6090TIP3    H118147   3.286   7.733   1.635
 6090TIP3    H218148   3.295   7.882   1.617
 6091TIP3   OH218149   3.376   7.599   1.561
 6091TIP3    H118150   3.341   7.520   1.519
 6091TIP3    H218151   3.411   7.563   1.645
 6092TIP3   OH218152   3.759   7.682   2.327
 6092TIP3    H118153   3.749   7.605   2.266
 6092TIP3    H218154   3.741   7.757   2.267
 6093TIP3   OH218155   3.048   7.073   1.581
 6093TIP3    H118156   2.968   7.126   1.561
 6093TIP3    H218157   3.095   7.076   1.496
 6094TIP3   OH218158   3.010   6.857   1.302
 6094TIP3    H118159   3.076   6.909   1.351
 6094TIP3    H218160   3.069   6.796   1.254
 6095TIP3   OH218161   3.954   7.316   2.169
 6095TIP3    H118162   3.871   7.370   2.175
 6095TIP3    H218163   3.983   7.340   2.079
 6096TIP3   OH218164   3.395   7.155   1.556
 6096TIP3    H118165   3.341   7.182   1.634
 6096TIP3    H218166   3.479   7.131   1.600
 6097TIP3   OH218167   3.632   7.198   2.464
 6097TIP3    H118168   3.629   7.283   2.513
 6097TIP3    H218169   3.546   7.203   2.418
 6098TIP3   OH218170   2.628   7.156   1.972
 6098TIP3    H118171   2.587   7.099   1.903
 6098TIP3    H218172   2.706   7.104   1.999
 6099TIP3   OH218173   2.756   7.563   2.122
 6099TIP3    H118174   2.738   7.522   2.036
 6099TIP3    H218175   2.848   7.534   2.140
 6100TIP3   OH218176   2.764   7.128   2.324
 6100TIP3    H118177   2.799   7.109   2.235
 6100TIP3    H218178   2.808   7.213   2.347
 6101TIP3   OH218179   3.291   7.764   2.102
 6101TIP3    H118180   3.275   7.845   2.153
 6101TIP3    H218181   3.276   7.693   2.167
 6102TIP3   OH218182   2.902   7.682   2.650
 6102TIP3    H118183   2.843   7.746   2.696
 6102TIP3    H218184   2.835   7.630   2.601
 6103TIP3   OH218185   3.240   7.012   1.381
 6103TIP3    H118186   3.297   7.073   1.433
 6103TIP3    H218187   3.266   7.039   1.289
 6104TIP3   OH218188   2.656   7.242   2.747
 6104TIP3    H118189   2.662   7.328   2.794
 6104TIP3    H218190   2.561   7.223   2.757
 6105TIP3   OH218191   2.979   7.697   1.657
 6105TIP3    H118192   3.056   7.752   1.678
 6105TIP3    H218193   2.918   7.761   1.617
 6106TIP3   OH218194   2.698   7.852   2.735
 6106TIP3    H118195   2.662   7.851   2.644
 6106TIP3    H218196   2.619   7.831   2.789
 6107TIP3   OH218197   2.495   6.998   1.776
 6107TIP3    H118198   2.431   7.045   1.718
 6107TIP3    H218199   2.451   6.913   1.787
 6108TIP3   OH218200   3.551   7.625   0.977
 6108TIP3    H118201   3.559   7.721   0.961
 6108TIP3    H218202   3.644   7.596   0.964
 6109TIP3   OH218203   2.275   7.380   2.686
 6109TIP3    H118204   2.222   7.353   2.609
 6109TIP3    H218205   2.316   7.296   2.715
 6110TIP3   OH218206   2.131   7.569   2.327
 6110TIP3    H118207   2.226   7.571   2.309
 6110TIP3    H218208   2.119   7.654   2.372
 6111TIP3   OH218209   3.997   8.025   2.372
 6111TIP3    H118210   3.993   7.927   2.383
 6111TIP3    H218211   3.914   8.050   2.417
 6112TIP3   OH218212   3.102   7.812   2.506
 6112TIP3    H118213   3.103   7.905   2.538
 6112TIP3    H218214   3.031   7.774   2.561
 6113TIP3   OH218215   2.859   7.941   1.458
 6113TIP3    H118216   2.815   7.924   1.373
 6113TIP3    H218217   2.829   8.032   1.480
 6114TIP3   OH218218   2.299   7.791   1.839
 6114TIP3    H118219   2.348   7.782   1.924
 6114TIP3    H218220   2.233   7.721   1.849
 6115TIP3   OH218221   3.063   7.842   1.099
 6115TIP3    H118222   3.122   7.773   1.062
 6115TIP3    H218223   3.098   7.851   1.190
 6116TIP3   OH218224   3.112   7.890   1.369
 6116TIP3    H118225   3.024   7.900   1.412
 6116TIP3    H218226   3.164   7.850   1.441
 6117TIP3   OH218227   3.886   7.158   2.646
 6117TIP3    H118228   3.806   7.175   2.594
 6117TIP3    H218229   3.899   7.062   2.631
 6118TIP3   OH218230   2.482   7.563   2.673
 6118TIP3    H118231   2.532   7.550   2.756
 6118TIP3    H218232   2.407   7.501   2.684
 6119TIP3   OH218233   2.881   6.390   2.452
 6119TIP3    H118234   2.790   6.359   2.429
 6119TIP3    H218235   2.857   6.472   2.499
 6120TIP3   OH218236   3.413   6.505   2.649
 6120TIP3    H118237   3.481   6.477   2.714
 6120TIP3    H218238   3.329   6.484   2.695
 6121TIP3   OH218239   3.657   6.934   2.569
 6121TIP3    H118240   3.607   6.930   2.654
 6121TIP3    H218241   3.631   7.021   2.533
 6122TIP3   OH218242   3.312   7.061   1.124
 6122TIP3    H118243   3.281   7.038   1.034
 6122TIP3    H218244   3.391   7.114   1.102
 6123TIP3   OH218245   3.033   6.430   1.425
 6123TIP3    H118246   2.998   6.436   1.516
 6123TIP3    H218247   2.983   6.352   1.394
 6124TIP3   OH218248   2.812   6.904   2.473
 6124TIP3    H118249   2.763   6.926   2.555
 6124TIP3    H218250   2.796   6.985   2.419
 6125TIP3   OH218251   2.697   6.789   1.987
 6125TIP3    H118252   2.603   6.764   2.004
 6125TIP3    H218253   2.710   6.749   1.899
 6126TIP3   OH218254   3.186   6.875   1.712
 6126TIP3    H118255   3.131   6.948   1.675
 6126TIP3    H218256   3.241   6.851   1.636
 6127TIP3   OH218257   3.361   7.156   2.802
 6127TIP3    H118258   3.338   7.083   2.864
 6127TIP3    H218259   3.454   7.171   2.824
 6128TIP3   OH218260   3.345   6.906   1.956
 6128TIP3    H118261   3.288   6.940   1.885
 6128TIP3    H218262   3.374   6.823   1.913
 6129TIP3   OH218263   2.630   6.934   2.683
 6129TIP3    H118264   2.659   6.997   2.751
 6129TIP3    H218265   2.620   6.852   2.735
 6130TIP3   OH218266   2.684   6.411   1.393
 6130TIP3    H118267   2.674   6.407   1.490
 6130TIP3    H218268   2.604   6.461   1.368
 6131TIP3   OH218269   2.224   6.460   2.261
 6131TIP3    H118270   2.300   6.488   2.315
 6131TIP3    H218271   2.264   6.421   2.182
 6132TIP3   OH218272   2.201   6.438   1.783
 6132TIP3    H118273   2.245   6.476   1.704
 6132TIP3    H218274   2.140   6.511   1.805
 6133TIP3   OH218275   3.355   7.153   2.379
 6133TIP3    H118276   3.387   7.080   2.321
 6133TIP3    H218277   3.327   7.101   2.457
 6134TIP3   OH218278   3.021   6.612   2.050
 6134TIP3    H118279   2.938   6.611   2.102
 6134TIP3    H218280   3.088   6.615   2.119
 6135TIP3   OH218281   2.458   6.667   2.058
 6135TIP3    H118282   2.363   6.672   2.033
 6135TIP3    H218283   2.483   6.576   2.036
 6136TIP3   OH218284   2.731   6.664   1.744
 6136TIP3    H118285   2.824   6.683   1.723
 6136TIP3    H218286   2.683   6.689   1.662
 6137TIP3   OH218287   3.515   6.687   2.248
 6137TIP3    H118288   3.482   6.700   2.341
 6137TIP3    H218289   3.448   6.626   2.213
 6138TIP3   OH218290   2.567   6.697   1.526
 6138TIP3    H118291   2.494   6.653   1.477
 6138TIP3    H218292   2.618   6.733   1.451
 6139TIP3   OH218293   3.736   8.364   2.473
 6139TIP3    H118294   3.656   8.402   2.414
 6139TIP3    H218295   3.720   8.425   2.555
 6140TIP3   OH218296   2.643   7.486   2.892
 6140TIP3    H118297   2.723   7.518   2.939
 6140TIP3    H218298   2.578   7.488   2.966
 6141TIP3   OH218299   3.107   6.938   2.146
 6141TIP3    H118300   3.181   6.900   2.097
 6141TIP3    H218301   3.119   6.900   2.235
 6142TIP3   OH218302   2.631   6.429   2.023
 6142TIP3    H118303   2.598   6.349   2.069
 6142TIP3    H218304   2.685   6.392   1.952
 6143TIP3   OH218305   3.084   6.835   2.438
 6143TIP3    H118306   2.995   6.873   2.451
 6143TIP3    H218307   3.142   6.895   2.488
 6144TIP3   OH218308   2.822   7.228   1.532
 6144TIP3    H118309   2.747   7.164   1.521
 6144TIP3    H218310   2.804   7.262   1.623
 6145TIP3   OH218311   3.723   7.464   2.163
 6145TIP3    H118312   3.747   7.513   2.081
 6145TIP3    H218313   3.636   7.424   2.138
 6146TIP3   OH218314   3.280   6.537   1.393
 6146TIP3    H118315   3.182   6.527   1.402
 6146TIP3    H218316   3.295   6.632   1.411
 6147TIP3   OH218317   3.219   7.544   2.530
 6147TIP3    H118318   3.240   7.525   2.622
 6147TIP3    H218319   3.183   7.635   2.534
 6148TIP3   OH218320   3.351   6.783   1.490
 6148TIP3    H118321   3.447   6.796   1.509
 6148TIP3    H218322   3.330   6.865   1.440
 6149TIP3   OH218323   2.506   7.242   2.209
 6149TIP3    H118324   2.548   7.220   2.123
 6149TIP3    H218325   2.556   7.185   2.270
 6150TIP3   OH218326   2.966   7.378   1.352
 6150TIP3    H118327   2.919   7.464   1.358
 6150TIP3    H218328   2.911   7.323   1.412
 6151TIP3   OH218329   2.392   7.173   2.822
 6151TIP3    H118330   2.418   7.161   2.915
 6151TIP3    H218331   2.326   7.101   2.810
 6152TIP3   OH218332   3.117   7.283   2.841
 6152TIP3    H118333   3.059   7.225   2.789
 6152TIP3    H218334   3.205   7.252   2.813
 6153TIP3   OH218335   3.382   7.800   2.426
 6153TIP3    H118336   3.285   7.804   2.435
 6153TIP3    H218337   3.409   7.855   2.502
 6154TIP3   OH218338   3.790   6.877   1.335
 6154TIP3    H118339   3.728   6.833   1.273
 6154TIP3    H218340   3.789   6.966   1.293
 6155TIP3   OH218341   4.010   7.732   2.416
 6155TIP3    H118342   3.912   7.730   2.407
 6155TIP3    H218343   4.035   7.704   2.325
 6156TIP3   OH218344   3.487   7.697   1.240
 6156TIP3    H118345   3.468   7.624   1.300
 6156TIP3    H218346   3.504   7.652   1.155
 6157TIP3   OH218347   3.487   7.326   2.083
 6157TIP3    H118348   3.393   7.300   2.095
 6157TIP3    H218349   3.521   7.247   2.036
 6158TIP3   OH218350   2.612   7.552   1.832
 6158TIP3    H118351   2.618   7.634   1.780
 6158TIP3    H218352   2.517   7.541   1.840
 6159TIP3   OH218353   2.176   6.858   1.534
 6159TIP3    H118354   2.223   6.942   1.552
 6159TIP3    H218355   2.099   6.867   1.594
 6160TIP3   OH218356   2.754   7.320   1.778
 6160TIP3    H118357   2.719   7.410   1.794
 6160TIP3    H218358   2.716   7.272   1.854
 6161TIP3   OH218359   2.881   7.897   2.302
 6161TIP3    H118360   2.920   7.971   2.251
 6161TIP3    H218361   2.959   7.866   2.351
 6162TIP3   OH218362   2.535   7.791   1.686
 6162TIP3    H118363   2.448   7.801   1.730
 6162TIP3    H218364   2.567   7.884   1.689
 6163TIP3   OH218365   3.272   7.531   2.260
 6163TIP3    H118366   3.264   7.529   2.358
 6163TIP3    H218367   3.354   7.481   2.247
 6164TIP3   OH218368   3.243   7.419   1.143
 6164TIP3    H118369   3.296   7.397   1.223
 6164TIP3    H218370   3.153   7.399   1.175
 6165TIP3   OH218371   3.519   8.072   2.309
 6165TIP3    H118372   3.441   8.013   2.299
 6165TIP3    H218373   3.504   8.135   2.236
 6166TIP3   OH218374   3.584   7.899   0.963
 6166TIP3    H118375   3.626   7.969   0.909
 6166TIP3    H218376   3.505   7.948   0.994
 6167TIP3   OH218377   2.607   6.676   2.830
 6167TIP3    H118378   2.511   6.682   2.846
 6167TIP3    H218379   2.635   6.615   2.901
 6168TIP3   OH218380   3.403   7.358   1.362
 6168TIP3    H118381   3.396   7.291   1.432
 6168TIP3    H218382   3.500   7.358   1.347
 6169TIP3   OH218383   2.321   7.761   2.462
 6169TIP3    H118384   2.376   7.688   2.495
 6169TIP3    H218385   2.349   7.833   2.521
 6170TIP3   OH218386   2.613   7.405   1.142
 6170TIP3    H118387   2.626   7.314   1.111
 6170TIP3    H218388   2.594   7.392   1.237
 6171TIP3   OH218389   2.559   7.409   1.415
 6171TIP3    H118390   2.629   7.386   1.477
 6171TIP3    H218391   2.561   7.507   1.419
 6172TIP3   OH218392   2.293   7.104   1.618
 6172TIP3    H118393   2.228   7.151   1.674
 6172TIP3    H218394   2.309   7.173   1.550
 6173TIP3   OH218395   3.442   6.739   2.507
 6173TIP3    H118396   3.520   6.778   2.551
 6173TIP3    H218397   3.425   6.659   2.562
 6174TIP3   OH218398   3.322   6.496   1.672
 6174TIP3    H118399   3.302   6.531   1.583
 6174TIP3    H218400   3.362   6.575   1.715
 6175TIP3   OH218401   2.822   7.607   1.364
 6175TIP3    H118402   2.736   7.637   1.399
 6175TIP3    H218403   2.841   7.678   1.300
 6176TIP3   OH218404   3.014   6.669   1.775
 6176TIP3    H118405   3.077   6.742   1.758
 6176TIP3    H218406   3.017   6.663   1.873
 6177TIP3   OH218407   3.280   6.990   2.586
 6177TIP3    H118408   3.297   7.046   2.664
 6177TIP3    H218409   3.336   6.913   2.603
 6178TIP3   OH218410   3.158   6.402   1.881
 6178TIP3    H118411   3.150   6.477   1.943
 6178TIP3    H218412   3.217   6.440   1.813
 6179TIP3   OH218413   2.563   7.682   1.430
 6179TIP3    H118414   2.535   7.751   1.366
 6179TIP3    H218415   2.549   7.727   1.515
 6180TIP3   OH218416   2.667   6.395   1.669
 6180TIP3    H118417   2.664   6.486   1.705
 6180TIP3    H218418   2.763   6.377   1.678
 6181TIP3   OH218419   3.923   6.890   2.565
 6181TIP3    H118420   3.825   6.889   2.573
 6181TIP3    H218421   3.932   6.851   2.476
 6182TIP3   OH218422   3.572   7.085   1.954
 6182TIP3    H118423   3.496   7.025   1.968
 6182TIP3    H218424   3.644   7.039   2.002
 6183TIP3   OH218425   2.282   7.316   1.426
 6183TIP3    H118426   2.343   7.392   1.433
 6183TIP3    H218427   2.329   7.264   1.357
 6184TIP3   OH218428   2.229   6.589   1.558
 6184TIP3    H118429   2.228   6.686   1.551
 6184TIP3    H218430   2.148   6.565   1.511
 6185TIP3   OH218431   3.542   8.033   1.901
 6185TIP3    H118432   3.496   8.082   1.829
 6185TIP3    H218433   3.634   8.064   1.882
 6186TIP3   OH218434   2.616   6.309   2.432
 6186TIP3    H118435   2.584   6.275   2.346
 6186TIP3    H218436   2.606   6.231   2.490
 6187TIP3   OH218437   2.154   7.521   1.816
 6187TIP3    H118438   2.079   7.560   1.861
 6187TIP3    H218439   2.144   7.563   1.727
 6188TIP3   OH218440   2.311   8.066   2.883
 6188TIP3    H118441   2.396   8.067   2.931
 6188TIP3    H218442   2.291   7.971   2.882
 6189TIP3   OH218443   2.795   8.035   2.928
 6189TIP3    H118444   2.890   8.018   2.935
 6189TIP3    H218445   2.771   7.978   2.852
 6190TIP3   OH218446   2.776   7.611   1.057
 6190TIP3    H118447   2.720   7.538   1.094
 6190TIP3    H218448   2.850   7.559   1.021
 6191TIP3   OH218449   3.433   7.939   2.659
 6191TIP3    H118450   3.424   7.869   2.727
 6191TIP3    H218451   3.511   7.990   2.690
 6192TIP3   OH218452   3.211   7.651   0.965
 6192TIP3    H118453   3.263   7.592   1.022
 6192TIP3    H218454   3.265   7.655   0.884
 6193TIP3   OH218455   2.443   7.474   3.083
 6193TIP3    H118456   2.460   7.378   3.087
 6193TIP3    H218457   2.354   7.477   3.041
 6194TIP3   OH218458   2.418   7.127   1.275
 6194TIP3    H118459   2.475   7.095   1.347
 6194TIP3    H218460   2.485   7.132   1.202
 6195TIP3   OH218461   3.052   7.559   2.856
 6195TIP3    H118462   3.009   7.574   2.769
 6195TIP3    H218463   3.082   7.466   2.849
 6196TIP3   OH218464   2.926   7.323   1.082
 6196TIP3    H118465   2.929   7.337   1.179
 6196TIP3    H218466   2.923   7.225   1.079
 6197TIP3   OH218467   3.543   7.565   2.461
 6197TIP3    H118468   3.616   7.611   2.417
 6197TIP3    H218469   3.471   7.630   2.451
 6198TIP3   OH218470   2.560   7.205   3.063
 6198TIP3    H118471   2.635   7.147   3.047
 6198TIP3    H218472   2.583   7.240   3.152
 6199TIP3   OH218473   2.629   7.028   1.499
 6199TIP3    H118474   2.602   6.986   1.583
 6199TIP3    H218475   2.663   6.952   1.448
 6200TIP3   OH218476   2.895   7.092   2.724
 6200TIP3    H118477   2.819   7.154   2.731
 6200TIP3    H218478   2.943   7.126   2.646
 6201TIP3   OH218479   2.727   6.819   1.340
 6201TIP3    H118480   2.699   6.823   1.246
 6201TIP3    H218481   2.824   6.830   1.331
 6202TIP3   OH218482   3.411   7.494   2.861
 6202TIP3    H118483   3.493   7.476   2.813
 6202TIP3    H218484   3.412   7.427   2.931
 6203TIP3   OH218485   3.551   7.153   1.001
 6203TIP3    H118486   3.530   7.108   0.917
 6203TIP3    H218487   3.522   7.244   0.977
 6204TIP3   OH218488   3.019   6.881   2.854
 6204TIP3    H118489   3.019   6.800   2.799
 6204TIP3    H218490   2.976   6.946   2.795
 6205TIP3   OH218491   3.022   6.667   2.659
 6205TIP3    H118492   3.049   6.708   2.575
 6205TIP3    H218493   2.928   6.644   2.641
 6206TIP3   OH218494   3.051   7.203   2.531
 6206TIP3    H118495   3.134   7.213   2.481
 6206TIP3    H218496   2.995   7.272   2.490
 6207TIP3   OH218497   3.632   7.172   2.915
 6207TIP3    H118498   3.681   7.089   2.925
 6207TIP3    H218499   3.701   7.232   2.881
 6208TIP3   OH218500   3.674   7.423   2.650
 6208TIP3    H118501   3.615   7.476   2.591
 6208TIP3    H218502   3.761   7.444   2.609
 6209TIP3   OH218503   2.895   6.997   3.080
 6209TIP3    H118504   2.827   6.929   3.095
 6209TIP3    H218505   2.932   6.969   2.994
 6210TIP3   OH218506   3.154   6.432   2.724
 6210TIP3    H118507   3.106   6.515   2.703
 6210TIP3    H218508   3.084   6.365   2.714
 6211TIP3   OH218509   3.281   6.938   2.942
 6211TIP3    H118510   3.270   6.927   3.039
 6211TIP3    H218511   3.190   6.912   2.914
 6212TIP3   OH218512   3.520   6.884   2.797
 6212TIP3    H118513   3.443   6.887   2.857
 6212TIP3    H218514   3.592   6.853   2.856
 6213TIP3   OH218515   3.758   6.827   2.949
 6213TIP3    H118516   3.764   6.731   2.968
 6213TIP3    H218517   3.747   6.866   3.038
 6214TIP3   OH218518   2.737   6.776   3.133
 6214TIP3    H118519   2.744   6.685   3.099
 6214TIP3    H218520   2.772   6.764   3.224
 6215TIP3   OH218521   3.250   6.443   2.981
 6215TIP3    H118522   3.318   6.372   2.977
 6215TIP3    H218523   3.210   6.434   2.893
 6216TIP3   OH218524   3.315   6.657   3.141
 6216TIP3    H118525   3.292   6.586   3.077
 6216TIP3    H218526   3.237   6.716   3.135
 6217TIP3   OH218527   2.534   7.883   1.243
 6217TIP3    H118528   2.629   7.884   1.223
 6217TIP3    H218529   2.501   7.931   1.165
 6218TIP3   OH218530   2.016   7.264   1.465
 6218TIP3    H118531   2.109   7.288   1.448
 6218TIP3    H218532   2.010   7.177   1.419
 6219TIP3   OH218533   1.928   7.879   1.870
 6219TIP3    H118534   1.860   7.818   1.836
 6219TIP3    H218535   1.972   7.823   1.938
 6220TIP3   OH218536   2.066   7.734   2.057
 6220TIP3    H118537   2.054   7.660   2.118
 6220TIP3    H218538   2.116   7.796   2.113
 6221TIP3   OH218539   3.786   8.153   1.857
 6221TIP3    H118540   3.822   8.159   1.948
 6221TIP3    H218541   3.865   8.159   1.802
 6222TIP3   OH218542   3.830   8.143   2.129
 6222TIP3    H118543   3.787   8.053   2.138
 6222TIP3    H218544   3.904   8.133   2.191
 6223TIP3   OH218545   3.870   7.827   2.715
 6223TIP3    H118546   3.794   7.836   2.776
 6223TIP3    H218547   3.908   7.917   2.716
 6224TIP3   OH218548   3.683   7.342   1.334
 6224TIP3    H118549   3.751   7.406   1.305
 6224TIP3    H218550   3.728   7.302   1.412
 6225TIP3   OH218551   3.812   7.209   1.536
 6225TIP3    H118552   3.747   7.168   1.598
 6225TIP3    H218553   3.877   7.248   1.597
 6226TIP3   OH218554   3.864   7.599   1.971
 6226TIP3    H118555   3.918   7.537   1.917
 6226TIP3    H218556   3.855   7.675   1.911
 6227TIP3   OH218557   3.697   7.899   2.169
 6227TIP3    H118558   3.627   7.945   2.217
 6227TIP3    H218559   3.646   7.852   2.098
 6228TIP3   OH218560   3.749   7.115   1.187
 6228TIP3    H118561   3.679   7.120   1.118
 6228TIP3    H218562   3.724   7.193   1.240
 6229TIP3   OH218563   3.620   6.793   1.143
 6229TIP3    H118564   3.585   6.840   1.067
 6229TIP3    H218565   3.594   6.700   1.124
 6230TIP3   OH218566   3.626   7.065   1.686
 6230TIP3    H118567   3.638   6.969   1.684
 6230TIP3    H218568   3.613   7.082   1.781
 6231TIP3   OH218569   2.254   7.143   2.429
 6231TIP3    H118570   2.254   7.114   2.336
 6231TIP3    H218571   2.351   7.143   2.448
 6232TIP3   OH218572   3.914   7.489   2.541
 6232TIP3    H118573   3.989   7.425   2.532
 6232TIP3    H218574   3.940   7.560   2.480
 6233TIP3   OH218575   4.102   7.298   2.561
 6233TIP3    H118576   4.026   7.248   2.600
 6233TIP3    H218577   4.174   7.234   2.577
 6234TIP3   OH218578   3.566   6.529   1.119
 6234TIP3    H118579   3.644   6.498   1.170
 6234TIP3    H218580   3.495   6.466   1.143
 6235TIP3   OH218581   3.623   6.780   1.580
 6235TIP3    H118582   3.666   6.692   1.594
 6235TIP3    H218583   3.680   6.818   1.511
 6236TIP3   OH218584   3.785   6.956   2.074
 6236TIP3    H118585   3.871   6.983   2.035
 6236TIP3    H218586   3.797   6.993   2.164
 6237TIP3   OH218587   3.852   7.099   2.308
 6237TIP3    H118588   3.774   7.133   2.356
 6237TIP3    H218589   3.884   7.179   2.262
 6238TIP3   OH218590   2.469   6.827   3.104
 6238TIP3    H118591   2.567   6.820   3.107
 6238TIP3    H218592   2.445   6.743   3.147
 6239TIP3   OH218593   4.314   6.698   2.865
 6239TIP3    H118594   4.365   6.625   2.825
 6239TIP3    H218595   4.279   6.744   2.785
 6240TIP3   OH218596   3.726   6.522   1.624
 6240TIP3    H118597   3.793   6.524   1.695
 6240TIP3    H218598   3.668   6.454   1.660
 6241TIP3   OH218599   2.431   6.517   2.436
 6241TIP3    H118600   2.493   6.442   2.448
 6241TIP3    H218601   2.493   6.592   2.432
 6242TIP3   OH218602   2.235   6.795   2.507
 6242TIP3    H118603   2.287   6.786   2.425
 6242TIP3    H218604   2.271   6.876   2.544
 6243TIP3   OH218605   4.176   6.831   2.672
 6243TIP3    H118606   4.087   6.868   2.690
 6243TIP3    H218607   4.152   6.760   2.610
 6244TIP3   OH218608   3.808   6.469   1.244
 6244TIP3    H118609   3.860   6.397   1.205
 6244TIP3    H218610   3.873   6.542   1.246
 6245TIP3   OH218611   2.217   6.298   2.013
 6245TIP3    H118612   2.123   6.294   2.036
 6245TIP3    H218613   2.217   6.354   1.933
 6246TIP3   OH218614   3.377   7.997   1.518
 6246TIP3    H118615   3.426   7.980   1.434
 6246TIP3    H218616   3.431   8.066   1.558
 6247TIP3   OH218617   2.437   6.377   2.826
 6247TIP3    H118618   2.388   6.368   2.909
 6247TIP3    H218619   2.368   6.413   2.767
 6248TIP3   OH218620   2.479   7.796   2.903
 6248TIP3    H118621   2.385   7.772   2.887
 6248TIP3    H218622   2.486   7.786   2.998
 6249TIP3   OH218623   2.654   7.831   2.449
 6249TIP3    H118624   2.606   7.907   2.411
 6249TIP3    H218625   2.740   7.846   2.405
 6250TIP3   OH218626   3.102   8.078   2.588
 6250TIP3    H118627   3.143   8.080   2.677
 6250TIP3    H218628   3.168   8.128   2.535
 6251TIP3   OH218629   3.279   8.228   2.445
 6251TIP3    H118630   3.351   8.181   2.401
 6251TIP3    H218631   3.328   8.287   2.507
 6252TIP3   OH218632   4.075   6.592   2.547
 6252TIP3    H118633   3.983   6.586   2.515
 6252TIP3    H218634   4.105   6.499   2.535
 6253TIP3   OH218635   2.332   8.088   2.475
 6253TIP3    H118636   2.244   8.123   2.449
 6253TIP3    H218637   2.343   8.129   2.562
 6254TIP3   OH218638   2.568   8.067   2.330
 6254TIP3    H118639   2.482   8.081   2.376
 6254TIP3    H218640   2.548   8.103   2.241
 6255TIP3   OH218641   2.994   8.099   2.127
 6255TIP3    H118642   2.926   8.121   2.061
 6255TIP3    H218643   3.007   8.186   2.171
 6256TIP3   OH218644   3.261   8.035   2.181
 6256TIP3    H118645   3.168   8.056   2.159
 6256TIP3    H218646   3.308   8.110   2.139
 6257TIP3   OH218647   3.450   8.222   2.090
 6257TIP3    H118648   3.448   8.314   2.051
 6257TIP3    H218649   3.484   8.171   2.016
 6258TIP3   OH218650   2.243   7.884   2.217
 6258TIP3    H118651   2.269   7.862   2.309
 6258TIP3    H218652   2.316   7.842   2.168
 6259TIP3   OH218653   2.436   7.756   2.073
 6259TIP3    H118654   2.454   7.672   2.122
 6259TIP3    H218655   2.526   7.795   2.069
 6260TIP3   OH218656   2.700   7.852   2.076
 6260TIP3    H118657   2.735   7.762   2.063
 6260TIP3    H218658   2.743   7.875   2.161
 6261TIP3   OH218659   3.278   6.507   2.162
 6261TIP3    H118660   3.234   6.440   2.218
 6261TIP3    H218661   3.351   6.457   2.121
 6262TIP3   OH218662   3.804   6.384   2.067
 6262TIP3    H118663   3.841   6.440   1.995
 6262TIP3    H218664   3.709   6.406   2.065
 6263TIP3   OH218665   3.898   6.491   1.832
 6263TIP3    H118666   3.972   6.438   1.795
 6263TIP3    H218667   3.935   6.581   1.821
 6264TIP3   OH218668   2.528   6.217   2.182
 6264TIP3    H118669   2.437   6.183   2.183
 6264TIP3    H218670   2.578   6.132   2.180
 6265TIP3   OH218671   2.312   6.086   1.827
 6265TIP3    H118672   2.343   6.144   1.756
 6265TIP3    H218673   2.284   6.149   1.896
 6266TIP3   OH218674   2.970   6.251   2.061
 6266TIP3    H118675   3.031   6.304   2.007
 6266TIP3    H218676   2.987   6.284   2.150
 6267TIP3   OH218677   3.521   6.394   2.048
 6267TIP3    H118678   3.512   6.357   1.960
 6267TIP3    H218679   3.507   6.315   2.104
 6268TIP3   OH218680   2.029   7.655   1.614
 6268TIP3    H118681   1.945   7.623   1.576
 6268TIP3    H218682   2.021   7.750   1.594
 6269TIP3   OH218683   2.429   6.248   1.593
 6269TIP3    H118684   2.478   6.184   1.538
 6269TIP3    H218685   2.502   6.301   1.631
 6270TIP3   OH218686   2.946   6.419   1.690
 6270TIP3    H118687   3.002   6.374   1.755
 6270TIP3    H218688   2.965   6.512   1.716
 6271TIP3   OH218689   2.803   7.848   1.192
 6271TIP3    H118690   2.892   7.870   1.156
 6271TIP3    H218691   2.781   7.773   1.133
 6272TIP3   OH218692   3.520   7.963   1.284
 6272TIP3    H118693   3.512   7.865   1.269
 6272TIP3    H218694   3.478   7.997   1.202
 6273TIP3   OH218695   2.736   6.498   3.073
 6273TIP3    H118696   2.703   6.428   3.130
 6273TIP3    H218697   2.831   6.499   3.099
 6274TIP3   OH218698   2.984   6.495   3.192
 6274TIP3    H118699   3.069   6.468   3.153
 6274TIP3    H218700   2.971   6.425   3.260
 6275TIP3   OH218701   2.107   7.681   1.250
 6275TIP3    H118702   2.108   7.716   1.340
 6275TIP3    H218703   2.197   7.643   1.240
 6276TIP3   OH218704   3.807   6.555   2.981
 6276TIP3    H118705   3.827   6.523   3.072
 6276TIP3    H218706   3.895   6.548   2.938
 6277TIP3   OH218707   3.748   8.102   2.478
 6277TIP3    H118708   3.668   8.077   2.420
 6277TIP3    H218709   3.751   8.191   2.470
 6278TIP3   OH218710   5.013   7.479   1.242
 6278TIP3    H118711   4.986   7.571   1.219
 6278TIP3    H218712   4.937   7.431   1.204
 6279TIP3   OH218713   5.012   7.482   1.618
 6279TIP3    H118714   5.042   7.446   1.703
 6279TIP3    H218715   4.973   7.403   1.576
 6280TIP3   OH218716   4.314   7.379   1.987
 6280TIP3    H118717   4.348   7.312   2.048
 6280TIP3    H218718   4.393   7.431   1.968
 6281TIP3   OH218719   5.257   7.779   1.299
 6281TIP3    H118720   5.244   7.711   1.366
 6281TIP3    H218721   5.283   7.856   1.352
 6282TIP3   OH218722   4.284   7.783   1.715
 6282TIP3    H118723   4.276   7.685   1.716
 6282TIP3    H218724   4.380   7.792   1.702
 6283TIP3   OH218725   3.989   6.987   1.499
 6283TIP3    H118726   3.945   7.073   1.511
 6283TIP3    H218727   3.918   6.936   1.456
 6284TIP3   OH218728   4.051   7.275   1.663
 6284TIP3    H118729   4.101   7.200   1.701
 6284TIP3    H218730   4.111   7.307   1.594
 6285TIP3   OH218731   4.906   8.246   1.320
 6285TIP3    H118732   4.951   8.176   1.265
 6285TIP3    H218733   4.903   8.202   1.405
 6286TIP3   OH218734   4.812   7.704   1.670
 6286TIP3    H118735   4.849   7.630   1.619
 6286TIP3    H218736   4.897   7.749   1.692
 6287TIP3   OH218737   5.819   7.026   1.661
 6287TIP3    H118738   5.851   7.106   1.706
 6287TIP3    H218739   5.853   7.041   1.570
 6288TIP3   OH218740   5.221   7.208   1.703
 6288TIP3    H118741   5.267   7.124   1.721
 6288TIP3    H218742   5.194   7.194   1.610
 6289TIP3   OH218743   4.558   6.866   1.668
 6289TIP3    H118744   4.542   6.939   1.605
 6289TIP3    H218745   4.512   6.793   1.621
 6290TIP3   OH218746   5.254   6.958   1.290
 6290TIP3    H118747   5.327   6.943   1.354
 6290TIP3    H218748   5.305   6.992   1.214
 6291TIP3   OH218749   4.196   7.069   1.774
 6291TIP3    H118750   4.280   7.049   1.820
 6291TIP3    H218751   4.208   7.014   1.693
 6292TIP3   OH218752   4.637   7.267   1.567
 6292TIP3    H118753   4.731   7.242   1.578
 6292TIP3    H218754   4.599   7.183   1.533
 6293TIP3   OH218755   5.893   7.228   1.836
 6293TIP3    H118756   5.812   7.280   1.818
 6293TIP3    H218757   5.919   7.262   1.922
 6294TIP3   OH218758   4.558   6.851   2.101
 6294TIP3    H118759   4.499   6.887   2.032
 6294TIP3    H218760   4.507   6.872   2.182
 6295TIP3   OH218761   4.906   7.699   1.110
 6295TIP3    H118762   4.869   7.681   1.022
 6295TIP3    H218763   4.863   7.784   1.132
 6296TIP3   OH218764   4.666   7.624   1.898
 6296TIP3    H118765   4.602   7.690   1.934
 6296TIP3    H218766   4.708   7.674   1.825
 6297TIP3   OH218767   5.466   6.960   1.459
 6297TIP3    H118768   5.470   6.905   1.539
 6297TIP3    H218769   5.526   7.033   1.482
 6298TIP3   OH218770   4.429   6.965   1.886
 6298TIP3    H118771   4.492   7.038   1.907
 6298TIP3    H218772   4.476   6.924   1.810
 6299TIP3   OH218773   4.493   7.817   1.994
 6299TIP3    H118774   4.468   7.901   1.950
 6299TIP3    H218775   4.413   7.804   2.050
 6300TIP3   OH218776   3.888   7.508   1.230
 6300TIP3    H118777   3.850   7.533   1.143
 6300TIP3    H218778   3.918   7.594   1.265
 6301TIP3   OH218779   5.329   8.024   1.472
 6301TIP3    H118780   5.238   8.016   1.508
 6301TIP3    H218781   5.321   8.108   1.423
 6302TIP3   OH218782   5.618   6.927   1.831
 6302TIP3    H118783   5.531   6.957   1.800
 6302TIP3    H218784   5.678   6.958   1.760
 6303TIP3   OH218785   4.916   6.570   1.810
 6303TIP3    H118786   4.908   6.475   1.830
 6303TIP3    H218787   4.839   6.606   1.859
 6304TIP3   OH218788   5.034   8.072   1.154
 6304TIP3    H118789   5.082   7.991   1.125
 6304TIP3    H218790   5.085   8.138   1.101
 6305TIP3   OH218791   5.172   7.858   1.046
 6305TIP3    H118792   5.141   7.778   1.000
 6305TIP3    H218793   5.205   7.821   1.130
 6306TIP3   OH218794   5.554   7.939   1.813
 6306TIP3    H118795   5.545   7.861   1.753
 6306TIP3    H218796   5.538   8.013   1.752
 6307TIP3   OH218797   4.844   7.332   1.069
 6307TIP3    H118798   4.765   7.385   1.045
 6307TIP3    H218799   4.892   7.330   0.984
 6308TIP3   OH218800   4.804   7.114   0.790
 6308TIP3    H118801   4.872   7.165   0.838
 6308TIP3    H218802   4.861   7.052   0.741
 6309TIP3   OH218803   5.749   7.574   1.658
 6309TIP3    H118804   5.667   7.628   1.662
 6309TIP3    H218805   5.779   7.594   1.566
 6310TIP3   OH218806   5.192   7.413   1.044
 6310TIP3    H118807   5.138   7.439   1.121
 6310TIP3    H218808   5.275   7.386   1.088
 6311TIP3   OH218809   5.427   7.455   1.951
 6311TIP3    H118810   5.425   7.540   1.998
 6311TIP3    H218811   5.342   7.459   1.904
 6312TIP3   OH218812   4.422   7.412   1.461
 6312TIP3    H118813   4.382   7.356   1.391
 6312TIP3    H218814   4.502   7.360   1.485
 6313TIP3   OH218815   4.550   7.817   1.610
 6313TIP3    H118816   4.532   7.782   1.522
 6313TIP3    H218817   4.642   7.788   1.625
 6314TIP3   OH218818   4.559   7.384   1.813
 6314TIP3    H118819   4.593   7.362   1.723
 6314TIP3    H218820   4.604   7.469   1.832
 6315TIP3   OH218821   5.085   8.022   1.589
 6315TIP3    H118822   5.072   8.101   1.644
 6315TIP3    H218823   5.073   7.948   1.652
 6316TIP3   OH218824   4.698   7.940   2.139
 6316TIP3    H118825   4.636   8.004   2.182
 6316TIP3    H218826   4.634   7.886   2.088
 6317TIP3   OH218827   5.033   7.270   0.872
 6317TIP3    H118828   5.092   7.331   0.921
 6317TIP3    H218829   5.055   7.293   0.778
 6318TIP3   OH218830   4.454   7.494   2.241
 6318TIP3    H118831   4.457   7.583   2.281
 6318TIP3    H218832   4.357   7.479   2.239
 6319TIP3   OH218833   4.773   7.958   1.154
 6319TIP3    H118834   4.854   8.012   1.160
 6319TIP3    H218835   4.716   8.011   1.097
 6320TIP3   OH218836   4.494   8.111   2.222
 6320TIP3    H118837   4.460   8.108   2.130
 6320TIP3    H218838   4.414   8.087   2.274
 6321TIP3   OH218839   5.550   6.514   0.915
 6321TIP3    H118840   5.469   6.536   0.965
 6321TIP3    H218841   5.563   6.596   0.863
 6322TIP3   OH218842   4.289   7.255   1.268
 6322TIP3    H118843   4.230   7.303   1.206
 6322TIP3    H218844   4.246   7.169   1.271
 6323TIP3   OH218845   4.072   7.639   2.170
 6323TIP3    H118846   4.008   7.617   2.099
 6323TIP3    H218847   4.109   7.551   2.194
 6324TIP3   OH218848   3.928   7.829   1.807
 6324TIP3    H118849   4.023   7.821   1.789
 6324TIP3    H218850   3.924   7.907   1.863
 6325TIP3   OH218851   5.792   8.282   1.857
 6325TIP3    H118852   5.790   8.185   1.868
 6325TIP3    H218853   5.708   8.306   1.902
 6326TIP3   OH218854   4.899   8.069   1.994
 6326TIP3    H118855   4.898   8.163   2.024
 6326TIP3    H218856   4.826   8.031   2.047
 6327TIP3   OH218857   4.635   8.190   0.945
 6327TIP3    H118858   4.609   8.174   0.852
 6327TIP3    H218859   4.623   8.285   0.955
 6328TIP3   OH218860   4.093   8.050   1.327
 6328TIP3    H118861   4.142   8.040   1.411
 6328TIP3    H218862   4.034   7.972   1.332
 6329TIP3   OH218863   4.906   8.178   0.890
 6329TIP3    H118864   4.812   8.158   0.907
 6329TIP3    H218865   4.946   8.090   0.887
 6330TIP3   OH218866   5.679   7.414   2.133
 6330TIP3    H118867   5.604   7.428   2.074
 6330TIP3    H218868   5.697   7.318   2.120
 6331TIP3   OH218869   4.277   7.821   2.159
 6331TIP3    H118870   4.327   7.806   2.242
 6331TIP3    H218871   4.203   7.758   2.167
 6332TIP3   OH218872   4.676   6.645   1.941
 6332TIP3    H118873   4.586   6.615   1.917
 6332TIP3    H218874   4.654   6.730   1.983
 6333TIP3   OH218875   5.211   6.762   2.137
 6333TIP3    H118876   5.279   6.730   2.200
 6333TIP3    H218877   5.127   6.738   2.182
 6334TIP3   OH218878   5.449   7.188   2.052
 6334TIP3    H118879   5.402   7.187   2.138
 6334TIP3    H218880   5.428   7.277   2.017
 6335TIP3   OH218881   5.100   7.308   0.615
 6335TIP3    H118882   5.074   7.283   0.524
 6335TIP3    H218883   5.179   7.363   0.597
 6336TIP3   OH218884   4.819   6.697   0.911
 6336TIP3    H118885   4.791   6.695   1.004
 6336TIP3    H218886   4.785   6.611   0.881
 6337TIP3   OH218887   4.608   7.161   1.960
 6337TIP3    H118888   4.557   7.183   2.040
 6337TIP3    H218889   4.593   7.241   1.905
 6338TIP3   OH218890   4.494   7.046   1.475
 6338TIP3    H118891   4.400   7.022   1.490
 6338TIP3    H218892   4.508   7.007   1.386
 6339TIP3   OH218893   4.982   7.132   1.200
 6339TIP3    H118894   4.929   7.204   1.159
 6339TIP3    H218895   5.037   7.104   1.125
 6340TIP3   OH218896   5.158   7.416   2.292
 6340TIP3    H118897   5.138   7.340   2.351
 6340TIP3    H218898   5.254   7.425   2.308
 6341TIP3   OH218899   5.139   7.163   1.442
 6341TIP3    H118900   5.083   7.194   1.369
 6341TIP3    H218901   5.173   7.081   1.401
 6342TIP3   OH218902   4.427   7.191   2.169
 6342TIP3    H118903   4.453   7.258   2.235
 6342TIP3    H218904   4.416   7.111   2.224
 6343TIP3   OH218905   4.474   6.663   0.880
 6343TIP3    H118906   4.470   6.665   0.977
 6343TIP3    H218907   4.399   6.721   0.856
 6344TIP3   OH218908   4.023   6.712   1.749
 6344TIP3    H118909   4.095   6.747   1.806
 6344TIP3    H218910   4.070   6.685   1.669
 6345TIP3   OH218911   3.994   6.694   1.271
 6345TIP3    H118912   4.039   6.731   1.192
 6345TIP3    H218913   3.935   6.769   1.292
 6346TIP3   OH218914   5.150   7.409   1.867
 6346TIP3    H118915   5.182   7.337   1.808
 6346TIP3    H218916   5.122   7.356   1.944
 6347TIP3   OH218917   4.817   6.871   1.537
 6347TIP3    H118918   4.737   6.868   1.593
 6347TIP3    H218919   4.888   6.870   1.604
 6348TIP3   OH218920   4.253   6.923   1.548
 6348TIP3    H118921   4.159   6.930   1.518
 6348TIP3    H218922   4.280   6.834   1.519
 6349TIP3   OH218923   4.526   6.922   1.232
 6349TIP3    H118924   4.621   6.937   1.213
 6349TIP3    H218925   4.481   6.946   1.148
 6350TIP3   OH218926   5.311   6.947   1.742
 6350TIP3    H118927   5.271   6.956   1.830
 6350TIP3    H218928   5.251   6.884   1.699
 6351TIP3   OH218929   4.362   6.952   1.011
 6351TIP3    H118930   4.292   6.909   0.957
 6351TIP3    H218931   4.416   6.992   0.939
 6352TIP3   OH218932   5.479   8.634   1.956
 6352TIP3    H118933   5.478   8.656   1.860
 6352TIP3    H218934   5.558   8.684   1.986
 6353TIP3   OH218935   4.438   7.741   2.379
 6353TIP3    H118936   4.518   7.772   2.427
 6353TIP3    H218937   4.372   7.744   2.451
 6354TIP3   OH218938   4.904   7.194   1.632
 6354TIP3    H118939   4.976   7.160   1.578
 6354TIP3    H218940   4.921   7.153   1.718
 6355TIP3   OH218941   4.426   6.687   1.508
 6355TIP3    H118942   4.400   6.604   1.552
 6355TIP3    H218943   4.484   6.656   1.437
 6356TIP3   OH218944   4.880   7.087   1.930
 6356TIP3    H118945   4.792   7.128   1.937
 6356TIP3    H218946   4.939   7.150   1.976
 6357TIP3   OH218947   4.615   7.485   1.020
 6357TIP3    H118948   4.541   7.421   1.008
 6357TIP3    H218949   4.598   7.518   1.111
 6358TIP3   OH218950   5.517   7.721   1.650
 6358TIP3    H118951   5.543   7.769   1.568
 6358TIP3    H218952   5.432   7.680   1.624
 6359TIP3   OH218953   5.075   6.796   0.882
 6359TIP3    H118954   4.977   6.785   0.885
 6359TIP3    H218955   5.089   6.891   0.900
 6360TIP3   OH218956   5.013   7.800   2.017
 6360TIP3    H118957   5.038   7.783   2.108
 6360TIP3    H218958   4.980   7.891   2.019
 6361TIP3   OH218959   5.146   7.043   0.983
 6361TIP3    H118960   5.242   7.050   0.997
 6361TIP3    H218961   5.126   7.122   0.929
 6362TIP3   OH218962   4.305   7.502   1.696
 6362TIP3    H118963   4.343   7.480   1.609
 6362TIP3    H218964   4.352   7.440   1.754
 6363TIP3   OH218965   4.765   7.632   0.841
 6363TIP3    H118966   4.723   7.720   0.845
 6363TIP3    H218967   4.706   7.580   0.899
 6364TIP3   OH218968   4.186   7.426   2.308
 6364TIP3    H118969   4.203   7.412   2.403
 6364TIP3    H218970   4.116   7.360   2.290
 6365TIP3   OH218971   4.912   7.536   2.334
 6365TIP3    H118972   4.857   7.486   2.271
 6365TIP3    H218973   5.002   7.508   2.306
 6366TIP3   OH218974   5.178   8.058   1.914
 6366TIP3    H118975   5.081   8.061   1.922
 6366TIP3    H218976   5.204   8.114   1.990
 6367TIP3   OH218977   5.586   7.130   0.822
 6367TIP3    H118978   5.526   7.086   0.757
 6367TIP3    H218979   5.583   7.220   0.782
 6368TIP3   OH218980   5.804   7.991   1.901
 6368TIP3    H118981   5.707   7.985   1.892
 6368TIP3    H218982   5.831   7.961   1.811
 6369TIP3   OH218983   5.307   7.943   0.725
 6369TIP3    H118984   5.261   7.897   0.796
 6369TIP3    H218985   5.267   7.904   0.647
 6370TIP3   OH218986   5.282   7.582   1.572
 6370TIP3    H118987   5.189   7.556   1.581
 6370TIP3    H218988   5.318   7.504   1.524
 6371TIP3   OH218989   4.409   7.810   1.326
 6371TIP3    H118990   4.418   7.889   1.269
 6371TIP3    H218991   4.315   7.794   1.319
 6372TIP3   OH218992   3.973   7.115   1.020
 6372TIP3    H118993   4.020   7.198   1.038
 6372TIP3    H218994   3.896   7.123   1.080
 6373TIP3   OH218995   4.550   7.576   1.268
 6373TIP3    H118996   4.518   7.667   1.283
 6373TIP3    H218997   4.510   7.529   1.343
 6374TIP3   OH218998   4.678   8.154   1.790
 6374TIP3    H118999   4.716   8.226   1.737
 6374TIP3    H219000   4.757   8.121   1.836
 6375TIP3   OH219001   4.331   8.048   1.176
 6375TIP3    H119002   4.244   8.058   1.218
 6375TIP3    H219003   4.363   8.141   1.174
 6376TIP3   OH219004   5.069   7.789   1.747
 6376TIP3    H119005   5.062   7.784   1.844
 6376TIP3    H219006   5.148   7.736   1.730
 6377TIP3   OH219007   5.025   7.638   0.640
 6377TIP3    H119008   5.068   7.636   0.728
 6377TIP3    H219009   4.947   7.695   0.657
 6378TIP3   OH219010   5.315   8.325   1.799
 6378TIP3    H119011   5.237   8.269   1.787
 6378TIP3    H219012   5.303   8.390   1.726
 6379TIP3   OH219013   4.403   6.936   2.328
 6379TIP3    H119014   4.306   6.938   2.330
 6379TIP3    H219015   4.422   6.858   2.382
 6380TIP3   OH219016   5.199   7.623   0.860
 6380TIP3    H119017   5.192   7.550   0.924
 6380TIP3    H219018   5.295   7.618   0.838
 6381TIP3   OH219019   4.120   8.017   1.951
 6381TIP3    H119020   4.172   7.943   1.983
 6381TIP3    H219021   4.140   8.087   2.017
 6382TIP3   OH219022   4.395   7.653   0.630
 6382TIP3    H119023   4.426   7.566   0.599
 6382TIP3    H219024   4.386   7.638   0.725
 6383TIP3   OH219025   4.353   7.665   0.911
 6383TIP3    H119026   4.434   7.645   0.960
 6383TIP3    H219027   4.356   7.763   0.907
 6384TIP3   OH219028   4.090   7.359   1.104
 6384TIP3    H119029   4.025   7.407   1.159
 6384TIP3    H219030   4.109   7.427   1.036
 6385TIP3   OH219031   5.230   7.002   2.002
 6385TIP3    H119032   5.317   7.035   2.030
 6385TIP3    H219033   5.221   6.919   2.053
 6386TIP3   OH219034   5.113   6.751   1.160
 6386TIP3    H119035   5.102   6.773   1.065
 6386TIP3    H219036   5.155   6.833   1.195
 6387TIP3   OH219037   4.625   7.862   0.860
 6387TIP3    H119038   4.537   7.902   0.872
 6387TIP3    H219039   4.654   7.902   0.776
 6388TIP3   OH219040   4.806   6.927   1.262
 6388TIP3    H119041   4.872   6.997   1.242
 6388TIP3    H219042   4.814   6.921   1.360
 6389TIP3   OH219043   5.073   7.246   2.074
 6389TIP3    H119044   5.098   7.298   2.152
 6389TIP3    H219045   5.132   7.168   2.081
 6390TIP3   OH219046   4.953   6.657   1.366
 6390TIP3    H119047   4.949   6.733   1.428
 6390TIP3    H219048   5.012   6.694   1.297
 6391TIP3   OH219049   4.356   7.939   0.913
 6391TIP3    H119050   4.330   8.009   0.849
 6391TIP3    H219051   4.348   7.985   0.998
 6392TIP3   OH219052   4.462   6.652   1.158
 6392TIP3    H119053   4.461   6.744   1.190
 6392TIP3    H219054   4.558   6.633   1.165
 6393TIP3   OH219055   5.718   7.148   2.056
 6393TIP3    H119056   5.620   7.143   2.056
 6393TIP3    H219057   5.736   7.113   1.967
 6394TIP3   OH219058   5.367   7.343   1.441
 6394TIP3    H119059   5.293   7.280   1.451
 6394TIP3    H219060   5.440   7.296   1.487
 6395TIP3   OH219061   4.079   7.573   0.911
 6395TIP3    H119062   4.145   7.644   0.920
 6395TIP3    H219063   4.124   7.519   0.842
 6396TIP3   OH219064   4.023   6.844   1.047
 6396TIP3    H119065   4.029   6.942   1.040
 6396TIP3    H219066   3.942   6.827   0.997
 6397TIP3   OH219067   5.335   8.297   1.392
 6397TIP3    H119068   5.292   8.343   1.317
 6397TIP3    H219069   5.429   8.315   1.370
 6398TIP3   OH219070   4.410   6.567   1.920
 6398TIP3    H119071   4.381   6.533   1.833
 6398TIP3    H219072   4.402   6.487   1.976
 6399TIP3   OH219073   3.954   7.785   1.304
 6399TIP3    H119074   3.874   7.819   1.345
 6399TIP3    H219075   3.944   7.821   1.214
 6400TIP3   OH219076   4.103   8.321   2.374
 6400TIP3    H119077   4.193   8.321   2.419
 6400TIP3    H219078   4.086   8.227   2.363
 6401TIP3   OH219079   4.592   8.291   2.417
 6401TIP3    H119080   4.687   8.277   2.417
 6401TIP3    H219081   4.565   8.236   2.340
 6402TIP3   OH219082   4.545   7.880   0.569
 6402TIP3    H119083   4.502   7.792   0.576
 6402TIP3    H219084   4.634   7.857   0.537
 6403TIP3   OH219085   5.226   8.199   2.149
 6403TIP3    H119086   5.220   8.126   2.215
 6403TIP3    H219087   5.306   8.247   2.176
 6404TIP3   OH219088   4.239   7.728   2.571
 6404TIP3    H119089   4.258   7.632   2.569
 6404TIP3    H219090   4.151   7.732   2.527
 6405TIP3   OH219091   4.213   7.382   0.762
 6405TIP3    H119092   4.274   7.351   0.831
 6405TIP3    H219093   4.276   7.393   0.688
 6406TIP3   OH219094   4.844   7.814   2.345
 6406TIP3    H119095   4.805   7.831   2.257
 6406TIP3    H219096   4.876   7.722   2.337
 6407TIP3   OH219097   4.704   7.573   0.569
 6407TIP3    H119098   4.728   7.595   0.661
 6407TIP3    H219099   4.710   7.475   0.571
 6408TIP3   OH219100   5.339   7.823   1.950
 6408TIP3    H119101   5.414   7.866   1.904
 6408TIP3    H219102   5.269   7.889   1.935
 6409TIP3   OH219103   4.352   7.469   2.555
 6409TIP3    H119104   4.423   7.412   2.526
 6409TIP3    H219105   4.378   7.488   2.648
 6410TIP3   OH219106   4.423   7.284   0.986
 6410TIP3    H119107   4.401   7.238   1.069
 6410TIP3    H219108   4.460   7.212   0.931
 6411TIP3   OH219109   4.691   7.350   2.216
 6411TIP3    H119110   4.615   7.411   2.217
 6411TIP3    H219111   4.740   7.381   2.136
 6412TIP3   OH219112   4.523   7.076   0.829
 6412TIP3    H119113   4.496   7.079   0.735
 6412TIP3    H219114   4.620   7.085   0.820
 6413TIP3   OH219115   5.209   7.753   2.349
 6413TIP3    H119116   5.287   7.734   2.295
 6413TIP3    H219117   5.211   7.681   2.414
 6414TIP3   OH219118   5.339   7.424   0.528
 6414TIP3    H119119   5.368   7.395   0.438
 6414TIP3    H219120   5.316   7.517   0.510
 6415TIP3   OH219121   4.811   7.136   2.347
 6415TIP3    H119122   4.816   7.057   2.289
 6415TIP3    H219123   4.772   7.202   2.286
 6416TIP3   OH219124   4.816   6.926   2.151
 6416TIP3    H119125   4.847   6.966   2.066
 6416TIP3    H219126   4.724   6.901   2.128
 6417TIP3   OH219127   4.848   7.462   2.023
 6417TIP3    H119128   4.929   7.465   1.970
 6417TIP3    H219129   4.792   7.529   1.978
 6418TIP3   OH219130   5.433   7.430   2.406
 6418TIP3    H119131   5.478   7.344   2.403
 6418TIP3    H219132   5.499   7.488   2.366
 6419TIP3   OH219133   5.469   7.682   2.140
 6419TIP3    H119134   5.412   7.734   2.078
 6419TIP3    H219135   5.557   7.699   2.099
 6420TIP3   OH219136   4.698   7.241   2.598
 6420TIP3    H119137   4.626   7.177   2.581
 6420TIP3    H219138   4.731   7.253   2.506
 6421TIP3   OH219139   4.951   6.690   2.212
 6421TIP3    H119140   4.901   6.772   2.190
 6421TIP3    H219141   4.882   6.621   2.200
 6422TIP3   OH219142   5.076   7.196   2.427
 6422TIP3    H119143   5.066   7.183   2.523
 6422TIP3    H219144   4.987   7.168   2.397
 6423TIP3   OH219145   5.319   7.150   2.286
 6423TIP3    H119146   5.241   7.143   2.345
 6423TIP3    H219147   5.391   7.113   2.341
 6424TIP3   OH219148   5.542   7.079   2.439
 6424TIP3    H119149   5.559   6.986   2.460
 6424TIP3    H219150   5.543   7.122   2.527
 6425TIP3   OH219151   4.535   7.024   2.628
 6425TIP3    H119152   4.533   6.966   2.550
 6425TIP3    H219153   4.560   6.957   2.693
 6426TIP3   OH219154   5.045   6.700   2.470
 6426TIP3    H119155   5.114   6.630   2.469
 6426TIP3    H219156   5.009   6.690   2.380
 6427TIP3   OH219157   5.113   6.911   2.627
 6427TIP3    H119158   5.094   6.838   2.564
 6427TIP3    H219159   5.038   6.971   2.611
 6428TIP3   OH219160   4.331   8.146   0.729
 6428TIP3    H119161   4.426   8.144   0.709
 6428TIP3    H219162   4.296   8.182   0.645
 6429TIP3   OH219163   3.812   7.522   0.951
 6429TIP3    H119164   3.906   7.546   0.934
 6429TIP3    H219165   3.807   7.434   0.907
 6430TIP3   OH219166   3.723   8.136   1.358
 6430TIP3    H119167   3.657   8.072   1.323
 6430TIP3    H219168   3.769   8.080   1.424
 6431TIP3   OH219169   3.858   7.991   1.545
 6431TIP3    H119170   3.850   7.911   1.600
 6431TIP3    H219171   3.911   8.047   1.603
 6432TIP3   OH219172   5.586   8.390   1.346
 6432TIP3    H119173   5.618   8.426   1.430
 6432TIP3    H219174   5.647   8.429   1.282
 6433TIP3   OH219175   5.618   8.410   1.630
 6433TIP3    H119176   5.576   8.322   1.621
 6433TIP3    H219177   5.695   8.386   1.682
 6434TIP3   OH219178   5.665   8.085   2.201
 6434TIP3    H119179   5.591   8.093   2.264
 6434TIP3    H219180   5.705   8.174   2.204
 6435TIP3   OH219181   5.481   7.599   0.827
 6435TIP3    H119182   5.557   7.657   0.806
 6435TIP3    H219183   5.515   7.554   0.908
 6436TIP3   OH219184   5.607   7.467   1.026
 6436TIP3    H119185   5.543   7.422   1.086
 6436TIP3    H219186   5.674   7.503   1.088
 6437TIP3   OH219187   5.659   7.855   1.457
 6437TIP3    H119188   5.714   7.792   1.406
 6437TIP3    H219189   5.654   7.931   1.396
 6438TIP3   OH219190   5.495   8.157   1.654
 6438TIP3    H119191   5.423   8.200   1.703
 6438TIP3    H219192   5.447   8.109   1.584
 6439TIP3   OH219193   5.548   7.370   0.688
 6439TIP3    H119194   5.469   7.370   0.630
 6439TIP3    H219195   5.526   7.448   0.742
 6440TIP3   OH219196   5.419   7.054   0.619
 6440TIP3    H119197   5.362   7.079   0.545
 6440TIP3    H219198   5.393   6.959   0.628
 6441TIP3   OH219199   5.424   7.321   1.172
 6441TIP3    H119200   5.432   7.224   1.167
 6441TIP3    H219201   5.411   7.335   1.268
 6442TIP3   OH219202   4.050   7.392   1.918
 6442TIP3    H119203   4.049   7.366   1.824
 6442TIP3    H219204   4.147   7.397   1.934
 6443TIP3   OH219205   5.710   7.746   2.029
 6443TIP3    H119206   5.783   7.680   2.020
 6443TIP3    H219207   5.737   7.814   1.965
 6444TIP3   OH219208   5.896   7.555   2.054
 6444TIP3    H119209   5.822   7.502   2.090
 6444TIP3    H219210   5.969   7.490   2.066
 6445TIP3   OH219211   5.347   6.795   0.643
 6445TIP3    H119212   5.433   6.752   0.662
 6445TIP3    H219213   5.284   6.722   0.647
 6446TIP3   OH219214   5.418   7.038   1.068
 6446TIP3    H119215   5.459   6.949   1.084
 6446TIP3    H219216   5.477   7.070   0.997
 6447TIP3   OH219217   5.580   7.217   1.561
 6447TIP3    H119218   5.666   7.242   1.520
 6447TIP3    H219219   5.596   7.250   1.652
 6448TIP3   OH219220   5.649   7.357   1.798
 6448TIP3    H119221   5.568   7.393   1.841
 6448TIP3    H219222   5.681   7.436   1.749
 6449TIP3   OH219223   4.263   7.081   2.593
 6449TIP3    H119224   4.360   7.073   2.594
 6449TIP3    H219225   4.237   6.995   2.632
 6450TIP3   OH219226   6.099   6.945   2.352
 6450TIP3    H119227   6.158   6.878   2.309
 6450TIP3    H219228   6.073   7.000   2.276
 6451TIP3   OH219229   5.525   6.788   1.106
 6451TIP3    H119230   5.577   6.771   1.188
 6451TIP3    H219231   5.468   6.709   1.104
 6452TIP3   OH219232   4.226   6.775   1.927
 6452TIP3    H119233   4.289   6.700   1.935
 6452TIP3    H219234   4.288   6.849   1.918
 6453TIP3   OH219235   4.032   7.049   1.998
 6453TIP3    H119236   4.081   7.040   1.914
 6453TIP3    H219237   4.058   7.137   2.026
 6454TIP3   OH219238   5.972   7.089   2.160
 6454TIP3    H119239   5.881   7.124   2.168
 6454TIP3    H219240   5.956   7.018   2.096
 6455TIP3   OH219241   5.614   6.722   0.737
 6455TIP3    H119242   5.657   6.650   0.686
 6455TIP3    H219243   5.678   6.794   0.725
 6456TIP3   OH219244   4.012   6.545   1.493
 6456TIP3    H119245   3.919   6.552   1.518
 6456TIP3    H219246   4.017   6.607   1.417
 6457TIP3   OH219247   5.185   8.251   1.012
 6457TIP3    H119248   5.225   8.233   0.925
 6457TIP3    H219249   5.240   8.323   1.045
 6458TIP3   OH219250   4.235   6.640   2.317
 6458TIP3    H119251   4.181   6.626   2.396
 6458TIP3    H219252   4.167   6.671   2.254
 6459TIP3   OH219253   4.275   8.045   2.391
 6459TIP3    H119254   4.184   8.029   2.362
 6459TIP3    H219255   4.263   8.055   2.486
 6460TIP3   OH219256   4.453   8.088   1.938
 6460TIP3    H119257   4.405   8.161   1.895
 6460TIP3    H219258   4.539   8.101   1.893
 6461TIP3   OH219259   4.898   8.336   2.075
 6461TIP3    H119260   4.941   8.339   2.163
 6461TIP3    H219261   4.963   8.385   2.021
 6462TIP3   OH219262   5.076   8.485   1.933
 6462TIP3    H119263   5.147   8.436   1.888
 6462TIP3    H219264   5.128   8.543   1.992
 6463TIP3   OH219265   5.867   6.848   2.036
 6463TIP3    H119266   5.778   6.842   1.999
 6463TIP3    H219267   5.900   6.756   2.022
 6464TIP3   OH219268   4.137   8.311   2.041
 6464TIP3    H119269   4.059   8.334   1.979
 6464TIP3    H219270   4.203   8.375   2.012
 6465TIP3   OH219271   4.376   8.325   1.809
 6465TIP3    H119272   4.289   8.338   1.851
 6465TIP3    H219273   4.357   8.356   1.718
 6466TIP3   OH219274   4.789   8.355   1.618
 6466TIP3    H119275   4.725   8.375   1.548
 6466TIP3    H219276   4.804   8.443   1.657
 6467TIP3   OH219277   5.059   8.297   1.669
 6467TIP3    H119278   4.965   8.311   1.646
 6467TIP3    H219279   5.102   8.369   1.622
 6468TIP3   OH219280   5.268   8.489   1.583
 6468TIP3    H119281   5.253   8.573   1.535
 6468TIP3    H219282   5.293   8.428   1.509
 6469TIP3   OH219283   4.031   8.128   1.720
 6469TIP3    H119284   4.068   8.097   1.806
 6469TIP3    H219285   4.104   8.096   1.660
 6470TIP3   OH219286   4.228   8.015   1.564
 6470TIP3    H119287   4.249   7.929   1.608
 6470TIP3    H219288   4.318   8.054   1.555
 6471TIP3   OH219289   4.495   8.111   1.563
 6471TIP3    H119290   4.530   8.023   1.543
 6471TIP3    H219291   4.540   8.128   1.648
 6472TIP3   OH219292   5.072   6.764   1.648
 6472TIP3    H119293   5.032   6.694   1.702
 6472TIP3    H219294   5.147   6.718   1.606
 6473TIP3   OH219295   5.599   6.646   1.559
 6473TIP3    H119296   5.639   6.696   1.484
 6473TIP3    H219297   5.504   6.664   1.549
 6474TIP3   OH219298   5.694   6.747   1.323
 6474TIP3    H119299   5.767   6.694   1.282
 6474TIP3    H219300   5.729   6.838   1.307
 6475TIP3   OH219301   4.324   6.473   1.671
 6475TIP3    H119302   4.233   6.438   1.670
 6475TIP3    H219303   4.376   6.389   1.668
 6476TIP3   OH219304   4.101   6.342   1.312
 6476TIP3    H119305   4.140   6.397   1.241
 6476TIP3    H219306   4.080   6.410   1.380
 6477TIP3   OH219307   4.764   6.509   1.550
 6477TIP3    H119308   4.823   6.556   1.490
 6477TIP3    H219309   4.793   6.543   1.636
 6478TIP3   OH219310   5.313   6.652   1.535
 6478TIP3    H119311   5.315   6.618   1.445
 6478TIP3    H219312   5.300   6.570   1.587
 6479TIP3   OH219313   5.344   6.573   1.095
 6479TIP3    H119314   5.257   6.615   1.102
 6479TIP3    H219315   5.329   6.488   1.143
 6480TIP3   OH219316   3.825   7.911   1.102
 6480TIP3    H119317   3.741   7.879   1.063
 6480TIP3    H219318   3.816   8.006   1.082
 6481TIP3   OH219319   4.227   6.498   1.085
 6481TIP3    H119320   4.277   6.441   1.025
 6481TIP3    H219321   4.298   6.557   1.119
 6482TIP3   OH219322   4.739   6.675   1.181
 6482TIP3    H119323   4.802   6.631   1.239
 6482TIP3    H219324   4.760   6.769   1.204
 6483TIP3   OH219325   4.605   8.118   0.675
 6483TIP3    H119326   4.699   8.111   0.647
 6483TIP3    H219327   4.574   8.036   0.632
 6484TIP3   OH219328   5.322   8.215   0.770
 6484TIP3    H119329   5.313   8.118   0.755
 6484TIP3    H219330   5.274   8.251   0.692
 6485TIP3   OH219331   4.528   6.752   2.566
 6485TIP3    H119332   4.500   6.675   2.619
 6485TIP3    H219333   4.624   6.752   2.585
 6486TIP3   OH219334   4.781   6.750   2.669
 6486TIP3    H119335   4.866   6.721   2.630
 6486TIP3    H219336   4.772   6.688   2.744
 6487TIP3   OH219337   3.904   7.933   0.739
 6487TIP3    H119338   3.911   7.968   0.829
 6487TIP3    H219339   3.994   7.895   0.724
 6488TIP3   OH219340   5.617   6.808   2.477
 6488TIP3    H119341   5.656   6.742   2.537
 6488TIP3    H219342   5.691   6.817   2.413
 6489TIP3   OH219343   5.545   8.365   1.961
 6489TIP3    H119344   5.467   8.333   1.911
 6489TIP3    H219345   5.526   8.461   1.960
 6490TIP3   OH219346   6.836   7.719   1.090
 6490TIP3    H119347   6.845   7.710   1.186
 6490TIP3    H219348   6.765   7.656   1.070
 6491TIP3   OH219349   6.109   7.635   1.475
 6491TIP3    H119350   6.142   7.565   1.535
 6491TIP3    H219351   6.190   7.685   1.459
 6492TIP3   OH219352   6.081   8.040   1.205
 6492TIP3    H119353   6.072   7.942   1.204
 6492TIP3    H219354   6.177   8.048   1.189
 6493TIP3   OH219355   5.787   7.248   0.982
 6493TIP3    H119356   5.736   7.330   0.996
 6493TIP3    H219357   5.718   7.189   0.949
 6494TIP3   OH219358   5.847   7.533   1.150
 6494TIP3    H119359   5.894   7.457   1.190
 6494TIP3    H219360   5.909   7.560   1.082
 6495TIP3   OH219361   7.625   7.278   1.157
 6495TIP3    H119362   7.647   7.360   1.207
 6495TIP3    H219363   7.641   7.307   1.066
 6496TIP3   OH219364   7.026   7.465   1.198
 6496TIP3    H119365   7.061   7.375   1.206
 6496TIP3    H219366   6.992   7.465   1.107
 6497TIP3   OH219367   6.365   7.122   1.148
 6497TIP3    H119368   6.334   7.196   1.092
 6497TIP3    H219369   6.311   7.049   1.111
 6498TIP3   OH219370   7.005   7.198   0.843
 6498TIP3    H119371   7.080   7.168   0.897
 6498TIP3    H219372   7.057   7.209   0.760
 6499TIP3   OH219373   5.992   7.329   1.257
 6499TIP3    H119374   6.074   7.306   1.305
 6499TIP3    H219375   6.002   7.270   1.180
 6500TIP3   OH219376   6.432   7.523   1.052
 6500TIP3    H119377   6.525   7.496   1.069
 6500TIP3    H219378   6.392   7.440   1.020
 6501TIP3   OH219379   7.690   7.491   1.317
 6501TIP3    H119380   7.605   7.538   1.307
 6501TIP3    H219381   7.709   7.510   1.410
 6502TIP3   OH219382   6.468   7.888   1.382
 6502TIP3    H119383   6.396   7.940   1.423
 6502TIP3    H219384   6.508   7.955   1.324
 6503TIP3   OH219385   7.278   7.224   0.964
 6503TIP3    H119386   7.254   7.175   1.043
 6503TIP3    H219387   7.314   7.307   1.000
 6504TIP3   OH219388   6.223   7.228   1.365
 6504TIP3    H119389   6.292   7.286   1.403
 6504TIP3    H219390   6.279   7.172   1.307
 6505TIP3   OH219391   6.290   8.073   1.483
 6505TIP3    H119392   6.263   8.155   1.437
 6505TIP3    H219393   6.210   8.059   1.539
 6506TIP3   OH219394   5.685   7.766   0.716
 6506TIP3    H119395   5.602   7.785   0.669
 6506TIP3    H219396   5.689   7.837   0.783
 6507TIP3   OH219397   7.115   8.299   0.974
 6507TIP3    H119398   7.047   8.230   0.974
 6507TIP3    H219399   7.105   8.333   0.885
 6508TIP3   OH219400   7.412   7.186   1.321
 6508TIP3    H119401   7.322   7.210   1.293
 6508TIP3    H219402   7.467   7.214   1.245
 6509TIP3   OH219403   6.729   6.825   1.288
 6509TIP3    H119404   6.706   6.731   1.301
 6509TIP3    H219405   6.664   6.864   1.351
 6510TIP3   OH219406   7.344   8.199   1.300
 6510TIP3    H119407   7.340   8.121   1.240
 6510TIP3    H219408   7.336   8.274   1.236
 6511TIP3   OH219409   7.540   7.828   1.148
 6511TIP3    H119410   7.462   7.887   1.158
 6511TIP3    H219411   7.549   7.829   1.052
 6512TIP3   OH219412   7.226   7.712   1.434
 6512TIP3    H119413   7.220   7.797   1.482
 6512TIP3    H219414   7.138   7.711   1.391
 6513TIP3   OH219415   6.222   7.671   0.944
 6513TIP3    H119416   6.179   7.611   0.879
 6513TIP3    H219417   6.299   7.617   0.973
 6514TIP3   OH219418   6.347   8.078   1.102
 6514TIP3    H119419   6.326   8.042   1.014
 6514TIP3    H219420   6.444   8.076   1.105
 6515TIP3   OH219421   6.358   7.643   1.300
 6515TIP3    H119422   6.388   7.619   1.210
 6515TIP3    H219423   6.401   7.729   1.315
 6516TIP3   OH219424   6.500   8.197   1.617
 6516TIP3    H119425   6.442   8.260   1.665
 6516TIP3    H219426   6.431   8.144   1.571
 6517TIP3   OH219427   6.251   7.756   1.723
 6517TIP3    H119428   6.251   7.842   1.770
 6517TIP3    H219429   6.156   7.736   1.724
 6518TIP3   OH219430   6.292   8.367   1.709
 6518TIP3    H119431   6.258   8.363   1.617
 6518TIP3    H219432   6.212   8.344   1.761
 6519TIP3   OH219433   6.084   7.509   0.765
 6519TIP3    H119434   6.025   7.551   0.699
 6519TIP3    H219435   6.033   7.431   0.789
 6520TIP3   OH219436   5.869   7.896   1.656
 6520TIP3    H119437   5.806   7.873   1.585
 6520TIP3    H219438   5.905   7.809   1.682
 6521TIP3   OH219439   5.723   8.084   1.296
 6521TIP3    H119440   5.818   8.080   1.278
 6521TIP3    H219441   5.715   8.168   1.343
 6522TIP3   OH219442   7.580   8.537   1.339
 6522TIP3    H119443   7.585   8.441   1.356
 6522TIP3    H219444   7.499   8.560   1.388
 6523TIP3   OH219445   6.695   8.340   1.474
 6523TIP3    H119446   6.696   8.432   1.507
 6523TIP3    H219447   6.623   8.303   1.530
 6524TIP3   OH219448   5.884   8.301   0.814
 6524TIP3    H119449   5.949   8.297   0.887
 6524TIP3    H219450   5.828   8.224   0.838
 6525TIP3   OH219451   7.478   7.671   1.618
 6525TIP3    H119452   7.395   7.685   1.569
 6525TIP3    H219453   7.490   7.575   1.608
 6526TIP3   OH219454   6.074   8.079   1.649
 6526TIP3    H119455   6.124   8.059   1.730
 6526TIP3    H219456   6.000   8.015   1.654
 6527TIP3   OH219457   7.006   7.019   1.623
 6527TIP3    H119458   7.071   6.990   1.689
 6527TIP3    H219459   6.920   7.000   1.667
 6528TIP3   OH219460   7.253   7.450   1.546
 6528TIP3    H119461   7.200   7.443   1.628
 6528TIP3    H219462   7.219   7.532   1.505
 6529TIP3   OH219463   6.412   7.419   1.451
 6529TIP3    H119464   6.353   7.433   1.528
 6529TIP3    H219465   6.388   7.496   1.395
 6530TIP3   OH219466   6.287   7.303   0.957
 6530TIP3    H119467   6.195   7.277   0.979
 6530TIP3    H219468   6.297   7.259   0.870
 6531TIP3   OH219469   6.954   7.671   1.779
 6531TIP3    H119470   6.930   7.597   1.839
 6531TIP3    H219471   7.049   7.682   1.800
 6532TIP3   OH219472   6.932   7.442   0.939
 6532TIP3    H119473   6.899   7.488   0.860
 6532TIP3    H219474   6.949   7.351   0.903
 6533TIP3   OH219475   6.225   7.447   1.657
 6533TIP3    H119476   6.251   7.506   1.729
 6533TIP3    H219477   6.215   7.362   1.704
 6534TIP3   OH219478   5.816   6.972   1.238
 6534TIP3    H119479   5.892   7.004   1.291
 6534TIP3    H219480   5.857   6.934   1.159
 6535TIP3   OH219481   5.794   6.954   0.757
 6535TIP3    H119482   5.841   6.991   0.680
 6535TIP3    H219483   5.732   7.026   0.778
 6536TIP3   OH219484   6.954   7.667   1.360
 6536TIP3    H119485   6.983   7.597   1.297
 6536TIP3    H219486   6.920   7.611   1.433
 6537TIP3   OH219487   6.618   7.119   1.031
 6537TIP3    H119488   6.532   7.119   1.078
 6537TIP3    H219489   6.680   7.127   1.106
 6538TIP3   OH219490   6.051   7.181   1.028
 6538TIP3    H119491   5.956   7.185   1.004
 6538TIP3    H219492   6.075   7.088   1.010
 6539TIP3   OH219493   6.320   7.179   0.706
 6539TIP3    H119494   6.417   7.191   0.719
 6539TIP3    H219495   6.302   7.239   0.633
 6540TIP3   OH219496   7.109   7.197   1.224
 6540TIP3    H119497   7.073   7.212   1.315
 6540TIP3    H219498   7.040   7.138   1.188
 6541TIP3   OH219499   7.271   8.888   1.441
 6541TIP3    H119500   7.276   8.913   1.346
 6541TIP3    H219501   7.345   8.939   1.478
 6542TIP3   OH219502   6.234   8.001   1.867
 6542TIP3    H119503   6.314   8.031   1.915
 6542TIP3    H219504   6.169   8.000   1.940
 6543TIP3   OH219505   6.694   7.452   1.123
 6543TIP3    H119506   6.774   7.422   1.077
 6543TIP3    H219507   6.703   7.409   1.211
 6544TIP3   OH219508   6.222   6.943   0.995
 6544TIP3    H119509   6.186   6.865   1.043
 6544TIP3    H219510   6.282   6.900   0.932
 6545TIP3   OH219511   6.680   7.355   1.400
 6545TIP3    H119512   6.587   7.379   1.422
 6545TIP3    H219513   6.732   7.409   1.461
 6546TIP3   OH219514   7.317   7.984   1.123
 6546TIP3    H119515   7.294   8.021   1.037
 6546TIP3    H219516   7.237   7.927   1.134
 6547TIP3   OH219517   6.843   8.101   1.508
 6547TIP3    H119518   6.870   8.039   1.578
 6547TIP3    H219519   6.747   8.102   1.523
 6548TIP3   OH219520   6.103   7.761   1.182
 6548TIP3    H119521   6.141   7.736   1.096
 6548TIP3    H219522   6.144   7.696   1.241
 6549TIP3   OH219523   5.982   7.687   1.796
 6549TIP3    H119524   6.006   7.670   1.889
 6549TIP3    H219525   5.917   7.617   1.778
 6550TIP3   OH219526   6.708   7.797   1.815
 6550TIP3    H119527   6.648   7.739   1.766
 6550TIP3    H219528   6.795   7.762   1.786
 6551TIP3   OH219529   7.597   8.247   1.393
 6551TIP3    H119530   7.499   8.244   1.388
 6551TIP3    H219531   7.620   8.218   1.302
 6552TIP3   OH219532   7.097   7.835   1.076
 6552TIP3    H119533   7.000   7.822   1.082
 6552TIP3    H219534   7.121   7.758   1.020
 6553TIP3   OH219535   6.218   8.077   0.826
 6553TIP3    H119536   6.228   8.166   0.787
 6553TIP3    H219537   6.142   8.044   0.774
 6554TIP3   OH219538   5.755   7.370   0.509
 6554TIP3    H119539   5.797   7.453   0.538
 6554TIP3    H219540   5.676   7.369   0.567
 6555TIP3   OH219541   6.365   7.844   0.771
 6555TIP3    H119542   6.318   7.929   0.781
 6555TIP3    H219543   6.314   7.788   0.832
 6556TIP3   OH219544   6.468   8.414   1.276
 6556TIP3    H119545   6.510   8.484   1.222
 6556TIP3    H219546   6.546   8.363   1.303
 6557TIP3   OH219547   7.111   8.582   1.275
 6557TIP3    H119548   7.024   8.544   1.251
 6557TIP3    H219549   7.113   8.657   1.212
 6558TIP3   OH219550   6.193   7.217   1.823
 6558TIP3    H119551   6.100   7.192   1.812
 6558TIP3    H219552   6.233   7.132   1.849
 6559TIP3   OH219553   5.912   8.277   1.437
 6559TIP3    H119554   5.962   8.197   1.459
 6559TIP3    H219555   5.949   8.340   1.500
 6560TIP3   OH219556   5.877   7.596   0.601
 6560TIP3    H119557   5.818   7.654   0.653
 6560TIP3    H219558   5.918   7.661   0.539
 6561TIP3   OH219559   7.034   7.254   1.483
 6561TIP3    H119560   7.112   7.288   1.528
 6561TIP3    H219561   7.014   7.172   1.535
 6562TIP3   OH219562   6.583   7.195   0.769
 6562TIP3    H119563   6.661   7.239   0.733
 6562TIP3    H219564   6.604   7.187   0.865
 6563TIP3   OH219565   6.871   7.504   1.561
 6563TIP3    H119566   6.889   7.558   1.641
 6563TIP3    H219567   6.926   7.425   1.576
 6564TIP3   OH219568   6.761   6.933   0.855
 6564TIP3    H119569   6.732   6.995   0.926
 6564TIP3    H219570   6.843   6.976   0.828
 6565TIP3   OH219571   6.252   6.904   0.652
 6565TIP3    H119572   6.246   6.994   0.689
 6565TIP3    H219573   6.341   6.877   0.683
 6566TIP3   OH219574   7.516   7.401   1.535
 6566TIP3    H119575   7.419   7.404   1.549
 6566TIP3    H219576   7.519   7.357   1.449
 6567TIP3   OH219577   7.168   7.605   0.945
 6567TIP3    H119578   7.089   7.550   0.938
 6567TIP3    H219579   7.236   7.542   0.973
 6568TIP3   OH219580   5.826   7.106   0.521
 6568TIP3    H119581   5.796   7.199   0.514
 6568TIP3    H219582   5.754   7.059   0.479
 6569TIP3   OH219583   6.157   6.821   1.411
 6569TIP3    H119584   6.173   6.789   1.320
 6569TIP3    H219585   6.206   6.757   1.465
 6570TIP3   OH219586   5.736   8.060   0.829
 6570TIP3    H119587   5.650   8.102   0.838
 6570TIP3    H219588   5.749   8.055   0.732
 6571TIP3   OH219589   5.902   8.578   1.857
 6571TIP3    H119590   5.989   8.576   1.902
 6571TIP3    H219591   5.881   8.484   1.853
 6572TIP3   OH219592   6.389   8.549   1.899
 6572TIP3    H119593   6.482   8.526   1.907
 6572TIP3    H219594   6.362   8.492   1.825
 6573TIP3   OH219595   7.023   8.453   1.624
 6573TIP3    H119596   7.012   8.380   1.689
 6573TIP3    H219597   7.102   8.498   1.657
 6574TIP3   OH219598   6.034   7.987   2.057
 6574TIP3    H119599   6.052   7.891   2.058
 6574TIP3    H219600   5.946   7.989   2.013
 6575TIP3   OH219601   6.643   8.072   1.830
 6575TIP3    H119602   6.597   8.085   1.745
 6575TIP3    H219603   6.673   7.978   1.825
 6576TIP3   OH219604   7.143   8.058   1.445
 6576TIP3    H119605   7.196   8.124   1.397
 6576TIP3    H219606   7.052   8.089   1.437
 6577TIP3   OH219607   6.151   7.721   2.037
 6577TIP3    H119608   6.225   7.662   2.015
 6577TIP3    H219609   6.178   7.753   2.126
 6578TIP3   OH219610   6.491   7.612   1.706
 6578TIP3    H119611   6.410   7.667   1.707
 6578TIP3    H219612   6.533   7.639   1.621
 6579TIP3   OH219613   7.006   8.009   1.833
 6579TIP3    H119614   7.089   7.988   1.791
 6579TIP3    H219615   7.001   7.942   1.904
 6580TIP3   OH219616   6.613   7.393   1.826
 6580TIP3    H119617   6.604   7.313   1.771
 6580TIP3    H219618   6.568   7.460   1.770
 6581TIP3   OH219619   6.602   7.183   1.631
 6581TIP3    H119620   6.632   7.216   1.544
 6581TIP3    H219621   6.545   7.109   1.602
 6582TIP3   OH219622   6.650   7.728   1.509
 6582TIP3    H119623   6.724   7.719   1.449
 6582TIP3    H219624   6.589   7.787   1.460
 6583TIP3   OH219625   7.226   7.685   1.890
 6583TIP3    H119626   7.273   7.601   1.897
 6583TIP3    H219627   7.294   7.744   1.854
 6584TIP3   OH219628   7.275   7.930   1.635
 6584TIP3    H119629   7.216   7.980   1.573
 6584TIP3    H219630   7.361   7.948   1.591
 6585TIP3   OH219631   6.490   7.510   2.056
 6585TIP3    H119632   6.421   7.441   2.069
 6585TIP3    H219633   6.523   7.486   1.967
 6586TIP3   OH219634   6.753   6.961   1.707
 6586TIP3    H119635   6.707   7.046   1.691
 6586TIP3    H219636   6.691   6.905   1.655
 6587TIP3   OH219637   6.872   7.452   1.915
 6587TIP3    H119638   6.858   7.439   2.011
 6587TIP3    H219639   6.783   7.425   1.883
 6588TIP3   OH219640   7.113   7.399   1.771
 6588TIP3    H119641   7.035   7.400   1.830
 6588TIP3    H219642   7.184   7.366   1.829
 6589TIP3   OH219643   7.346   7.339   1.923
 6589TIP3    H119644   7.354   7.244   1.943
 6589TIP3    H219645   7.338   7.379   2.013
 6590TIP3   OH219646   6.330   7.292   2.109
 6590TIP3    H119647   6.330   7.206   2.064
 6590TIP3    H219648   6.364   7.268   2.197
 6591TIP3   OH219649   6.843   6.953   1.962
 6591TIP3    H119650   6.909   6.882   1.951
 6591TIP3    H219651   6.800   6.951   1.873
 6592TIP3   OH219652   6.908   7.171   2.116
 6592TIP3    H119653   6.885   7.098   2.053
 6592TIP3    H219654   6.830   7.229   2.109
 6593TIP3   OH219655   5.513   8.399   0.846
 6593TIP3    H119656   5.449   8.332   0.811
 6593TIP3    H219657   5.559   8.346   0.915
 6594TIP3   OH219658   5.645   8.259   1.038
 6594TIP3    H119659   5.647   8.175   1.086
 6594TIP3    H219660   5.705   8.313   1.093
 6595TIP3   OH219661   7.427   8.669   1.121
 6595TIP3    H119662   7.382   8.583   1.106
 6595TIP3    H219663   7.500   8.638   1.176
 6596TIP3   OH219664   7.459   8.342   1.686
 6596TIP3    H119665   7.387   8.349   1.751
 6596TIP3    H219666   7.501   8.430   1.692
 6597TIP3   OH219667   7.294   8.420   1.141
 6597TIP3    H119668   7.229   8.467   1.198
 6597TIP3    H219669   7.233   8.376   1.076
 6598TIP3   OH219670   5.845   7.652   1.404
 6598TIP3    H119671   5.845   7.623   1.311
 6598TIP3    H219672   5.942   7.654   1.422
 6599TIP3   OH219673   7.508   8.002   1.513
 6599TIP3    H119674   7.582   7.937   1.506
 6599TIP3    H219675   7.539   8.074   1.456
 6600TIP3   OH219676   7.693   7.810   1.534
 6600TIP3    H119677   7.619   7.758   1.573
 6600TIP3    H219678   7.766   7.746   1.547
 6601TIP3   OH219679   7.388   7.463   1.051
 6601TIP3    H119680   7.462   7.507   1.005
 6601TIP3    H219681   7.391   7.506   1.139
 6602TIP3   OH219682   7.442   7.610   1.282
 6602TIP3    H119683   7.363   7.639   1.332
 6602TIP3    H219684   7.473   7.694   1.243
 6603TIP3   OH219685   6.060   7.343   2.087
 6603TIP3    H119686   6.156   7.332   2.072
 6603TIP3    H219687   6.038   7.255   2.125
 6604TIP3   OH219688   7.898   7.202   1.838
 6604TIP3    H119689   7.955   7.136   1.793
 6604TIP3    H219690   7.869   7.259   1.763
 6605TIP3   OH219691   6.015   7.047   1.417
 6605TIP3    H119692   6.066   6.963   1.423
 6605TIP3    H219693   6.089   7.111   1.413
 6606TIP3   OH219694   5.824   7.309   1.483
 6606TIP3    H119695   5.876   7.289   1.403
 6606TIP3    H219696   5.864   7.393   1.509
 6607TIP3   OH219697   7.770   7.344   1.645
 6607TIP3    H119698   7.684   7.383   1.668
 6607TIP3    H219699   7.740   7.273   1.585
 6608TIP3   OH219700   5.808   6.813   0.988
 6608TIP3    H119701   5.713   6.808   1.007
 6608TIP3    H219702   5.810   6.867   0.906
 6609TIP3   OH219703   6.029   6.902   1.805
 6609TIP3    H119704   5.975   6.886   1.884
 6609TIP3    H219705   5.961   6.928   1.740
 6610TIP3   OH219706   6.070   8.316   1.878
 6610TIP3    H119707   5.980   8.286   1.857
 6610TIP3    H219708   6.077   8.295   1.972
 6611TIP3   OH219709   6.246   8.347   1.427
 6611TIP3    H119710   6.196   8.420   1.386
 6611TIP3    H219711   6.331   8.361   1.382
 6612TIP3   OH219712   6.697   8.597   1.564
 6612TIP3    H119713   6.739   8.595   1.652
 6612TIP3    H219714   6.763   8.646   1.511
 6613TIP3   OH219715   6.877   8.744   1.419
 6613TIP3    H119716   6.948   8.686   1.388
 6613TIP3    H219717   6.925   8.802   1.482
 6614TIP3   OH219718   7.667   7.107   1.518
 6614TIP3    H119719   7.575   7.103   1.488
 6614TIP3    H219720   7.694   7.013   1.507
 6615TIP3   OH219721   5.926   8.606   1.446
 6615TIP3    H119722   5.838   8.640   1.420
 6615TIP3    H219723   5.929   8.633   1.538
 6616TIP3   OH219724   6.163   8.583   1.304
 6616TIP3    H119725   6.076   8.597   1.348
 6616TIP3    H219726   6.144   8.616   1.214
 6617TIP3   OH219727   6.599   8.614   1.099
 6617TIP3    H119728   6.521   8.625   1.040
 6617TIP3    H219729   6.602   8.702   1.141
 6618TIP3   OH219730   6.865   8.556   1.158
 6618TIP3    H119731   6.770   8.544   1.138
 6618TIP3    H219732   6.881   8.642   1.118
 6619TIP3   OH219733   7.077   8.762   1.062
 6619TIP3    H119734   7.024   8.831   1.021
 6619TIP3    H219735   7.092   8.701   0.988
 6620TIP3   OH219736   5.835   8.398   1.194
 6620TIP3    H119737   5.864   8.373   1.285
 6620TIP3    H219738   5.906   8.356   1.142
 6621TIP3   OH219739   6.028   8.273   1.049
 6621TIP3    H119740   6.045   8.185   1.090
 6621TIP3    H219741   6.119   8.308   1.041
 6622TIP3   OH219742   6.292   8.369   1.048
 6622TIP3    H119743   6.324   8.279   1.029
 6622TIP3    H219744   6.334   8.384   1.134
 6623TIP3   OH219745   6.878   7.019   1.140
 6623TIP3    H119746   6.827   6.952   1.191
 6623TIP3    H219747   6.946   6.964   1.098
 6624TIP3   OH219748   7.395   6.909   1.057
 6624TIP3    H119749   7.429   6.948   0.974
 6624TIP3    H219750   7.298   6.917   1.045
 6625TIP3   OH219751   7.510   6.970   0.812
 6625TIP3    H119752   7.605   6.954   0.811
 6625TIP3    H219753   7.508   7.066   0.802
 6626TIP3   OH219754   6.124   6.730   1.142
 6626TIP3    H119755   6.032   6.698   1.151
 6626TIP3    H219756   6.173   6.645   1.146
 6627TIP3   OH219757   5.916   6.598   0.804
 6627TIP3    H119758   5.940   6.656   0.729
 6627TIP3    H219759   5.880   6.663   0.868
 6628TIP3   OH219760   6.557   6.763   1.038
 6628TIP3    H119761   6.625   6.814   0.993
 6628TIP3    H219762   6.565   6.795   1.129
 6629TIP3   OH219763   7.117   6.907   1.017
 6629TIP3    H119764   7.115   6.869   0.928
 6629TIP3    H219765   7.100   6.827   1.072
 6630TIP3   OH219766   6.018   6.759   0.582
 6630TIP3    H119767   6.059   6.699   0.516
 6630TIP3    H219768   6.096   6.812   0.608
 6631TIP3   OH219769   6.516   6.922   0.717
 6631TIP3    H119770   6.587   6.884   0.771
 6631TIP3    H219771   6.536   7.017   0.727
 6632TIP3   OH219772   6.327   7.009   2.052
 6632TIP3    H119773   6.298   6.934   2.108
 6632TIP3    H219774   6.422   7.012   2.074
 6633TIP3   OH219775   6.579   7.012   2.169
 6633TIP3    H119776   6.660   6.983   2.123
 6633TIP3    H219777   6.566   6.938   2.232
 6634TIP3   OH219778   7.401   7.068   1.954
 6634TIP3    H119779   7.420   7.037   2.045
 6634TIP3    H219780   7.489   7.063   1.912
 6635TIP3   OH219781   7.340   8.620   1.448
 6635TIP3    H119782   7.260   8.586   1.403
 6635TIP3    H219783   7.321   8.716   1.446
 6636TIP3   OH219784   8.172   7.373   1.032
 6636TIP3    H119785   8.078   7.388   1.012
 6636TIP3    H219786   8.166   7.386   1.128
 6637TIP3   OH219787   8.052   8.001   1.215
 6637TIP3    H119788   8.052   8.088   1.260
 6637TIP3    H219789   7.956   7.987   1.207
 6638TIP3   OH219790   7.655   8.146   1.149
 6638TIP3    H119791   7.631   8.120   1.059
 6638TIP3    H219792   7.699   8.066   1.184
 6639TIP3   OH219793   7.877   8.313   1.137
 6639TIP3    H119794   7.917   8.286   1.222
 6639TIP3    H219795   7.793   8.264   1.135
 6640TIP3   OH219796   8.800   7.279   1.098
 6640TIP3    H119797   8.873   7.256   1.159
 6640TIP3    H219798   8.722   7.243   1.143
 6641TIP3   OH219799   8.002   7.685   1.146
 6641TIP3    H119800   8.034   7.765   1.189
 6641TIP3    H219801   8.014   7.616   1.213
 6642TIP3   OH219802   8.026   8.238   1.357
 6642TIP3    H119803   8.097   8.302   1.374
 6642TIP3    H219804   7.968   8.250   1.435
 6643TIP3   OH219805   7.778   7.944   1.282
 6643TIP3    H119806   7.811   7.934   1.374
 6643TIP3    H219807   7.714   7.871   1.277
 6644TIP3   OH219808   8.007   7.437   1.291
 6644TIP3    H119809   7.911   7.449   1.301
 6644TIP3    H219810   8.027   7.376   1.364
 6645TIP3   OH219811   7.992   7.079   0.874
 6645TIP3    H119812   7.955   7.027   0.800
 6645TIP3    H219813   7.992   7.012   0.946
 6646TIP3   OH219814   7.677   8.820   1.382
 6646TIP3    H119815   7.773   8.809   1.379
 6646TIP3    H219816   7.651   8.729   1.356
 6647TIP3   OH219817   7.828   8.243   1.547
 6647TIP3    H119818   7.846   8.147   1.550
 6647TIP3    H219819   7.740   8.245   1.504
 6648TIP3   OH219820   7.946   7.974   1.525
 6648TIP3    H119821   8.023   7.921   1.503
 6648TIP3    H219822   7.971   8.008   1.613
 6649TIP3   OH219823   8.279   7.855   1.179
 6649TIP3    H119824   8.206   7.915   1.207
 6649TIP3    H219825   8.280   7.871   1.084
 6650TIP3   OH219826   8.395   7.655   1.321
 6650TIP3    H119827   8.388   7.578   1.264
 6650TIP3    H219828   8.360   7.727   1.263
 6651TIP3   OH219829   8.278   7.769   1.543
 6651TIP3    H119830   8.211   7.700   1.557
 6651TIP3    H219831   8.317   7.741   1.458
 6652TIP3   OH219832   8.536   7.198   1.181
 6652TIP3    H119833   8.489   7.281   1.193
 6652TIP3    H219834   8.463   7.133   1.169
 6653TIP3   OH219835   8.644   7.740   1.426
 6653TIP3    H119836   8.635   7.706   1.516
 6653TIP3    H219837   8.558   7.712   1.388
 6654TIP3   OH219838   8.125   7.545   1.594
 6654TIP3    H119839   8.133   7.454   1.560
 6654TIP3    H219840   8.160   7.534   1.685
 6655TIP3   OH219841   8.635   7.209   1.438
 6655TIP3    H119842   8.709   7.145   1.442
 6655TIP3    H219843   8.605   7.195   1.347
 6656TIP3   OH219844   8.692   7.419   1.607
 6656TIP3    H119845   8.676   7.353   1.537
 6656TIP3    H219846   8.616   7.480   1.597
 6657TIP3   OH219847   7.858   7.595   1.563
 6657TIP3    H119848   7.955   7.590   1.567
 6657TIP3    H219849   7.833   7.512   1.608
 6658TIP3   OH219850   7.867   7.319   0.946
 6658TIP3    H119851   7.916   7.233   0.943
 6658TIP3    H219852   7.895   7.361   0.864
 6659TIP3   OH219853   7.640   7.571   0.949
 6659TIP3    H119854   7.715   7.509   0.953
 6659TIP3    H219855   7.674   7.644   1.004
 6660TIP3   OH219856   7.828   7.141   1.286
 6660TIP3    H119857   7.778   7.135   1.370
 6660TIP3    H219858   7.760   7.182   1.229
 6661TIP3   OH219859   7.853   8.583   1.414
 6661TIP3    H119860   7.788   8.551   1.349
 6661TIP3    H219861   7.834   8.527   1.491
 6662TIP3   OH219862   8.126   7.267   1.531
 6662TIP3    H119863   8.090   7.198   1.590
 6662TIP3    H219864   8.220   7.268   1.561
 6663TIP3   OH219865   8.372   7.262   1.651
 6663TIP3    H119866   8.461   7.238   1.618
 6663TIP3    H219867   8.359   7.194   1.720
 6664TIP3   OH219868   9.140   7.300   1.462
 6664TIP3    H119869   9.193   7.303   1.544
 6664TIP3    H219870   9.204   7.334   1.396
 6665TIP3   OH219871   0.353   7.991   3.536
 6665TIP3    H119872   0.407   7.924   3.488
 6665TIP3    H219873   0.320   8.045   3.462
 6666TIP3   OH219874   0.222   8.129   3.334
 6666TIP3    H119875   0.133   8.160   3.356
 6666TIP3    H219876   0.202   8.052   3.278
 6667TIP3   OH219877   0.124   7.901   3.198
 6667TIP3    H119878   0.028   7.891   3.194
 6667TIP3    H219879   0.153   7.808   3.197
 6668TIP3   OH219880   1.868   8.325   2.328
 6668TIP3    H119881   1.898   8.406   2.373
 6668TIP3    H219882   1.891   8.344   2.235
 6669TIP3   OH219883   1.277   8.509   2.362
 6669TIP3    H119884   1.316   8.421   2.379
 6669TIP3    H219885   1.237   8.494   2.274
 6670TIP3   OH219886   1.299   8.252   1.953
 6670TIP3    H119887   1.370   8.238   2.021
 6670TIP3    H219888   1.355   8.286   1.880
 6671TIP3   OH219889   1.950   8.524   2.503
 6671TIP3    H119890   1.872   8.577   2.476
 6671TIP3    H219891   1.971   8.566   2.589
 6672TIP3   OH219892   0.607   8.145   2.768
 6672TIP3    H119893   0.553   8.182   2.694
 6672TIP3    H219894   0.551   8.167   2.845
 6673TIP3   OH219895   1.510   8.257   2.123
 6673TIP3    H119896   1.506   8.210   2.207
 6673TIP3    H219897   1.563   8.335   2.146
 6674TIP3   OH219898   0.485   8.247   2.548
 6674TIP3    H119899   0.524   8.336   2.564
 6674TIP3    H219900   0.492   8.245   2.451
 6675TIP3   OH219901   1.662   8.225   2.495
 6675TIP3    H119902   1.575   8.257   2.466
 6675TIP3    H219903   1.721   8.258   2.424
 6676TIP3   OH219904   0.961   7.874   2.476
 6676TIP3    H119905   0.949   7.779   2.491
 6676TIP3    H219906   0.884   7.910   2.524
 6677TIP3   OH219907   1.495   8.740   2.601
 6677TIP3    H119908   1.497   8.834   2.579
 6677TIP3    H219909   1.400   8.721   2.577
 6678TIP3   OH219910   1.599   7.817   1.579
 6678TIP3    H119911   1.514   7.836   1.624
 6678TIP3    H219912   1.611   7.899   1.526
 6679TIP3   OH219913   1.715   8.713   2.793
 6679TIP3    H119914   1.643   8.705   2.729
 6679TIP3    H219915   1.746   8.621   2.799
 6680TIP3   OH219916   0.723   7.948   2.605
 6680TIP3    H119917   0.633   7.919   2.580
 6680TIP3    H219918   0.700   8.031   2.652
 6681TIP3   OH219919   1.255   8.062   2.798
 6681TIP3    H119920   1.322   8.037   2.865
 6681TIP3    H219921   1.171   8.042   2.844
 6682TIP3   OH219922   1.497   8.476   2.720
 6682TIP3    H119923   1.449   8.475   2.806
 6682TIP3    H219924   1.471   8.562   2.682
 6683TIP3   OH219925   0.646   8.468   2.592
 6683TIP3    H119926   0.617   8.489   2.683
 6683TIP3    H219927   0.627   8.550   2.544
 6684TIP3   OH219928   1.208   8.705   2.948
 6684TIP3    H119929   1.191   8.626   3.004
 6684TIP3    H219930   1.301   8.722   2.970
 6685TIP3   OH219931   1.191   8.455   2.106
 6685TIP3    H119932   1.098   8.464   2.076
 6685TIP3    H219933   1.215   8.367   2.070
 6686TIP3   OH219934   0.425   8.485   2.853
 6686TIP3    H119935   0.495   8.532   2.899
 6686TIP3    H219936   0.438   8.394   2.884
 6687TIP3   OH219937   1.233   8.697   2.543
 6687TIP3    H119938   1.239   8.625   2.476
 6687TIP3    H219939   1.162   8.662   2.601
 6688TIP3   OH219940   0.902   8.160   2.206
 6688TIP3    H119941   0.804   8.161   2.200
 6688TIP3    H219942   0.919   8.184   2.298
 6689TIP3   OH219943   1.355   8.245   2.404
 6689TIP3    H119944   1.319   8.258   2.494
 6689TIP3    H219945   1.292   8.178   2.371
 6690TIP3   OH219946   0.961   8.503   2.283
 6690TIP3    H119947   1.011   8.423   2.263
 6690TIP3    H219948   0.953   8.498   2.379
 6691TIP3   OH219949   0.919   8.381   2.595
 6691TIP3    H119950   0.834   8.428   2.584
 6691TIP3    H219951   0.978   8.448   2.635
 6692TIP3   OH219952   0.922   8.770   3.062
 6692TIP3    H119953   0.901   8.856   3.021
 6692TIP3    H219954   0.991   8.734   3.004
 6693TIP3   OH219955   0.452   8.226   2.985
 6693TIP3    H119956   0.370   8.259   3.025
 6693TIP3    H219957   0.485   8.167   3.056
 6694TIP3   OH219958   1.276   8.303   2.663
 6694TIP3    H119959   1.361   8.336   2.698
 6694TIP3    H219960   1.264   8.219   2.713
 6695TIP3   OH219961   1.151   8.065   1.806
 6695TIP3    H119962   1.142   8.100   1.716
 6695TIP3    H219963   1.202   8.136   1.851
 6696TIP3   OH219964   1.105   8.540   2.734
 6696TIP3    H119965   1.141   8.596   2.805
 6696TIP3    H219966   1.166   8.463   2.734
 6697TIP3   OH219967   1.016   7.965   2.044
 6697TIP3    H119968   0.981   8.043   2.093
 6697TIP3    H219969   1.055   8.007   1.965
 6698TIP3   OH219970   1.766   8.448   2.720
 6698TIP3    H119971   1.668   8.440   2.724
 6698TIP3    H219972   1.782   8.417   2.630
 6699TIP3   OH219973   1.411   8.631   2.088
 6699TIP3    H119974   1.338   8.574   2.118
 6699TIP3    H219975   1.485   8.598   2.142
 6700TIP3   OH219976   0.462   7.861   2.581
 6700TIP3    H119977   0.422   7.819   2.504
 6700TIP3    H219978   0.457   7.789   2.647
 6701TIP3   OH219979   0.421   8.754   3.191
 6701TIP3    H119980   0.460   8.670   3.217
 6701TIP3    H219981   0.426   8.808   3.273
 6702TIP3   OH219982   0.704   8.555   2.847
 6702TIP3    H119983   0.683   8.645   2.883
 6702TIP3    H219984   0.752   8.581   2.766
 6703TIP3   OH219985   0.867   8.420   3.015
 6703TIP3    H119986   0.876   8.336   2.967
 6703TIP3    H219987   0.808   8.469   2.953
 6704TIP3   OH219988   0.865   8.219   2.813
 6704TIP3    H119989   0.890   8.267   2.731
 6704TIP3    H219990   0.770   8.199   2.796
 6705TIP3   OH219991   1.484   8.738   3.057
 6705TIP3    H119992   1.506   8.647   3.083
 6705TIP3    H219993   1.572   8.773   3.037
 6706TIP3   OH219994   0.721   8.560   3.224
 6706TIP3    H119995   0.664   8.482   3.239
 6706TIP3    H219996   0.772   8.532   3.146
 6707TIP3   OH219997   0.997   7.987   2.875
 6707TIP3    H119998   0.949   8.071   2.853
 6707TIP3    H219999   0.925   7.922   2.863
 6708TIP3   OH220000   1.122   8.497   3.096
 6708TIP3    H120001   1.114   8.489   3.193
 6708TIP3    H220002   1.031   8.468   3.071
 6709TIP3   OH220003   1.363   8.439   2.952
 6709TIP3    H120004   1.286   8.436   3.012
 6709TIP3    H220005   1.436   8.407   3.009
 6710TIP3   OH220006   1.591   8.383   3.103
 6710TIP3    H120007   1.603   8.288   3.124
 6710TIP3    H220008   1.587   8.425   3.192
 6711TIP3   OH220009   0.581   8.332   3.285
 6711TIP3    H120010   0.591   8.241   3.250
 6711TIP3    H220011   0.616   8.320   3.376
 6712TIP3   OH220012   1.090   7.999   3.132
 6712TIP3    H120013   1.158   7.929   3.128
 6712TIP3    H220014   1.051   7.992   3.043
 6713TIP3   OH220015   1.155   8.214   3.292
 6713TIP3    H120016   1.132   8.144   3.228
 6713TIP3    H220017   1.077   8.274   3.287
 6714TIP3   OH220018   1.468   8.618   1.824
 6714TIP3    H120019   1.489   8.523   1.822
 6714TIP3    H220020   1.456   8.635   1.920
 6715TIP3   OH220021   1.916   8.874   2.701
 6715TIP3    H120022   1.858   8.808   2.743
 6715TIP3    H220023   2.004   8.835   2.714
 6716TIP3   OH220024   1.461   8.339   1.751
 6716TIP3    H120025   1.505   8.251   1.761
 6716TIP3    H220026   1.469   8.345   1.654
 6717TIP3   OH220027   1.625   8.511   2.218
 6717TIP3    H120028   1.709   8.541   2.176
 6717TIP3    H220029   1.641   8.546   2.308
 6718TIP3   OH220030   1.705   8.645   2.446
 6718TIP3    H120031   1.625   8.674   2.495
 6718TIP3    H220032   1.750   8.731   2.428
 6719TIP3   OH220033   0.316   8.388   3.260
 6719TIP3    H120034   0.413   8.378   3.264
 6719TIP3    H220035   0.287   8.302   3.296
 6720TIP3   OH220036   2.144   8.244   3.015
 6720TIP3    H120037   2.203   8.180   2.970
 6720TIP3    H220038   2.118   8.303   2.941
 6721TIP3   OH220039   1.572   8.087   1.774
 6721TIP3    H120040   1.620   8.070   1.858
 6721TIP3    H220041   1.513   8.010   1.770
 6722TIP3   OH220042   0.277   8.072   2.579
 6722TIP3    H120043   0.342   8.003   2.602
 6722TIP3    H220044   0.334   8.151   2.579
 6723TIP3   OH220045   2.019   8.388   2.824
 6723TIP3    H120046   1.930   8.427   2.839
 6723TIP3    H220047   1.994   8.318   2.761
 6724TIP3   OH220048   1.674   8.018   1.399
 6724TIP3    H120049   1.710   7.950   1.338
 6724TIP3    H220050   1.734   8.094   1.383
 6725TIP3   OH220051   0.282   7.930   2.972
 6725TIP3    H120052   0.230   7.926   3.054
 6725TIP3    H220053   0.223   7.977   2.912
 6726TIP3   OH220054   1.915   8.152   2.697
 6726TIP3    H120055   1.824   8.150   2.662
 6726TIP3    H220056   1.943   8.059   2.683
 6727TIP3   OH220057   1.149   8.063   2.344
 6727TIP3    H120058   1.081   8.001   2.375
 6727TIP3    H220059   1.179   8.021   2.263
 6728TIP3   OH220060   1.649   7.944   2.225
 6728TIP3    H120061   1.685   7.997   2.150
 6728TIP3    H220062   1.553   7.960   2.216
 6729TIP3   OH220063   1.742   8.046   1.989
 6729TIP3    H120064   1.814   7.997   1.944
 6729TIP3    H220065   1.772   8.138   1.972
 6730TIP3   OH220066   0.812   7.800   2.215
 6730TIP3    H120067   0.857   7.855   2.149
 6730TIP3    H220068   0.835   7.847   2.297
 6731TIP3   OH220069   1.376   7.947   2.192
 6731TIP3    H120070   1.348   7.921   2.104
 6731TIP3    H220071   1.346   7.871   2.247
 6732TIP3   OH220072   1.391   7.876   1.762
 6732TIP3    H120073   1.301   7.914   1.761
 6732TIP3    H220074   1.374   7.789   1.805
 6733TIP3   OH220075   0.577   8.052   3.220
 6733TIP3    H120076   0.543   7.986   3.282
 6733TIP3    H220077   0.671   8.055   3.247
 6734TIP3   OH220078   0.823   8.051   3.341
 6734TIP3    H120079   0.910   8.029   3.304
 6734TIP3    H220080   0.813   7.982   3.409
 6735TIP3   OH220081   1.649   8.111   3.131
 6735TIP3    H120082   1.669   8.082   3.222
 6735TIP3    H220083   1.737   8.109   3.089
 6736TIP3   OH220084   1.830   8.558   1.653
 6736TIP3    H120085   1.782   8.639   1.673
 6736TIP3    H220086   1.758   8.494   1.642
 6737TIP3   OH220087   3.848   8.613   1.536
 6737TIP3    H120088   3.917   8.593   1.473
 6737TIP3    H220089   3.790   8.534   1.500
 6738TIP3   OH220090   2.998   8.713   1.856
 6738TIP3    H120091   3.060   8.639   1.874
 6738TIP3    H220092   2.999   8.713   1.758
 6739TIP3   OH220093   2.403   8.423   1.816
 6739TIP3    H120094   2.384   8.498   1.756
 6739TIP3    H220095   2.353   8.352   1.770
 6740TIP3   OH220096   3.096   8.510   1.440
 6740TIP3    H120097   3.170   8.495   1.504
 6740TIP3    H220098   3.145   8.549   1.366
 6741TIP3   OH220099   2.032   8.619   1.933
 6741TIP3    H120100   2.118   8.593   1.972
 6741TIP3    H220101   2.040   8.579   1.844
 6742TIP3   OH220102   2.468   8.833   1.712
 6742TIP3    H120103   2.559   8.803   1.729
 6742TIP3    H220104   2.426   8.752   1.675
 6743TIP3   OH220105   3.765   8.807   1.991
 6743TIP3    H120106   3.714   8.879   1.949
 6743TIP3    H220107   3.730   8.809   2.082
 6744TIP3   OH220108   2.400   8.407   2.250
 6744TIP3    H120109   2.339   8.441   2.182
 6744TIP3    H220110   2.348   8.426   2.331
 6745TIP3   OH220111   3.309   8.512   1.606
 6745TIP3    H120112   3.303   8.468   1.692
 6745TIP3    H220113   3.363   8.591   1.626
 6746TIP3   OH220114   2.268   8.516   2.034
 6746TIP3    H120115   2.325   8.594   2.052
 6746TIP3    H220116   2.318   8.476   1.960
 6747TIP3   OH220117   3.466   8.484   1.979
 6747TIP3    H120118   3.373   8.508   1.956
 6747TIP3    H220119   3.514   8.517   1.900
 6748TIP3   OH220120   2.760   8.129   1.963
 6748TIP3    H120121   2.746   8.034   1.979
 6748TIP3    H220122   2.681   8.167   2.009
 6749TIP3   OH220123   2.641   8.678   0.992
 6749TIP3    H120124   2.732   8.708   0.999
 6749TIP3    H220125   2.640   8.633   0.905
 6750TIP3   OH220126   3.344   8.981   2.137
 6750TIP3    H120127   3.282   8.994   2.212
 6750TIP3    H220128   3.302   9.043   2.075
 6751TIP3   OH220129   3.391   8.073   1.065
 6751TIP3    H120130   3.309   8.091   1.116
 6751TIP3    H220131   3.402   8.156   1.015
 6752TIP3   OH220132   3.553   8.978   2.307
 6752TIP3    H120133   3.483   8.988   2.240
 6752TIP3    H220134   3.573   8.883   2.295
 6753TIP3   OH220135   2.519   8.202   2.091
 6753TIP3    H120136   2.428   8.173   2.068
 6753TIP3    H220137   2.498   8.288   2.133
 6754TIP3   OH220138   3.047   8.318   2.285
 6754TIP3    H120139   3.116   8.292   2.349
 6754TIP3    H220140   2.964   8.296   2.332
 6755TIP3   OH220141   3.351   8.609   2.269
 6755TIP3    H120142   3.297   8.639   2.345
 6755TIP3    H220143   3.308   8.653   2.194
 6756TIP3   OH220144   2.664   8.253   1.061
 6756TIP3    H120145   2.634   8.254   1.154
 6756TIP3    H220146   2.627   8.167   1.032
 6757TIP3   OH220147   2.436   8.723   2.081
 6757TIP3    H120148   2.432   8.739   2.178
 6757TIP3    H220149   2.446   8.812   2.045
 6758TIP3   OH220150   2.332   8.604   1.628
 6758TIP3    H120151   2.240   8.575   1.641
 6758TIP3    H220152   2.351   8.564   1.540
 6759TIP3   OH220153   2.833   8.693   1.350
 6759TIP3    H120154   2.752   8.742   1.324
 6759TIP3    H220155   2.875   8.675   1.264
 6760TIP3   OH220156   2.964   8.960   2.511
 6760TIP3    H120157   2.971   8.865   2.534
 6760TIP3    H220158   3.035   8.973   2.444
 6761TIP3   OH220159   2.974   8.712   1.585
 6761TIP3    H120160   2.915   8.730   1.509
 6761TIP3    H220161   3.017   8.631   1.548
 6762TIP3   OH220162   2.213   8.749   2.343
 6762TIP3    H120163   2.293   8.782   2.386
 6762TIP3    H220164   2.217   8.656   2.368
 6763TIP3   OH220165   2.310   8.222   1.020
 6763TIP3    H120166   2.313   8.225   1.118
 6763TIP3    H220167   2.214   8.213   1.005
 6764TIP3   OH220168   1.860   8.272   1.900
 6764TIP3    H120169   1.937   8.302   1.953
 6764TIP3    H220170   1.899   8.238   1.818
 6765TIP3   OH220171   1.835   8.271   1.423
 6765TIP3    H120172   1.877   8.296   1.340
 6765TIP3    H220173   1.758   8.332   1.415
 6766TIP3   OH220174   3.011   8.955   1.977
 6766TIP3    H120175   3.003   8.862   1.945
 6766TIP3    H220176   2.971   8.948   2.065
 6767TIP3   OH220177   2.660   8.422   1.687
 6767TIP3    H120178   2.576   8.425   1.738
 6767TIP3    H220179   2.725   8.441   1.757
 6768TIP3   OH220180   2.093   8.485   1.693
 6768TIP3    H120181   1.998   8.490   1.667
 6768TIP3    H220182   2.117   8.393   1.671
 6769TIP3   OH220183   2.382   8.472   1.396
 6769TIP3    H120184   2.473   8.497   1.373
 6769TIP3    H220185   2.330   8.506   1.319
 6770TIP3   OH220186   3.163   8.487   1.892
 6770TIP3    H120187   3.130   8.501   1.984
 6770TIP3    H220188   3.096   8.427   1.856
 6771TIP3   OH220189   2.230   8.517   1.182
 6771TIP3    H120190   2.170   8.456   1.140
 6771TIP3    H220191   2.272   8.560   1.105
 6772TIP3   OH220192   2.723   8.754   1.766
 6772TIP3    H120193   2.806   8.721   1.730
 6772TIP3    H220194   2.747   8.768   1.858
 6773TIP3   OH220195   2.268   8.245   1.660
 6773TIP3    H120196   2.237   8.162   1.703
 6773TIP3    H220197   2.323   8.211   1.588
 6774TIP3   OH220198   2.715   8.635   2.096
 6774TIP3    H120199   2.635   8.685   2.071
 6774TIP3    H220200   2.777   8.704   2.126
 6775TIP3   OH220201   2.915   8.363   1.032
 6775TIP3    H120202   2.818   8.345   1.037
 6775TIP3    H220203   2.921   8.459   1.048
 6776TIP3   OH220204   2.985   8.621   1.119
 6776TIP3    H120205   3.077   8.608   1.150
 6776TIP3    H220206   2.993   8.701   1.065
 6777TIP3   OH220207   2.695   9.011   2.515
 6777TIP3    H120208   2.704   9.107   2.528
 6777TIP3    H220209   2.788   8.982   2.508
 6778TIP3   OH220210   3.430   8.687   0.974
 6778TIP3    H120211   3.367   8.641   0.914
 6778TIP3    H220212   3.426   8.775   0.934
 6779TIP3   OH220213   2.242   8.485   2.465
 6779TIP3    H120214   2.147   8.495   2.485
 6779TIP3    H220215   2.271   8.429   2.540
 6780TIP3   OH220216   3.086   8.555   2.155
 6780TIP3    H120217   3.148   8.569   2.228
 6780TIP3    H220218   3.046   8.471   2.185
 6781TIP3   OH220219   2.958   8.306   1.308
 6781TIP3    H120220   2.943   8.332   1.215
 6781TIP3    H220221   2.997   8.387   1.346
 6782TIP3   OH220222   2.661   8.482   1.414
 6782TIP3    H120223   2.726   8.553   1.398
 6782TIP3    H220224   2.659   8.477   1.512
 6783TIP3   OH220225   2.901   8.801   2.225
 6783TIP3    H120226   2.930   8.863   2.292
 6783TIP3    H220227   2.968   8.731   2.229
 6784TIP3   OH220228   2.795   8.215   1.519
 6784TIP3    H120229   2.782   8.292   1.577
 6784TIP3    H220230   2.853   8.253   1.450
 6785TIP3   OH220231   2.305   8.214   1.302
 6785TIP3    H120232   2.308   8.303   1.341
 6785TIP3    H220233   2.400   8.190   1.311
 6786TIP3   OH220234   3.578   8.724   2.187
 6786TIP3    H120235   3.510   8.669   2.233
 6786TIP3    H220236   3.570   8.686   2.099
 6787TIP3   OH220237   3.199   8.883   1.570
 6787TIP3    H120238   3.128   8.826   1.605
 6787TIP3    H220239   3.277   8.854   1.620
 6788TIP3   OH220240   2.254   8.123   2.069
 6788TIP3    H120241   2.222   8.092   1.982
 6788TIP3    H220242   2.242   8.044   2.125
 6789TIP3   OH220243   2.212   8.995   2.719
 6789TIP3    H120244   2.299   8.966   2.687
 6789TIP3    H220245   2.244   9.079   2.758
 6790TIP3   OH220246   2.496   8.804   2.336
 6790TIP3    H120247   2.470   8.882   2.389
 6790TIP3    H220248   2.555   8.853   2.275
 6791TIP3   OH220249   2.366   8.613   0.969
 6791TIP3    H120250   2.363   8.628   0.873
 6791TIP3    H220251   2.457   8.640   0.990
 6792TIP3   OH220252   2.666   8.672   2.498
 6792TIP3    H120253   2.669   8.589   2.448
 6792TIP3    H220254   2.609   8.725   2.439
 6793TIP3   OH220255   2.658   8.471   2.304
 6793TIP3    H120256   2.685   8.522   2.224
 6793TIP3    H220257   2.564   8.453   2.283
 6794TIP3   OH220258   3.324   8.994   2.588
 6794TIP3    H120259   3.318   8.901   2.564
 6794TIP3    H220260   3.357   9.032   2.506
 6795TIP3   OH220261   2.521   8.806   2.710
 6795TIP3    H120262   2.459   8.732   2.722
 6795TIP3    H220263   2.572   8.779   2.632
 6796TIP3   OH220264   2.792   8.242   2.363
 6796TIP3    H120265   2.744   8.326   2.341
 6796TIP3    H220266   2.722   8.176   2.351
 6797TIP3   OH220267   2.921   8.708   2.587
 6797TIP3    H120268   2.900   8.713   2.682
 6797TIP3    H220269   2.830   8.693   2.553
 6798TIP3   OH220270   3.156   8.691   2.443
 6798TIP3    H120271   3.072   8.684   2.493
 6798TIP3    H220272   3.222   8.671   2.513
 6799TIP3   OH220273   3.387   8.644   2.597
 6799TIP3    H120274   3.394   8.547   2.612
 6799TIP3    H220275   3.386   8.680   2.687
 6800TIP3   OH220276   2.366   8.587   2.772
 6800TIP3    H120277   2.380   8.497   2.736
 6800TIP3    H220278   2.404   8.578   2.862
 6801TIP3   OH220279   2.887   8.256   2.620
 6801TIP3    H120280   2.954   8.185   2.614
 6801TIP3    H220281   2.846   8.249   2.531
 6802TIP3   OH220282   2.950   8.470   2.782
 6802TIP3    H120283   2.929   8.401   2.716
 6802TIP3    H220284   2.872   8.529   2.776
 6803TIP3   OH220285   3.261   8.609   0.776
 6803TIP3    H120286   3.222   8.627   0.689
 6803TIP3    H220287   3.236   8.514   0.783
 6804TIP3   OH220288   3.296   8.858   1.320
 6804TIP3    H120289   3.288   8.763   1.332
 6804TIP3    H220290   3.272   8.889   1.411
 6805TIP3   OH220291   3.749   9.137   2.207
 6805TIP3    H120292   3.671   9.090   2.245
 6805TIP3    H220293   3.814   9.064   2.210
 6806TIP3   OH220294   3.200   8.346   0.781
 6806TIP3    H120295   3.279   8.306   0.821
 6806TIP3    H220296   3.131   8.278   0.791
 6807TIP3   OH220297   3.252   8.586   1.218
 6807TIP3    H120298   3.294   8.498   1.231
 6807TIP3    H220299   3.312   8.624   1.152
 6808TIP3   OH220300   3.429   8.754   1.672
 6808TIP3    H120301   3.516   8.794   1.657
 6808TIP3    H220302   3.423   8.757   1.771
 6809TIP3   OH220303   3.390   8.811   1.933
 6809TIP3    H120304   3.368   8.838   2.024
 6809TIP3    H220305   3.395   8.897   1.892
 6810TIP3   OH220306   2.095   8.643   2.740
 6810TIP3    H120307   2.193   8.644   2.741
 6810TIP3    H220308   2.078   8.560   2.788
 6811TIP3   OH220309   3.973   8.518   2.500
 6811TIP3    H120310   3.999   8.440   2.465
 6811TIP3    H220311   3.915   8.557   2.430
 6812TIP3   OH220312   3.368   8.341   1.255
 6812TIP3    H120313   3.414   8.323   1.339
 6812TIP3    H220314   3.306   8.265   1.251
 6813TIP3   OH220315   2.066   8.328   2.079
 6813TIP3    H120316   2.131   8.256   2.087
 6813TIP3    H220317   2.126   8.404   2.069
 6814TIP3   OH220318   1.867   8.618   2.150
 6814TIP3    H120319   1.915   8.603   2.065
 6814TIP3    H220320   1.921   8.686   2.190
 6815TIP3   OH220321   3.823   8.647   2.309
 6815TIP3    H120322   3.734   8.685   2.333
 6815TIP3    H220323   3.796   8.575   2.253
 6816TIP3   OH220324   3.453   8.281   0.886
 6816TIP3    H120325   3.490   8.206   0.834
 6816TIP3    H220326   3.522   8.349   0.874
 6817TIP3   OH220327   1.851   8.116   1.645
 6817TIP3    H120328   1.757   8.111   1.669
 6817TIP3    H220329   1.848   8.176   1.568
 6818TIP3   OH220330   2.073   8.184   2.461
 6818TIP3    H120331   2.024   8.186   2.546
 6818TIP3    H220332   2.008   8.227   2.402
 6819TIP3   OH220333   3.693   8.419   2.185
 6819TIP3    H120334   3.624   8.417   2.109
 6819TIP3    H220335   3.737   8.338   2.175
 6820TIP3   OH220336   2.924   8.322   1.806
 6820TIP3    H120337   2.872   8.255   1.854
 6820TIP3    H220338   2.988   8.269   1.756
 6821TIP3   OH220339   3.440   8.204   1.716
 6821TIP3    H120340   3.478   8.254   1.641
 6821TIP3    H220341   3.344   8.221   1.705
 6822TIP3   OH220342   3.531   8.297   1.473
 6822TIP3    H120343   3.607   8.247   1.434
 6822TIP3    H220344   3.562   8.389   1.458
 6823TIP3   OH220345   2.166   8.032   1.821
 6823TIP3    H120346   2.074   7.999   1.818
 6823TIP3    H220347   2.215   7.947   1.816
 6824TIP3   OH220348   1.957   7.895   1.469
 6824TIP3    H120349   1.987   7.954   1.396
 6824TIP3    H220350   1.917   7.960   1.530
 6825TIP3   OH220351   2.608   8.063   1.699
 6825TIP3    H120352   2.666   8.115   1.642
 6825TIP3    H220353   2.625   8.103   1.785
 6826TIP3   OH220354   3.160   8.208   1.682
 6826TIP3    H120355   3.152   8.174   1.592
 6826TIP3    H220356   3.144   8.126   1.736
 6827TIP3   OH220357   3.184   8.131   1.244
 6827TIP3    H120358   3.097   8.173   1.255
 6827TIP3    H220359   3.170   8.046   1.292
 6828TIP3   OH220360   2.068   8.059   1.246
 6828TIP3    H120361   2.112   7.999   1.183
 6828TIP3    H220362   2.144   8.111   1.280
 6829TIP3   OH220363   2.583   8.233   1.329
 6829TIP3    H120364   2.643   8.189   1.391
 6829TIP3    H220365   2.601   8.326   1.353
 6830TIP3   OH220366   2.373   8.307   2.707
 6830TIP3    H120367   2.340   8.240   2.769
 6830TIP3    H220368   2.467   8.312   2.734
 6831TIP3   OH220369   2.620   8.308   2.828
 6831TIP3    H120370   2.706   8.286   2.789
 6831TIP3    H220371   2.610   8.238   2.895
 6832TIP3   OH220372   3.435   8.372   2.627
 6832TIP3    H120373   3.452   8.340   2.715
 6832TIP3    H220374   3.528   8.359   2.586
 6833TIP3   OH220375   3.620   8.807   1.150
 6833TIP3    H120376   3.576   8.890   1.173
 6833TIP3    H220377   3.548   8.757   1.109
 6834TIP3   OH220378   5.459   8.840   1.301
 6834TIP3    H120379   5.490   8.921   1.346
 6834TIP3    H220380   5.483   8.860   1.209
 6835TIP3   OH220381   4.856   9.021   1.334
 6835TIP3    H120382   4.902   8.938   1.356
 6835TIP3    H220383   4.824   9.002   1.244
 6836TIP3   OH220384   4.204   8.685   1.292
 6836TIP3    H120385   4.182   8.758   1.229
 6836TIP3    H220386   4.155   8.611   1.249
 6837TIP3   OH220387   4.891   8.772   0.926
 6837TIP3    H120388   4.965   8.754   0.989
 6837TIP3    H220389   4.943   8.809   0.852
 6838TIP3   OH220390   3.840   8.888   1.420
 6838TIP3    H120391   3.921   8.846   1.459
 6838TIP3    H220392   3.844   8.858   1.330
 6839TIP3   OH220393   4.277   9.089   1.230
 6839TIP3    H120394   4.365   9.045   1.240
 6839TIP3    H220395   4.227   9.017   1.184
 6840TIP3   OH220396   5.544   9.039   1.475
 6840TIP3    H120397   5.466   9.091   1.444
 6840TIP3    H220398   5.552   9.073   1.565
 6841TIP3   OH220399   4.197   8.660   1.746
 6841TIP3    H120400   4.137   8.692   1.675
 6841TIP3    H220401   4.143   8.681   1.824
 6842TIP3   OH220402   5.101   8.775   1.097
 6842TIP3    H120403   5.109   8.716   1.172
 6842TIP3    H220404   5.158   8.850   1.122
 6843TIP3   OH220405   4.090   8.786   1.516
 6843TIP3    H120406   4.152   8.858   1.530
 6843TIP3    H220407   4.137   8.733   1.447
 6844TIP3   OH220408   5.255   8.742   1.470
 6844TIP3    H120409   5.167   8.770   1.438
 6844TIP3    H220410   5.314   8.772   1.397
 6845TIP3   OH220411   4.557   8.386   1.448
 6845TIP3    H120412   4.544   8.290   1.464
 6845TIP3    H220413   4.478   8.422   1.494
 6846TIP3   OH220414   5.085   9.254   1.581
 6846TIP3    H120415   5.098   9.345   1.552
 6846TIP3    H220416   4.991   9.238   1.552
 6847TIP3   OH220417   5.187   8.339   0.561
 6847TIP3    H120418   5.102   8.333   0.610
 6847TIP3    H220419   5.178   8.427   0.523
 6848TIP3   OH220420   5.318   9.235   1.752
 6848TIP3    H120421   5.236   9.220   1.703
 6848TIP3    H220422   5.347   9.142   1.767
 6849TIP3   OH220423   4.324   8.465   1.577
 6849TIP3    H120424   4.238   8.420   1.554
 6849TIP3    H220425   4.289   8.545   1.621
 6850TIP3   OH220426   4.847   8.578   1.772
 6850TIP3    H120427   4.916   8.549   1.836
 6850TIP3    H220428   4.764   8.555   1.818
 6851TIP3   OH220429   5.089   8.990   1.694
 6851TIP3    H120430   5.041   8.988   1.780
 6851TIP3    H220431   5.068   9.077   1.658
 6852TIP3   OH220432   4.477   8.498   0.547
 6852TIP3    H120433   4.439   8.507   0.636
 6852TIP3    H220434   4.434   8.417   0.516
 6853TIP3   OH220435   4.249   9.010   1.578
 6853TIP3    H120436   4.221   9.000   1.670
 6853TIP3    H220437   4.183   9.071   1.544
 6854TIP3   OH220438   4.138   8.877   1.106
 6854TIP3    H120439   4.043   8.851   1.113
 6854TIP3    H220440   4.158   8.835   1.019
 6855TIP3   OH220441   4.629   8.956   0.836
 6855TIP3    H120442   4.546   9.001   0.810
 6855TIP3    H220443   4.672   8.944   0.750
 6856TIP3   OH220444   4.801   9.218   1.924
 6856TIP3    H120445   4.779   9.140   1.980
 6856TIP3    H220446   4.899   9.221   1.938
 6857TIP3   OH220447   4.767   8.967   1.077
 6857TIP3    H120448   4.713   8.982   0.997
 6857TIP3    H220449   4.813   8.887   1.044
 6858TIP3   OH220450   4.026   8.993   1.800
 6858TIP3    H120451   4.075   9.041   1.868
 6858TIP3    H220452   4.016   8.906   1.841
 6859TIP3   OH220453   4.107   8.487   0.517
 6859TIP3    H120454   4.124   8.480   0.613
 6859TIP3    H220455   4.012   8.503   0.517
 6860TIP3   OH220456   3.643   8.533   1.377
 6860TIP3    H120457   3.629   8.625   1.362
 6860TIP3    H220458   3.662   8.497   1.287
 6861TIP3   OH220459   3.636   8.508   0.905
 6861TIP3    H120460   3.685   8.546   0.828
 6861TIP3    H220461   3.576   8.581   0.926
 6862TIP3   OH220462   4.825   9.213   1.519
 6862TIP3    H120463   4.829   9.143   1.450
 6862TIP3    H220464   4.761   9.171   1.581
 6863TIP3   OH220465   4.461   8.691   1.172
 6863TIP3    H120466   4.378   8.684   1.223
 6863TIP3    H220467   4.528   8.682   1.241
 6864TIP3   OH220468   3.891   8.759   1.140
 6864TIP3    H120469   3.796   8.758   1.123
 6864TIP3    H220470   3.917   8.666   1.119
 6865TIP3   OH220471   4.164   8.741   0.870
 6865TIP3    H120472   4.259   8.750   0.846
 6865TIP3    H220473   4.117   8.763   0.787
 6866TIP3   OH220474   4.947   8.763   1.379
 6866TIP3    H120475   4.907   8.770   1.468
 6866TIP3    H220476   4.889   8.697   1.337
 6867TIP3   OH220477   4.000   8.758   0.644
 6867TIP3    H120478   3.917   8.725   0.609
 6867TIP3    H220479   4.042   8.793   0.564
 6868TIP3   OH220480   4.535   9.004   1.270
 6868TIP3    H120481   4.609   8.977   1.213
 6868TIP3    H220482   4.559   8.966   1.355
 6869TIP3   OH220483   4.066   8.503   1.143
 6869TIP3    H120484   4.036   8.424   1.191
 6869TIP3    H220485   4.120   8.465   1.073
 6870TIP3   OH220486   4.515   8.901   1.567
 6870TIP3    H120487   4.434   8.955   1.564
 6870TIP3    H220488   4.580   8.958   1.613
 6871TIP3   OH220489   4.490   9.285   2.006
 6871TIP3    H120490   4.520   9.377   1.992
 6871TIP3    H220491   4.568   9.235   1.978
 6872TIP3   OH220492   4.032   8.739   1.958
 6872TIP3    H120493   3.940   8.765   1.981
 6872TIP3    H220494   4.059   8.690   2.038
 6873TIP3   OH220495   4.865   8.819   1.639
 6873TIP3    H120496   4.952   8.850   1.670
 6873TIP3    H220497   4.855   8.735   1.689
 6874TIP3   OH220498   4.741   8.579   0.790
 6874TIP3    H120499   4.722   8.611   0.701
 6874TIP3    H220500   4.795   8.651   0.828
 6875TIP3   OH220501   4.447   8.744   0.901
 6875TIP3    H120502   4.522   8.804   0.883
 6875TIP3    H220503   4.453   8.734   0.998
 6876TIP3   OH220504   4.703   9.054   1.708
 6876TIP3    H120505   4.735   9.109   1.783
 6876TIP3    H220506   4.763   8.977   1.711
 6877TIP3   OH220507   4.593   8.475   1.003
 6877TIP3    H120508   4.588   8.551   1.063
 6877TIP3    H220509   4.650   8.511   0.931
 6878TIP3   OH220510   4.099   8.466   0.796
 6878TIP3    H120511   4.100   8.558   0.829
 6878TIP3    H220512   4.195   8.444   0.805
 6879TIP3   OH220513   5.359   8.960   1.690
 6879TIP3    H120514   5.261   8.954   1.698
 6879TIP3    H220515   5.370   8.924   1.602
 6880TIP3   OH220516   4.986   9.149   1.075
 6880TIP3    H120517   4.925   9.076   1.091
 6880TIP3    H220518   5.066   9.120   1.124
 6881TIP3   OH220519   3.666   8.670   0.680
 6881TIP3    H120520   3.657   8.766   0.677
 6881TIP3    H220521   3.582   8.636   0.644
 6882TIP3   OH220522   4.086   8.343   1.557
 6882TIP3    H120523   4.026   8.350   1.479
 6882TIP3    H220524   4.040   8.284   1.615
 6883TIP3   OH220525   4.040   9.270   2.158
 6883TIP3    H120526   4.050   9.179   2.187
 6883TIP3    H220527   4.022   9.318   2.242
 6884TIP3   OH220528   4.296   9.064   1.847
 6884TIP3    H120529   4.267   9.152   1.877
 6884TIP3    H220530   4.342   9.094   1.767
 6885TIP3   OH220531   4.468   8.924   1.993
 6885TIP3    H120532   4.473   8.842   1.941
 6885TIP3    H220533   4.402   8.973   1.938
 6886TIP3   OH220534   4.458   8.733   1.786
 6886TIP3    H120535   4.481   8.778   1.702
 6886TIP3    H220536   4.363   8.710   1.771
 6887TIP3   OH220537   5.055   9.221   2.014
 6887TIP3    H120538   5.123   9.156   2.035
 6887TIP3    H220539   5.103   9.305   2.037
 6888TIP3   OH220540   4.325   9.070   2.201
 6888TIP3    H120541   4.258   9.000   2.217
 6888TIP3    H220542   4.367   9.039   2.120
 6889TIP3   OH220543   4.591   8.504   1.852
 6889TIP3    H120544   4.542   8.585   1.827
 6889TIP3    H220545   4.524   8.435   1.832
 6890TIP3   OH220546   4.711   9.016   2.074
 6890TIP3    H120547   4.705   8.996   2.169
 6890TIP3    H220548   4.625   8.979   2.045
 6891TIP3   OH220549   4.950   8.945   1.923
 6891TIP3    H120550   4.878   8.948   1.988
 6891TIP3    H220551   5.027   8.923   1.979
 6892TIP3   OH220552   5.182   8.899   2.076
 6892TIP3    H120553   5.194   8.803   2.095
 6892TIP3    H220554   5.178   8.939   2.166
 6893TIP3   OH220555   4.174   8.847   2.255
 6893TIP3    H120556   4.179   8.754   2.223
 6893TIP3    H220557   4.206   8.834   2.348
 6894TIP3   OH220558   4.681   8.511   2.109
 6894TIP3    H120559   4.751   8.442   2.101
 6894TIP3    H220560   4.643   8.506   2.019
 6895TIP3   OH220561   4.747   8.726   2.267
 6895TIP3    H120562   4.724   8.656   2.203
 6895TIP3    H220563   4.670   8.786   2.261
 6896TIP3   OH220564   5.110   9.118   0.832
 6896TIP3    H120565   5.107   9.021   0.828
 6896TIP3    H220566   5.078   9.137   0.922
 6897TIP3   OH220567   5.533   9.386   1.679
 6897TIP3    H120568   5.457   9.341   1.720
 6897TIP3    H220569   5.602   9.317   1.691
 6898TIP3   OH220570   5.067   8.858   0.731
 6898TIP3    H120571   5.100   8.765   0.741
 6898TIP3    H220572   5.103   8.879   0.644
 6899TIP3   OH220573   5.214   9.030   1.187
 6899TIP3    H120574   5.299   9.057   1.145
 6899TIP3    H220575   5.233   9.063   1.277
 6900TIP3   OH220576   5.294   9.156   1.418
 6900TIP3    H120577   5.218   9.186   1.471
 6900TIP3    H220578   5.343   9.240   1.403
 6901TIP3   OH220579   3.909   8.914   2.252
 6901TIP3    H120580   4.005   8.897   2.243
 6901TIP3    H220581   3.879   8.825   2.279
 6902TIP3   OH220582   5.738   8.760   1.988
 6902TIP3    H120583   5.795   8.693   1.944
 6902TIP3    H220584   5.711   8.816   1.913
 6903TIP3   OH220585   5.145   8.601   0.751
 6903TIP3    H120586   5.207   8.583   0.825
 6903TIP3    H220587   5.094   8.518   0.749
 6904TIP3   OH220588   3.688   8.580   1.811
 6904TIP3    H120589   3.749   8.582   1.886
 6904TIP3    H220590   3.714   8.664   1.764
 6905TIP3   OH220591   3.675   8.875   1.642
 6905TIP3    H120592   3.731   8.876   1.562
 6905TIP3    H220593   3.693   8.963   1.679
 6906TIP3   OH220594   5.612   8.904   1.796
 6906TIP3    H120595   5.523   8.941   1.814
 6906TIP3    H220596   5.587   8.833   1.734
 6907TIP3   OH220597   3.649   8.370   1.135
 6907TIP3    H120598   3.554   8.354   1.150
 6907TIP3    H220599   3.649   8.418   1.050
 6908TIP3   OH220600   3.908   8.429   1.924
 6908TIP3    H120601   3.891   8.511   1.888
 6908TIP3    H220602   3.821   8.381   1.909
 6909TIP3   OH220603   5.507   8.664   1.672
 6909TIP3    H120604   5.416   8.660   1.636
 6909TIP3    H220605   5.537   8.571   1.658
 6910TIP3   OH220606   4.712   8.579   1.288
 6910TIP3    H120607   4.670   8.508   1.340
 6910TIP3    H220608   4.782   8.531   1.240
 6911TIP3   OH220609   5.237   8.470   1.202
 6911TIP3    H120610   5.273   8.515   1.123
 6911TIP3    H220611   5.141   8.474   1.187
 6912TIP3   OH220612   5.329   8.565   0.962
 6912TIP3    H120613   5.401   8.511   0.921
 6912TIP3    H220614   5.362   8.655   0.943
 6913TIP3   OH220615   3.959   8.291   1.305
 6913TIP3    H120616   3.869   8.255   1.308
 6913TIP3    H220617   4.012   8.208   1.305
 6914TIP3   OH220618   3.745   8.154   0.952
 6914TIP3    H120619   3.780   8.211   0.881
 6914TIP3    H220620   3.720   8.219   1.020
 6915TIP3   OH220621   4.399   8.325   1.186
 6915TIP3    H120622   4.462   8.365   1.124
 6915TIP3    H220623   4.431   8.358   1.271
 6916TIP3   OH220624   4.954   8.463   1.167
 6916TIP3    H120625   4.951   8.424   1.078
 6916TIP3    H220626   4.939   8.384   1.223
 6917TIP3   OH220627   4.977   8.385   0.734
 6917TIP3    H120628   4.886   8.417   0.731
 6917TIP3    H220629   4.964   8.304   0.788
 6918TIP3   OH220630   3.864   8.318   0.722
 6918TIP3    H120631   3.909   8.252   0.665
 6918TIP3    H220632   3.941   8.368   0.757
 6919TIP3   OH220633   4.374   8.492   0.817
 6919TIP3    H120634   4.436   8.441   0.870
 6919TIP3    H220635   4.401   8.583   0.843
 6920TIP3   OH220636   4.172   8.578   2.195
 6920TIP3    H120637   4.131   8.501   2.238
 6920TIP3    H220638   4.265   8.569   2.228
 6921TIP3   OH220639   4.419   8.565   2.316
 6921TIP3    H120640   4.503   8.540   2.275
 6921TIP3    H220641   4.404   8.492   2.379
 6922TIP3   OH220642   5.241   8.627   2.104
 6922TIP3    H120643   5.263   8.595   2.195
 6922TIP3    H220644   5.329   8.623   2.060
 6923TIP3   OH220645   5.621   9.128   0.888
 6923TIP3    H120646   5.704   9.116   0.938
 6923TIP3    H220647   5.635   9.065   0.815
 6924TIP3   OH220648   5.991   8.925   1.223
 6924TIP3    H120649   5.930   8.953   1.153
 6924TIP3    H220650   5.937   8.943   1.303
 6925TIP3   OH220651   5.863   9.026   0.996
 6925TIP3    H120652   5.919   9.102   1.023
 6925TIP3    H220653   5.900   9.012   0.907
 6926TIP3   OH220654   6.363   8.628   0.959
 6926TIP3    H120655   6.330   8.539   0.979
 6926TIP3    H220656   6.282   8.682   0.973
 6927TIP3   OH220657   6.107   8.714   1.066
 6927TIP3    H120658   6.016   8.685   1.045
 6927TIP3    H220659   6.088   8.801   1.106
 6928TIP3   OH220660   6.643   8.839   1.258
 6928TIP3    H120661   6.707   8.806   1.325
 6928TIP3    H220662   6.557   8.815   1.299
 6929TIP3   OH220663   6.900   9.269   1.186
 6929TIP3    H120664   6.851   9.252   1.270
 6929TIP3    H220665   6.839   9.326   1.139
 6930TIP3   OH220666   6.020   9.238   1.055
 6930TIP3    H120667   6.007   9.246   1.152
 6930TIP3    H220668   6.041   9.328   1.029
 6931TIP3   OH220669   6.602   9.482   1.414
 6931TIP3    H120670   6.575   9.402   1.465
 6931TIP3    H220671   6.698   9.478   1.427
 6932TIP3   OH220672   5.821   9.255   1.305
 6932TIP3    H120673   5.860   9.301   1.378
 6932TIP3    H220674   5.820   9.163   1.338
 6933TIP3   OH220675   5.461   8.786   0.870
 6933TIP3    H120676   5.529   8.815   0.934
 6933TIP3    H220677   5.512   8.740   0.803
 6934TIP3   OH220678   6.305   9.147   1.077
 6934TIP3    H120679   6.230   9.193   1.036
 6934TIP3    H220680   6.367   9.220   1.095
 6935TIP3   OH220681   6.279   9.541   1.498
 6935TIP3    H120682   6.314   9.632   1.486
 6935TIP3    H220683   6.355   9.487   1.471
 6936TIP3   OH220684   5.832   9.002   1.441
 6936TIP3    H120685   5.735   9.006   1.455
 6936TIP3    H220686   5.860   8.939   1.510
 6937TIP3   OH220687   6.660   9.094   1.143
 6937TIP3    H120688   6.755   9.097   1.158
 6937TIP3    H220689   6.638   9.002   1.168
 6938TIP3   OH220690   6.496   9.315   1.198
 6938TIP3    H120691   6.541   9.358   1.271
 6938TIP3    H220692   6.550   9.234   1.184
 6939TIP3   OH220693   7.169   9.203   1.156
 6939TIP3    H120694   7.077   9.227   1.180
 6939TIP3    H220695   7.168   9.216   1.061
 6940TIP3   OH220696   5.843   8.637   1.047
 6940TIP3    H120697   5.811   8.605   0.960
 6940TIP3    H220698   5.834   8.557   1.102
 6941TIP3   OH220699   5.834   9.526   1.644
 6941TIP3    H120700   5.845   9.435   1.676
 6941TIP3    H220701   5.813   9.575   1.726
 6942TIP3   OH220702   6.104   9.315   1.306
 6942TIP3    H120703   6.060   9.400   1.336
 6942TIP3    H220704   6.154   9.354   1.229
 6943TIP3   OH220705   6.260   9.186   1.477
 6943TIP3    H120706   6.265   9.100   1.430
 6943TIP3    H220707   6.203   9.234   1.413
 6944TIP3   OH220708   6.250   8.984   1.283
 6944TIP3    H120709   6.277   9.036   1.204
 6944TIP3    H220710   6.156   8.966   1.261
 6945TIP3   OH220711   6.881   9.507   1.529
 6945TIP3    H120712   6.894   9.411   1.542
 6945TIP3    H220713   6.965   9.529   1.487
 6946TIP3   OH220714   6.121   9.324   1.687
 6946TIP3    H120715   6.053   9.256   1.702
 6946TIP3    H220716   6.161   9.293   1.604
 6947TIP3   OH220717   6.388   8.757   1.336
 6947TIP3    H120718   6.337   8.839   1.314
 6947TIP3    H220719   6.320   8.689   1.322
 6948TIP3   OH220720   6.503   9.278   1.558
 6948TIP3    H120721   6.494   9.255   1.652
 6948TIP3    H220722   6.418   9.239   1.526
 6949TIP3   OH220723   6.759   9.227   1.416
 6949TIP3    H120724   6.678   9.201   1.463
 6949TIP3    H220725   6.829   9.183   1.469
 6950TIP3   OH220726   6.975   9.151   1.566
 6950TIP3    H120727   6.990   9.055   1.584
 6950TIP3    H220728   6.977   9.190   1.656
 6951TIP3   OH220729   5.966   9.104   1.744
 6951TIP3    H120730   5.971   9.014   1.707
 6951TIP3    H220731   6.000   9.089   1.834
 6952TIP3   OH220732   6.479   8.771   1.593
 6952TIP3    H120733   6.546   8.699   1.588
 6952TIP3    H220734   6.439   8.764   1.504
 6953TIP3   OH220735   6.546   8.986   1.750
 6953TIP3    H120736   6.523   8.914   1.688
 6953TIP3    H220737   6.466   9.043   1.746
 6954TIP3   OH220738   5.697   9.163   1.720
 6954TIP3    H120739   5.794   9.151   1.717
 6954TIP3    H220740   5.671   9.078   1.761
 6955TIP3   OH220741   7.517   9.026   1.460
 6955TIP3    H120742   7.567   8.943   1.446
 6955TIP3    H220743   7.484   9.045   1.371
 6956TIP3   OH220744   5.659   8.843   1.051
 6956TIP3    H120745   5.720   8.767   1.060
 6956TIP3    H220746   5.723   8.916   1.040
 6957TIP3   OH220747   5.465   9.124   1.122
 6957TIP3    H120748   5.511   9.117   1.037
 6957TIP3    H220749   5.495   9.211   1.153
 6958TIP3   OH220750   5.667   8.705   1.439
 6958TIP3    H120751   5.615   8.698   1.520
 6958TIP3    H220752   5.601   8.741   1.377
 6959TIP3   OH220753   7.318   8.918   1.167
 6959TIP3    H120754   7.227   8.917   1.134
 6959TIP3    H220755   7.350   8.829   1.141
 6960TIP3   OH220756   5.752   8.544   0.808
 6960TIP3    H120757   5.663   8.506   0.793
 6960TIP3    H220758   5.807   8.464   0.791
 6961TIP3   OH220759   5.965   8.828   1.687
 6961TIP3    H120760   5.933   8.755   1.742
 6961TIP3    H220761   6.060   8.828   1.710
 6962TIP3   OH220762   6.215   8.824   1.804
 6962TIP3    H120763   6.298   8.794   1.761
 6962TIP3    H220764   6.201   8.752   1.870
 6963TIP3   OH220765   7.038   8.883   1.593
 6963TIP3    H120766   7.058   8.850   1.683
 6963TIP3    H220767   7.125   8.876   1.549
 6964TIP3   OH220768   1.779   0.222   6.059
 6964TIP3    H120769   1.817   0.169   6.130
 6964TIP3    H220770   1.797   0.311   6.095
 6965TIP3   OH220771   1.397   0.646   6.084
 6965TIP3    H120772   1.443   0.578   6.029
 6965TIP3    H220773   1.430   0.624   6.173
 6966TIP3   OH220774   1.820   0.441   6.236
 6966TIP3    H120775   1.737   0.444   6.285
 6966TIP3    H220776   1.826   0.532   6.199
 6967TIP3   OH220777   1.536   0.488   5.909
 6967TIP3    H120778   1.581   0.405   5.884
 6967TIP3    H220779   1.599   0.554   5.872
 6968TIP3   OH220780   1.647   0.250   5.814
 6968TIP3    H120781   1.683   0.187   5.748
 6968TIP3    H220782   1.712   0.243   5.887
 6969TIP3   OH220783   2.076   0.358   6.580
 6969TIP3    H120784   2.046   0.277   6.535
 6969TIP3    H220785   2.052   0.429   6.518
 6970TIP3   OH220786   2.272  -0.019   6.411
 6970TIP3    H120787   2.184   0.015   6.434
 6970TIP3    H220788   2.283   0.016   6.320
 6971TIP3   OH220789   1.856   0.300   5.232
 6971TIP3    H120790   1.864   0.396   5.216
 6971TIP3    H220791   1.949   0.270   5.221
 6972TIP3   OH220792   2.294   0.697   6.620
 6972TIP3    H120793   2.301   0.601   6.638
 6972TIP3    H220794   2.214   0.719   6.672
 6973TIP3   OH220795   1.167   0.623   5.707
 6973TIP3    H120796   1.122   0.609   5.623
 6973TIP3    H220797   1.137   0.713   5.733
 6974TIP3   OH220798   1.370   0.516   5.357
 6974TIP3    H120799   1.431   0.449   5.318
 6974TIP3    H220800   1.405   0.523   5.448
 6975TIP3   OH220801   1.421   0.568   5.628
 6975TIP3    H120802   1.333   0.578   5.670
 6975TIP3    H220803   1.482   0.568   5.704
 6976TIP3   OH220804   1.984   1.054   6.724
 6976TIP3    H120805   1.987   1.074   6.628
 6976TIP3    H220806   2.065   1.098   6.756
 6977TIP3   OH220807   2.021   0.134   6.415
 6977TIP3    H120808   2.067   0.183   6.343
 6977TIP3    H220809   1.929   0.145   6.390
 6978TIP3   OH220810   2.320   0.417   6.667
 6978TIP3    H120811   2.223   0.406   6.662
 6978TIP3    H220812   2.346   0.380   6.579
 6979TIP3   OH220813   1.795   0.367   5.495
 6979TIP3    H120814   1.772   0.288   5.544
 6979TIP3    H220815   1.805   0.333   5.404
 6980TIP3   OH220816   1.574   0.105   5.393
 6980TIP3    H120817   1.602   0.072   5.480
 6980TIP3    H220818   1.476   0.099   5.400
 6981TIP3   OH220819   1.832   0.741   6.562
 6981TIP3    H120820   1.747   0.693   6.562
 6981TIP3    H220821   1.815   0.810   6.494
 6982TIP3   OH220822   1.888   0.574   5.219
 6982TIP3    H120823   1.927   0.646   5.166
 6982TIP3    H220824   1.807   0.620   5.251
 6983TIP3   OH220825   1.716   0.036   5.643
 6983TIP3    H120826   1.709  -0.053   5.680
 6983TIP3    H220827   1.809   0.034   5.612
 6984TIP3   OH220828   1.842   0.706   6.157
 6984TIP3    H120829   1.802   0.756   6.083
 6984TIP3    H220830   1.937   0.728   6.141
 6985TIP3   OH220831   1.804   0.599   6.876
 6985TIP3    H120832   1.735   0.564   6.934
 6985TIP3    H220833   1.846   0.665   6.933
 6986TIP3   OH220834   1.529   0.336   5.227
 6986TIP3    H120835   1.569   0.264   5.279
 6986TIP3    H220836   1.580   0.332   5.144
 6987TIP3   OH220837   1.889  -0.165   5.238
 6987TIP3    H120838   1.858  -0.215   5.160
 6987TIP3    H220839   1.845  -0.079   5.221
 6988TIP3   OH220840   2.091   0.807   6.115
 6988TIP3    H120841   2.122   0.838   6.202
 6988TIP3    H220842   2.153   0.850   6.055
 6989TIP3   OH220843   2.127   0.826   6.396
 6989TIP3    H120844   2.086   0.737   6.393
 6989TIP3    H220845   2.201   0.805   6.456
 6990TIP3   OH220846   2.185   0.500   6.959
 6990TIP3    H120847   2.110   0.502   7.021
 6990TIP3    H220848   2.221   0.591   6.969
 6991TIP3   OH220849   1.986   0.018   5.594
 6991TIP3    H120850   2.057   0.078   5.562
 6991TIP3    H220851   2.031  -0.025   5.670
 6992TIP3   OH220852   2.114  -0.114   5.801
 6992TIP3    H120853   2.048  -0.108   5.872
 6992TIP3    H220854   2.194  -0.075   5.844
 6993TIP3   OH220855   2.154   0.266   6.217
 6993TIP3    H120856   2.221   0.207   6.176
 6993TIP3    H220857   2.163   0.347   6.163
 6994TIP3   OH220858   2.004   0.575   6.418
 6994TIP3    H120859   1.939   0.617   6.478
 6994TIP3    H220860   1.948   0.526   6.356
 6995TIP3   OH220861   2.056  -0.207   5.441
 6995TIP3    H120862   1.992  -0.195   5.368
 6995TIP3    H220863   2.029  -0.135   5.500
 6996TIP3   OH220864   2.229   0.166   6.796
 6996TIP3    H120865   2.301   0.101   6.785
 6996TIP3    H220866   2.253   0.231   6.729
 6997TIP3   OH220867   2.408  -0.043   6.849
 6997TIP3    H120868   2.339  -0.109   6.839
 6997TIP3    H220869   2.489  -0.091   6.831
 6998TIP3   OH220870   1.681   0.664   5.771
 6998TIP3    H120871   1.734   0.656   5.689
 6998TIP3    H220872   1.726   0.739   5.815
 6999TIP3   OH220873   1.600   0.953   6.683
 6999TIP3    H120874   1.629   0.864   6.657
 6999TIP3    H220875   1.650   0.963   6.767
 7000TIP3   OH220876   1.333   0.801   6.384
 7000TIP3    H120877   1.249   0.784   6.337
 7000TIP3    H220878   1.333   0.898   6.384
 7001TIP3   OH220879   1.579   0.717   6.439
 7001TIP3    H120880   1.488   0.743   6.414
 7001TIP3    H220881   1.631   0.785   6.392
 7002TIP3   OH220882   1.769   0.905   6.348
 7002TIP3    H120883   1.757   0.992   6.304
 7002TIP3    H220884   1.802   0.850   6.274
 7003TIP3   OH220885   1.110   0.501   5.435
 7003TIP3    H120886   1.203   0.526   5.415
 7003TIP3    H220887   1.103   0.425   5.376
 7004TIP3   OH220888   1.824   0.636   5.539
 7004TIP3    H120889   1.816   0.539   5.523
 7004TIP3    H220890   1.781   0.672   5.459
 7005TIP3   OH220891   2.055   0.785   6.734
 7005TIP3    H120892   1.976   0.743   6.694
 7005TIP3    H220893   2.029   0.879   6.730
 7006TIP3   OH220894   3.317   0.154   5.496
 7006TIP3    H120895   3.290   0.245   5.473
 7006TIP3    H220896   3.242   0.105   5.459
 7007TIP3   OH220897   3.318   0.154   5.871
 7007TIP3    H120898   3.346   0.115   5.955
 7007TIP3    H220899   3.273   0.079   5.829
 7008TIP3   OH220900   2.614   0.053   6.239
 7008TIP3    H120901   2.650  -0.009   6.304
 7008TIP3    H220902   2.686   0.118   6.235
 7009TIP3   OH220903   3.561   0.456   5.554
 7009TIP3    H120904   3.545   0.385   5.618
 7009TIP3    H220905   3.587   0.530   5.611
 7010TIP3   OH220906   2.585   0.457   5.966
 7010TIP3    H120907   2.578   0.359   5.968
 7010TIP3    H220908   2.682   0.467   5.964
 7011TIP3   OH220909   2.287  -0.346   5.758
 7011TIP3    H120910   2.252  -0.257   5.772
 7011TIP3    H220911   2.212  -0.388   5.716
 7012TIP3   OH220912   2.358  -0.053   5.911
 7012TIP3    H120913   2.405  -0.127   5.957
 7012TIP3    H220914   2.426  -0.021   5.851
 7013TIP3   OH220915   3.208   0.919   5.571
 7013TIP3    H120916   3.257   0.847   5.525
 7013TIP3    H220917   3.201   0.883   5.661
 7014TIP3   OH220918   3.115   0.378   5.924
 7014TIP3    H120919   3.150   0.304   5.872
 7014TIP3    H220920   3.200   0.422   5.946
 7015TIP3   OH220921   3.528  -0.116   5.958
 7015TIP3    H120922   3.571  -0.202   5.967
 7015TIP3    H220923   3.494  -0.121   5.866
 7016TIP3   OH220924   2.502  -0.255   6.026
 7016TIP3    H120925   2.579  -0.282   6.082
 7016TIP3    H220926   2.520  -0.312   5.949
 7017TIP3   OH220927   2.942  -0.058   5.822
 7017TIP3    H120928   3.032  -0.092   5.838
 7017TIP3    H220929   2.896  -0.140   5.792
 7018TIP3   OH220930   4.171  -0.119   6.114
 7018TIP3    H120931   4.115  -0.045   6.085
 7018TIP3    H220932   4.230  -0.079   6.179
 7019TIP3   OH220933   3.216   0.376   5.362
 7019TIP3    H120934   3.173   0.349   5.278
 7019TIP3    H220935   3.166   0.458   5.383
 7020TIP3   OH220936   2.973   0.295   6.162
 7020TIP3    H120937   2.906   0.357   6.197
 7020TIP3    H220938   3.012   0.347   6.089
 7021TIP3   OH220939   2.739  -0.353   6.127
 7021TIP3    H120940   2.803  -0.284   6.151
 7021TIP3    H220941   2.780  -0.395   6.051
 7022TIP3   OH220942   2.794   0.488   6.248
 7022TIP3    H120943   2.766   0.574   6.213
 7022TIP3    H220944   2.722   0.471   6.313
 7023TIP3   OH220945   2.190   0.182   5.487
 7023TIP3    H120946   2.153   0.207   5.400
 7023TIP3    H220947   2.223   0.267   5.522
 7024TIP3   OH220948   3.633   0.697   5.727
 7024TIP3    H120949   3.543   0.688   5.766
 7024TIP3    H220950   3.624   0.783   5.680
 7025TIP3   OH220951   3.338   0.747   5.403
 7025TIP3    H120952   3.385   0.664   5.380
 7025TIP3    H220953   3.396   0.811   5.357
 7026TIP3   OH220954   3.477   0.532   5.301
 7026TIP3    H120955   3.432   0.454   5.265
 7026TIP3    H220956   3.512   0.495   5.386
 7027TIP3   OH220957   3.858   0.613   6.068
 7027TIP3    H120958   3.847   0.535   6.009
 7027TIP3    H220959   3.841   0.687   6.007
 7028TIP3   OH220960   3.150   0.008   5.325
 7028TIP3    H120961   3.068   0.057   5.304
 7028TIP3    H220962   3.191  -0.000   5.237
 7029TIP3   OH220963   3.110  -0.229   5.074
 7029TIP3    H120964   3.183  -0.168   5.094
 7029TIP3    H220965   3.148  -0.281   5.001
 7030TIP3   OH220966   4.053   0.245   5.915
 7030TIP3    H120967   3.970   0.298   5.919
 7030TIP3    H220968   4.082   0.266   5.824
 7031TIP3   OH220969   3.496   0.090   5.297
 7031TIP3    H120970   3.440   0.115   5.375
 7031TIP3    H220971   3.578   0.061   5.341
 7032TIP3   OH220972   3.727   0.127   6.213
 7032TIP3    H120973   3.727   0.216   6.252
 7032TIP3    H220974   3.642   0.129   6.164
 7033TIP3   OH220975   2.729   0.087   5.715
 7033TIP3    H120976   2.685   0.029   5.648
 7033TIP3    H220977   2.805   0.031   5.741
 7034TIP3   OH220978   2.859   0.500   5.861
 7034TIP3    H120979   2.837   0.452   5.779
 7034TIP3    H220980   2.948   0.466   5.880
 7035TIP3   OH220981   2.872   0.052   6.070
 7035TIP3    H120982   2.900   0.033   5.978
 7035TIP3    H220983   2.912   0.140   6.087
 7036TIP3   OH220984   3.391   0.694   5.845
 7036TIP3    H120985   3.376   0.774   5.899
 7036TIP3    H220986   3.376   0.621   5.908
 7037TIP3   OH220987   3.000   0.615   6.389
 7037TIP3    H120988   2.942   0.677   6.438
 7037TIP3    H220989   2.933   0.560   6.345
 7038TIP3   OH220990   3.344  -0.066   5.126
 7038TIP3    H120991   3.399  -0.004   5.178
 7038TIP3    H220992   3.367  -0.039   5.034
 7039TIP3   OH220993   3.079   0.628   5.398
 7039TIP3    H120994   3.155   0.683   5.422
 7039TIP3    H220995   3.016   0.692   5.361
 7040TIP3   OH220996   2.796   0.786   6.478
 7040TIP3    H120997   2.761   0.778   6.388
 7040TIP3    H220998   2.718   0.765   6.533
 7041TIP3   OH220999   2.590  -0.065   5.524
 7041TIP3    H121000   2.526  -0.029   5.460
 7041TIP3    H221001   2.564  -0.157   5.530
 7042TIP3   OH221002   3.650   0.554   4.717
 7042TIP3    H121003   3.659   0.651   4.705
 7042TIP3    H221004   3.743   0.525   4.705
 7043TIP3   OH221005   2.381   0.317   6.416
 7043TIP3    H121006   2.317   0.278   6.355
 7043TIP3    H221007   2.412   0.238   6.467
 7044TIP3   OH221008   2.229   0.502   6.063
 7044TIP3    H121009   2.325   0.494   6.049
 7044TIP3    H221010   2.224   0.583   6.116
 7045TIP3   OH221011   4.095   0.955   6.112
 7045TIP3    H121012   4.093   0.858   6.126
 7045TIP3    H221013   4.012   0.981   6.158
 7046TIP3   OH221014   3.201   0.743   6.247
 7046TIP3    H121015   3.201   0.835   6.280
 7046TIP3    H221016   3.129   0.704   6.302
 7047TIP3   OH221017   2.959   0.874   5.198
 7047TIP3    H121018   2.911   0.852   5.116
 7047TIP3    H221019   2.926   0.963   5.220
 7048TIP3   OH221020   2.398   0.722   5.583
 7048TIP3    H121021   2.448   0.712   5.668
 7048TIP3    H221022   2.339   0.646   5.588
 7049TIP3   OH221023   3.163   0.773   4.841
 7049TIP3    H121024   3.221   0.702   4.805
 7049TIP3    H221025   3.196   0.780   4.933
 7050TIP3   OH221026   3.212   0.821   5.112
 7050TIP3    H121027   3.124   0.830   5.154
 7050TIP3    H221028   3.261   0.774   5.181
 7051TIP3   OH221029   3.990   0.079   6.398
 7051TIP3    H121030   3.918   0.115   6.345
 7051TIP3    H221031   4.013  -0.002   6.350
 7052TIP3   OH221032   2.594   0.487   6.434
 7052TIP3    H121033   2.643   0.439   6.504
 7052TIP3    H221034   2.516   0.429   6.427
 7053TIP3   OH221035   3.696  -0.068   6.445
 7053TIP3    H121036   3.704  -0.142   6.381
 7053TIP3    H221037   3.689   0.007   6.383
 7054TIP3   OH221038   3.420  -0.017   4.868
 7054TIP3    H121039   3.371  -0.033   4.785
 7054TIP3    H221040   3.490   0.043   4.839
 7055TIP3   OH221041   2.918  -0.171   6.222
 7055TIP3    H121042   2.862  -0.145   6.298
 7055TIP3    H221043   2.906  -0.092   6.164
 7056TIP3   OH221044   2.785  -0.258   5.724
 7056TIP3    H121045   2.708  -0.309   5.755
 7056TIP3    H221046   2.808  -0.306   5.642
 7057TIP3   OH221047   3.291  -0.189   5.455
 7057TIP3    H121048   3.235  -0.118   5.416
 7057TIP3    H221049   3.336  -0.223   5.375
 7058TIP3   OH221050   3.468   0.125   6.488
 7058TIP3    H121051   3.457   0.084   6.577
 7058TIP3    H221052   3.521   0.204   6.511
 7059TIP3   OH221053   3.450  -0.160   5.695
 7059TIP3    H121054   3.391  -0.128   5.624
 7059TIP3    H221055   3.478  -0.244   5.656
 7060TIP3   OH221056   2.744  -0.123   6.429
 7060TIP3    H121057   2.744  -0.060   6.503
 7060TIP3    H221058   2.690  -0.197   6.461
 7061TIP3   OH221059   3.464   0.087   6.123
 7061TIP3    H121060   3.487   0.010   6.066
 7061TIP3    H221061   3.413   0.047   6.194
 7062TIP3   OH221062   2.555  -0.404   5.800
 7062TIP3    H121063   2.461  -0.388   5.775
 7062TIP3    H221064   2.567  -0.497   5.777
 7063TIP3   OH221065   2.842  -0.387   5.488
 7063TIP3    H121066   2.930  -0.406   5.451
 7063TIP3    H221067   2.785  -0.392   5.409
 7064TIP3   OH221068   2.654  -0.371   5.267
 7064TIP3    H121069   2.597  -0.420   5.205
 7064TIP3    H221070   2.717  -0.331   5.203
 7065TIP3   OH221071   3.784   1.307   6.212
 7065TIP3    H121072   3.782   1.330   6.117
 7065TIP3    H221073   3.861   1.357   6.244
 7066TIP3   OH221074   3.213  -0.125   5.899
 7066TIP3    H121075   3.266  -0.182   5.841
 7066TIP3    H221076   3.208  -0.178   5.980
 7067TIP3   OH221077   3.189  -0.235   6.187
 7067TIP3    H121078   3.096  -0.207   6.197
 7067TIP3    H221079   3.233  -0.183   6.258
 7068TIP3   OH221080   2.919   0.155   5.275
 7068TIP3    H121081   2.844   0.092   5.264
 7068TIP3    H221082   2.901   0.191   5.365
 7069TIP3   OH221083   3.822   0.393   5.906
 7069TIP3    H121084   3.846   0.442   5.824
 7069TIP3    H221085   3.736   0.352   5.881
 7070TIP3   OH221086   3.327   0.481   6.272
 7070TIP3    H121087   3.332   0.453   6.364
 7070TIP3    H221088   3.279   0.566   6.278
 7071TIP3   OH221089   3.440  -0.311   5.229
 7071TIP3    H121090   3.537  -0.297   5.242
 7071TIP3    H221091   3.415  -0.231   5.179
 7072TIP3   OH221092   2.611   0.178   5.951
 7072TIP3    H121093   2.652   0.150   5.866
 7072TIP3    H221094   2.647   0.113   6.013
 7073TIP3   OH221095   3.093   0.323   5.115
 7073TIP3    H121096   3.031   0.399   5.108
 7073TIP3    H221097   3.029   0.251   5.133
 7074TIP3   OH221098   2.438   0.119   6.592
 7074TIP3    H121099   2.533   0.111   6.612
 7074TIP3    H221100   2.415   0.036   6.548
 7075TIP3   OH221101   3.212   0.212   6.584
 7075TIP3    H121102   3.143   0.156   6.553
 7075TIP3    H221103   3.283   0.196   6.518
 7076TIP3   OH221104   3.482   0.738   6.164
 7076TIP3    H121105   3.386   0.733   6.177
 7076TIP3    H221106   3.508   0.788   6.245
 7077TIP3   OH221107   3.892  -0.198   5.079
 7077TIP3    H121108   3.835  -0.247   5.016
 7077TIP3    H221109   3.895  -0.113   5.030
 7078TIP3   OH221110   4.108   0.662   6.158
 7078TIP3    H121111   4.010   0.659   6.148
 7078TIP3    H221112   4.134   0.634   6.067
 7079TIP3   OH221113   3.590   0.626   4.983
 7079TIP3    H121114   3.565   0.557   5.046
 7079TIP3    H221115   3.602   0.577   4.900
 7080TIP3   OH221116   3.587   0.255   5.828
 7080TIP3    H121117   3.493   0.229   5.838
 7080TIP3    H221118   3.621   0.176   5.780
 7081TIP3   OH221119   2.712   0.484   5.578
 7081TIP3    H121120   2.715   0.562   5.521
 7081TIP3    H221121   2.617   0.465   5.579
 7082TIP3   OH221122   2.272  -0.215   5.272
 7082TIP3    H121123   2.323  -0.133   5.292
 7082TIP3    H221124   2.200  -0.207   5.338
 7083TIP3   OH221125   2.857   0.251   5.524
 7083TIP3    H121126   2.819   0.339   5.540
 7083TIP3    H221127   2.818   0.199   5.597
 7084TIP3   OH221128   2.981   0.828   6.045
 7084TIP3    H121129   3.022   0.900   5.995
 7084TIP3    H221130   3.056   0.793   6.095
 7085TIP3   OH221131   2.632   0.723   5.426
 7085TIP3    H121132   2.546   0.729   5.473
 7085TIP3    H221133   2.662   0.816   5.431
 7086TIP3   OH221134   3.373   0.462   6.002
 7086TIP3    H121135   3.366   0.461   6.101
 7086TIP3    H221136   3.451   0.407   5.988
 7087TIP3   OH221137   3.337   0.350   4.887
 7087TIP3    H121138   3.394   0.329   4.964
 7087TIP3    H221139   3.250   0.327   4.925
 7088TIP3   OH221140   3.620   0.997   6.054
 7088TIP3    H121141   3.542   0.939   6.047
 7088TIP3    H221142   3.603   1.061   5.982
 7089TIP3   OH221143   3.685   0.830   4.705
 7089TIP3    H121144   3.724   0.903   4.654
 7089TIP3    H221145   3.605   0.876   4.738
 7090TIP3   OH221146   3.505   0.290   5.099
 7090TIP3    H121147   3.491   0.225   5.170
 7090TIP3    H221148   3.602   0.286   5.090
 7091TIP3   OH221149   2.420   0.692   6.205
 7091TIP3    H121150   2.469   0.613   6.232
 7091TIP3    H221151   2.449   0.756   6.271
 7092TIP3   OH221152   2.638   0.345   5.182
 7092TIP3    H121153   2.726   0.306   5.196
 7092TIP3    H221154   2.658   0.440   5.172
 7093TIP3   OH221155   2.390   0.030   5.357
 7093TIP3    H121156   2.328   0.078   5.415
 7093TIP3    H221157   2.413   0.101   5.294
 7094TIP3   OH221158   2.920   0.536   5.104
 7094TIP3    H121159   2.834   0.566   5.140
 7094TIP3    H221160   2.940   0.609   5.043
 7095TIP3   OH221161   3.137  -0.407   5.521
 7095TIP3    H121162   3.176  -0.321   5.498
 7095TIP3    H221163   3.093  -0.389   5.605
 7096TIP3   OH221164   3.372  -0.106   6.363
 7096TIP3    H121165   3.390  -0.019   6.402
 7096TIP3    H221166   3.456  -0.135   6.326
 7097TIP3   OH221167   2.666   0.619   5.169
 7097TIP3    H121168   2.634   0.690   5.110
 7097TIP3    H221169   2.649   0.657   5.258
 7098TIP3   OH221170   3.671   0.019   5.696
 7098TIP3    H121171   3.600  -0.046   5.706
 7098TIP3    H221172   3.746  -0.025   5.743
 7099TIP3   OH221173   2.383   0.246   5.162
 7099TIP3    H121174   2.456   0.308   5.182
 7099TIP3    H221175   2.428   0.193   5.094
 7100TIP3   OH221176   2.309  -0.502   5.288
 7100TIP3    H121177   2.356  -0.416   5.286
 7100TIP3    H221178   2.222  -0.473   5.318
 7101TIP3   OH221179   3.639   0.970   5.647
 7101TIP3    H121180   3.597   1.016   5.571
 7101TIP3    H221181   3.734   0.988   5.626
 7102TIP3   OH221182   2.258   0.459   5.558
 7102TIP3    H121183   2.179   0.492   5.604
 7102TIP3    H221184   2.242   0.495   5.469
 7103TIP3   OH221185   2.409   0.995   6.625
 7103TIP3    H121186   2.496   0.992   6.671
 7103TIP3    H221187   2.389   0.900   6.623
 7104TIP3   OH221188   2.896   0.969   6.666
 7104TIP3    H121189   2.988   0.943   6.678
 7104TIP3    H221190   2.869   0.909   6.593
 7105TIP3   OH221191   2.876   0.531   4.803
 7105TIP3    H121192   2.843   0.454   4.853
 7105TIP3    H221193   2.948   0.485   4.755
 7106TIP3   OH221194   3.534   0.869   6.401
 7106TIP3    H121195   3.525   0.799   6.470
 7106TIP3    H221196   3.610   0.920   6.433
 7107TIP3   OH221197   3.312   0.582   4.709
 7107TIP3    H121198   3.355   0.518   4.768
 7107TIP3    H221199   3.371   0.581   4.631
 7108TIP3   OH221200   2.545   0.417   6.832
 7108TIP3    H121201   2.604   0.352   6.790
 7108TIP3    H221202   2.463   0.406   6.781
 7109TIP3   OH221203   2.526   0.058   5.007
 7109TIP3    H121204   2.579   0.022   5.080
 7109TIP3    H221205   2.597   0.081   4.944
 7110TIP3   OH221206   3.155   0.488   6.592
 7110TIP3    H121207   3.102   0.498   6.511
 7110TIP3    H221208   3.180   0.393   6.591
 7111TIP3   OH221209   3.645   0.493   6.206
 7111TIP3    H121210   3.714   0.544   6.159
 7111TIP3    H221211   3.569   0.553   6.196
 7112TIP3   OH221212   2.722  -0.043   5.241
 7112TIP3    H121213   2.707  -0.087   5.325
 7112TIP3    H221214   2.764  -0.114   5.188
 7113TIP3   OH221215   2.972   0.081   6.470
 7113TIP3    H121216   2.906   0.143   6.507
 7113TIP3    H221217   2.994   0.120   6.386
 7114TIP3   OH221218   2.829  -0.250   5.094
 7114TIP3    H121219   2.805  -0.255   4.998
 7114TIP3    H221220   2.927  -0.242   5.086
 7115TIP3   OH221221   3.511   0.410   6.596
 7115TIP3    H121222   3.602   0.428   6.569
 7115TIP3    H221223   3.523   0.361   6.680
 7116TIP3   OH221224   3.656   0.087   4.737
 7116TIP3    H121225   3.626   0.039   4.657
 7116TIP3    H221226   3.622   0.177   4.716
 7117TIP3   OH221227   3.117  -0.160   6.515
 7117TIP3    H121228   3.072  -0.216   6.575
 7117TIP3    H221229   3.042  -0.084   6.501
 7118TIP3   OH221230   3.188   0.149   6.255
 7118TIP3    H121231   3.243   0.157   6.172
 7118TIP3    H221232   3.113   0.205   6.231
 7119TIP3   OH221233   3.775   0.350   6.391
 7119TIP3    H121234   3.715   0.403   6.334
 7119TIP3    H221235   3.862   0.374   6.350
 7120TIP3   OH221236   2.990  -0.075   6.836
 7120TIP3    H121237   2.894  -0.090   6.830
 7120TIP3    H221238   3.018  -0.082   6.745
 7121TIP3   OH221239   3.472  -0.034   6.702
 7121TIP3    H121240   3.391  -0.038   6.755
 7121TIP3    H221241   3.463  -0.121   6.657
 7122TIP3   OH221242   2.634   0.822   4.985
 7122TIP3    H121243   2.729   0.814   4.965
 7122TIP3    H221244   2.604   0.865   4.903
 7123TIP3   OH221245   2.116   0.198   5.205
 7123TIP3    H121246   2.210   0.221   5.189
 7123TIP3    H221247   2.112   0.109   5.163
 7124TIP3   OH221248   2.029   0.809   5.613
 7124TIP3    H121249   1.960   0.747   5.579
 7124TIP3    H221250   2.072   0.754   5.681
 7125TIP3   OH221251   2.163   0.665   5.803
 7125TIP3    H121252   2.158   0.588   5.861
 7125TIP3    H221253   2.215   0.726   5.859
 7126TIP3   OH221254   3.890   1.064   5.600
 7126TIP3    H121255   3.918   1.095   5.688
 7126TIP3    H221256   3.954   1.109   5.542
 7127TIP3   OH221257   3.923   1.082   5.882
 7127TIP3    H121258   3.879   0.995   5.878
 7127TIP3    H221259   3.997   1.061   5.941
 7128TIP3   OH221260   3.969   0.757   6.457
 7128TIP3    H121261   3.894   0.766   6.520
 7128TIP3    H221262   4.009   0.847   6.460
 7129TIP3   OH221263   3.785   0.273   5.077
 7129TIP3    H121264   3.856   0.335   5.050
 7129TIP3    H221265   3.825   0.232   5.156
 7130TIP3   OH221266   3.912   0.140   5.279
 7130TIP3    H121267   3.846   0.096   5.338
 7130TIP3    H221268   3.976   0.177   5.343
 7131TIP3   OH221269   3.965   0.530   5.714
 7131TIP3    H121270   4.018   0.466   5.662
 7131TIP3    H221271   3.953   0.603   5.651
 7132TIP3   OH221272   3.799   0.832   5.909
 7132TIP3    H121273   3.727   0.873   5.961
 7132TIP3    H221274   3.748   0.782   5.840
 7133TIP3   OH221275   3.847   0.042   4.932
 7133TIP3    H121276   3.779   0.052   4.861
 7133TIP3    H221277   3.823   0.119   4.987
 7134TIP3   OH221278   3.722  -0.291   4.883
 7134TIP3    H121279   3.686  -0.215   4.836
 7134TIP3    H221280   3.686  -0.365   4.833
 7135TIP3   OH221281   3.728  -0.004   5.429
 7135TIP3    H121282   3.734  -0.101   5.428
 7135TIP3    H221283   3.713   0.014   5.524
 7136TIP3   OH221284   2.351   0.081   6.163
 7136TIP3    H121285   2.355   0.046   6.072
 7136TIP3    H221286   2.446   0.077   6.188
 7137TIP3   OH221287   4.018   0.415   6.284
 7137TIP3    H121288   4.091   0.351   6.270
 7137TIP3    H221289   4.041   0.487   6.223
 7138TIP3   OH221290   4.204   0.214   6.299
 7138TIP3    H121291   4.138   0.165   6.352
 7138TIP3    H221292   4.287   0.175   6.330
 7139TIP3   OH221293   3.708  -0.287   5.277
 7139TIP3    H121294   3.757  -0.324   5.354
 7139TIP3    H221295   3.781  -0.253   5.221
 7140TIP3   OH221296   3.889  -0.084   5.823
 7140TIP3    H121297   3.977  -0.073   5.781
 7140TIP3    H221298   3.910  -0.062   5.915
 7141TIP3   OH221299   3.948   0.039   6.069
 7141TIP3    H121300   3.865   0.080   6.100
 7141TIP3    H221301   3.984   0.110   6.011
 7142TIP3   OH221302   2.352  -0.287   6.258
 7142TIP3    H121303   2.396  -0.277   6.171
 7142TIP3    H221304   2.350  -0.198   6.293
 7143TIP3   OH221305   3.475   0.930   5.258
 7143TIP3    H121306   3.527   0.911   5.177
 7143TIP3    H221307   3.532   0.992   5.304
 7144TIP3   OH221308   2.575   0.741   6.647
 7144TIP3    H121309   2.490   0.699   6.625
 7144TIP3    H221310   2.596   0.700   6.732
 7145TIP3   OH221311   2.753   0.760   6.193
 7145TIP3    H121312   2.705   0.837   6.155
 7145TIP3    H221313   2.839   0.773   6.149
 7146TIP3   OH221314   3.202   1.009   6.330
 7146TIP3    H121315   3.243   1.010   6.420
 7146TIP3    H221316   3.269   1.060   6.279
 7147TIP3   OH221317   3.381   1.160   6.186
 7147TIP3    H121318   3.453   1.107   6.148
 7147TIP3    H221319   3.431   1.217   6.248
 7148TIP3   OH221320   2.433   1.023   6.212
 7148TIP3    H121321   2.344   1.058   6.192
 7148TIP3    H221322   2.441   1.049   6.305
 7149TIP3   OH221323   2.669   1.001   6.072
 7149TIP3    H121324   2.584   1.013   6.119
 7149TIP3    H221325   2.648   1.033   5.983
 7150TIP3   OH221326   3.096   1.031   5.869
 7150TIP3    H121327   3.025   1.052   5.806
 7150TIP3    H221328   3.108   1.117   5.914
 7151TIP3   OH221329   3.363   0.970   5.921
 7151TIP3    H121330   3.268   0.985   5.902
 7151TIP3    H221331   3.403   1.049   5.881
 7152TIP3   OH221332   3.574   1.163   5.839
 7152TIP3    H121333   3.558   1.247   5.791
 7152TIP3    H221334   3.597   1.101   5.766
 7153TIP3   OH221335   2.343   0.815   5.962
 7153TIP3    H121336   2.370   0.791   6.053
 7153TIP3    H221337   2.415   0.771   5.911
 7154TIP3   OH221338   2.536   0.687   5.817
 7154TIP3    H121339   2.552   0.602   5.863
 7154TIP3    H221340   2.627   0.723   5.812
 7155TIP3   OH221341   2.803   0.783   5.817
 7155TIP3    H121342   2.833   0.691   5.805
 7155TIP3    H221343   2.844   0.802   5.904
 7156TIP3   OH221344   2.130   0.585   5.355
 7156TIP3    H121345   2.046   0.552   5.318
 7156TIP3    H221346   2.119   0.680   5.340
 7157TIP3   OH221347   2.901   0.777   4.930
 7157TIP3    H121348   2.991   0.796   4.896
 7157TIP3    H221349   2.880   0.699   4.874
 7158TIP3   OH221350   3.622   0.893   5.026
 7158TIP3    H121351   3.614   0.795   5.013
 7158TIP3    H221352   3.577   0.925   4.946
 7159TIP3   OH221353   2.206   0.619   4.993
 7159TIP3    H121354   2.205   0.640   5.088
 7159TIP3    H221355   2.294   0.576   4.982
 7160TIP3   OH221356   3.851   1.039   6.214
 7160TIP3    H121357   3.771   1.006   6.168
 7160TIP3    H221358   3.830   1.134   6.217
 7161TIP3   OH221359   5.114   0.408   4.979
 7161TIP3    H121360   5.092   0.503   4.967
 7161TIP3    H221361   5.031   0.367   4.951
 7162TIP3   OH221362   5.107   0.409   5.360
 7162TIP3    H121363   5.138   0.386   5.450
 7162TIP3    H221364   5.067   0.324   5.334
 7163TIP3   OH221365   4.413   0.310   5.727
 7163TIP3    H121366   4.447   0.244   5.790
 7163TIP3    H221367   4.492   0.364   5.712
 7164TIP3   OH221368   5.354   0.709   5.044
 7164TIP3    H121369   5.346   0.639   5.111
 7164TIP3    H221370   5.385   0.784   5.098
 7165TIP3   OH221371   4.383   0.715   5.454
 7165TIP3    H121372   4.374   0.617   5.456
 7165TIP3    H221373   4.480   0.723   5.450
 7166TIP3   OH221374   4.084  -0.090   5.247
 7166TIP3    H121375   4.037  -0.005   5.258
 7166TIP3    H221376   4.021  -0.137   5.189
 7167TIP3   OH221377   4.154   0.205   5.407
 7167TIP3    H121378   4.202   0.129   5.446
 7167TIP3    H221379   4.211   0.229   5.334
 7168TIP3   OH221380   5.006   1.175   5.059
 7168TIP3    H121381   5.053   1.104   5.011
 7168TIP3    H221382   4.996   1.136   5.147
 7169TIP3   OH221383   4.913   0.635   5.410
 7169TIP3    H121384   4.949   0.556   5.365
 7169TIP3    H221385   4.998   0.679   5.432
 7170TIP3   OH221386   5.327   0.154   5.441
 7170TIP3    H121387   5.365   0.074   5.480
 7170TIP3    H221388   5.297   0.124   5.353
 7171TIP3   OH221389   4.296  -0.003   5.516
 7171TIP3    H121390   4.376  -0.029   5.566
 7171TIP3    H221391   4.311  -0.058   5.436
 7172TIP3   OH221392   4.738   0.198   5.310
 7172TIP3    H121393   4.829   0.165   5.325
 7172TIP3    H221394   4.692   0.116   5.280
 7173TIP3   OH221395   5.985   0.150   5.583
 7173TIP3    H121396   5.906   0.208   5.584
 7173TIP3    H221397   6.020   0.168   5.671
 7174TIP3   OH221398   5.011   0.634   4.849
 7174TIP3    H121399   4.962   0.607   4.770
 7174TIP3    H221400   4.966   0.717   4.872
 7175TIP3   OH221401   4.767   0.554   5.642
 7175TIP3    H121402   4.702   0.617   5.680
 7175TIP3    H221403   4.808   0.607   5.571
 7176TIP3   OH221404   4.533  -0.095   5.613
 7176TIP3    H121405   4.600  -0.029   5.639
 7176TIP3    H221406   4.576  -0.141   5.540
 7177TIP3   OH221407   4.592   0.747   5.735
 7177TIP3    H121408   4.566   0.833   5.696
 7177TIP3    H221409   4.514   0.731   5.793
 7178TIP3   OH221410   3.990   0.439   4.972
 7178TIP3    H121411   3.947   0.464   4.888
 7178TIP3    H221412   4.019   0.524   5.008
 7179TIP3   OH221413   5.427   0.953   5.213
 7179TIP3    H121414   5.337   0.944   5.251
 7179TIP3    H221415   5.420   1.039   5.168
 7180TIP3   OH221416   5.132   1.004   4.887
 7180TIP3    H121417   5.182   0.921   4.867
 7180TIP3    H221418   5.192   1.069   4.845
 7181TIP3   OH221419   5.273   0.788   4.791
 7181TIP3    H121420   5.228   0.710   4.755
 7181TIP3    H221421   5.308   0.752   4.876
 7182TIP3   OH221422   5.654   0.871   5.554
 7182TIP3    H121423   5.645   0.788   5.501
 7182TIP3    H221424   5.645   0.939   5.486
 7183TIP3   OH221425   4.940   0.264   4.804
 7183TIP3    H121426   4.855   0.311   4.796
 7183TIP3    H221427   4.972   0.271   4.714
 7184TIP3   OH221428   4.913   0.048   4.518
 7184TIP3    H121429   4.986   0.082   4.572
 7184TIP3    H221430   4.944  -0.043   4.502
 7185TIP3   OH221431   5.873   0.516   5.397
 7185TIP3    H121432   5.779   0.533   5.419
 7185TIP3    H221433   5.875   0.536   5.302
 7186TIP3   OH221434   5.291   0.338   4.787
 7186TIP3    H121435   5.237   0.371   4.863
 7186TIP3    H221436   5.376   0.318   4.833
 7187TIP3   OH221437   4.527   0.344   5.199
 7187TIP3    H121438   4.482   0.285   5.134
 7187TIP3    H221439   4.601   0.287   5.229
 7188TIP3   OH221440   4.656   0.757   5.347
 7188TIP3    H121441   4.633   0.706   5.268
 7188TIP3    H221442   4.746   0.722   5.367
 7189TIP3   OH221443   4.663   0.310   5.557
 7189TIP3    H121444   4.693   0.289   5.467
 7189TIP3    H221445   4.707   0.396   5.576
 7190TIP3   OH221446   5.184   0.952   5.333
 7190TIP3    H121447   5.177   1.025   5.396
 7190TIP3    H221448   5.174   0.873   5.390
 7191TIP3   OH221449   4.798   0.872   5.875
 7191TIP3    H121450   4.739   0.933   5.925
 7191TIP3    H221451   4.731   0.817   5.829
 7192TIP3   OH221452   5.189   0.147   4.626
 7192TIP3    H121453   5.211   0.229   4.676
 7192TIP3    H221454   5.180   0.187   4.535
 7193TIP3   OH221455   4.544   0.438   5.974
 7193TIP3    H121456   4.547   0.520   6.026
 7193TIP3    H221457   4.450   0.414   5.982
 7194TIP3   OH221458   4.876   0.883   4.884
 7194TIP3    H121459   4.952   0.939   4.907
 7194TIP3    H221460   4.813   0.946   4.847
 7195TIP3   OH221461   4.593   1.041   5.965
 7195TIP3    H121462   4.558   1.035   5.874
 7195TIP3    H221463   4.514   1.019   6.019
 7196TIP3   OH221464   4.390   0.190   5.009
 7196TIP3    H121465   4.322   0.228   4.949
 7196TIP3    H221466   4.358   0.099   5.020
 7197TIP3   OH221467   5.447   0.812   4.205
 7197TIP3    H121468   5.455   0.909   4.191
 7197TIP3    H221469   5.540   0.783   4.193
 7198TIP3   OH221470   4.172   0.570   5.911
 7198TIP3    H121471   4.108   0.547   5.841
 7198TIP3    H221472   4.209   0.483   5.937
 7199TIP3   OH221473   4.026   0.762   5.545
 7199TIP3    H121474   4.122   0.754   5.536
 7199TIP3    H221475   4.018   0.841   5.600
 7200TIP3   OH221476   5.890   1.211   5.595
 7200TIP3    H121477   5.892   1.114   5.610
 7200TIP3    H221478   5.808   1.234   5.645
 7201TIP3   OH221479   4.996   1.002   5.733
 7201TIP3    H121480   4.996   1.094   5.768
 7201TIP3    H221481   4.925   0.961   5.789
 7202TIP3   OH221482   4.756   1.130   4.686
 7202TIP3    H121483   4.710   1.108   4.603
 7202TIP3    H221484   4.723   1.219   4.706
 7203TIP3   OH221485   4.195   0.979   5.070
 7203TIP3    H121486   4.242   0.968   5.155
 7203TIP3    H221487   4.137   0.901   5.072
 7204TIP3   OH221488   4.959   1.030   4.328
 7204TIP3    H121489   5.018   0.960   4.291
 7204TIP3    H221490   4.993   1.037   4.420
 7205TIP3   OH221491   5.009   1.077   4.600
 7205TIP3    H121492   4.920   1.087   4.641
 7205TIP3    H221493   5.057   1.031   4.670
 7206TIP3   OH221494   4.378   0.753   5.903
 7206TIP3    H121495   4.428   0.735   5.985
 7206TIP3    H221496   4.304   0.689   5.910
 7207TIP3   OH221497   5.458   0.229   5.856
 7207TIP3    H121498   5.502   0.145   5.870
 7207TIP3    H221499   5.521   0.273   5.794
 7208TIP3   OH221500   5.218   0.255   4.378
 7208TIP3    H121501   5.201   0.207   4.294
 7208TIP3    H221502   5.283   0.320   4.347
 7209TIP3   OH221503   4.715   0.088   5.707
 7209TIP3    H121504   4.656   0.109   5.783
 7209TIP3    H221505   4.699   0.166   5.650
 7210TIP3   OH221506   4.580  -0.001   5.210
 7210TIP3    H121507   4.503  -0.052   5.241
 7210TIP3    H221508   4.601  -0.047   5.126
 7211TIP3   OH221509   5.085   0.072   4.930
 7211TIP3    H121510   5.007   0.130   4.920
 7211TIP3    H221511   5.138   0.111   4.860
 7212TIP3   OH221512   5.258   0.394   5.995
 7212TIP3    H121513   5.256   0.338   6.075
 7212TIP3    H221514   5.354   0.392   5.977
 7213TIP3   OH221515   5.243   0.090   5.185
 7213TIP3    H121516   5.187   0.127   5.115
 7213TIP3    H221517   5.272   0.007   5.145
 7214TIP3   OH221518   4.529   0.131   5.907
 7214TIP3    H121519   4.555   0.180   5.987
 7214TIP3    H221520   4.500   0.046   5.943
 7215TIP3   OH221521   5.213   0.339   5.605
 7215TIP3    H121522   5.265   0.275   5.551
 7215TIP3    H221523   5.264   0.337   5.688
 7216TIP3   OH221524   4.350  -0.147   5.286
 7216TIP3    H121525   4.255  -0.131   5.264
 7216TIP3    H221526   4.358  -0.241   5.265
 7217TIP3   OH221527   4.641  -0.121   4.966
 7217TIP3    H121528   4.728  -0.151   4.938
 7217TIP3    H221529   4.585  -0.146   4.890
 7218TIP3   OH221530   5.581   1.568   5.699
 7218TIP3    H121531   5.598   1.593   5.607
 7218TIP3    H221532   5.660   1.606   5.742
 7219TIP3   OH221533   4.538   0.675   6.123
 7219TIP3    H121534   4.619   0.704   6.170
 7219TIP3    H221535   4.474   0.676   6.197
 7220TIP3   OH221536   5.007   0.132   5.377
 7220TIP3    H121537   5.069   0.076   5.328
 7220TIP3    H221538   5.007   0.090   5.464
 7221TIP3   OH221539   4.983   0.010   5.686
 7221TIP3    H121540   4.894   0.050   5.687
 7221TIP3    H221541   5.037   0.073   5.737
 7222TIP3   OH221542   4.716   0.415   4.762
 7222TIP3    H121543   4.643   0.350   4.751
 7222TIP3    H221544   4.697   0.449   4.853
 7223TIP3   OH221545   5.619   0.653   5.394
 7223TIP3    H121546   5.645   0.697   5.310
 7223TIP3    H221547   5.535   0.609   5.370
 7224TIP3   OH221548   5.119   0.737   5.755
 7224TIP3    H121549   5.139   0.706   5.845
 7224TIP3    H221550   5.073   0.821   5.771
 7225TIP3   OH221551   4.410   0.437   5.437
 7225TIP3    H121552   4.447   0.409   5.351
 7225TIP3    H221553   4.445   0.370   5.497
 7226TIP3   OH221554   4.862   0.565   4.584
 7226TIP3    H121555   4.815   0.651   4.591
 7226TIP3    H221556   4.806   0.509   4.641
 7227TIP3   OH221557   4.285   0.361   6.051
 7227TIP3    H121558   4.313   0.344   6.144
 7227TIP3    H221559   4.218   0.292   6.037
 7228TIP3   OH221560   5.010   0.476   6.075
 7228TIP3    H121561   4.944   0.423   6.027
 7228TIP3    H221562   5.094   0.451   6.030
 7229TIP3   OH221563   5.275   1.017   5.642
 7229TIP3    H121564   5.183   0.993   5.660
 7229TIP3    H221565   5.303   1.050   5.731
 7230TIP3   OH221566   5.680   0.058   4.565
 7230TIP3    H121567   5.626   0.009   4.499
 7230TIP3    H221568   5.684   0.145   4.520
 7231TIP3   OH221569   5.906   0.927   5.641
 7231TIP3    H121570   5.808   0.917   5.637
 7231TIP3    H221571   5.930   0.892   5.552
 7232TIP3   OH221572   5.385   0.883   4.470
 7232TIP3    H121573   5.362   0.812   4.532
 7232TIP3    H221574   5.398   0.836   4.385
 7233TIP3   OH221575   5.380   0.517   5.304
 7233TIP3    H121576   5.289   0.486   5.321
 7233TIP3    H221577   5.420   0.435   5.268
 7234TIP3   OH221578   4.508   0.739   5.061
 7234TIP3    H121579   4.508   0.821   5.008
 7234TIP3    H221580   4.413   0.722   5.069
 7235TIP3   OH221581   4.047   0.069   4.742
 7235TIP3    H121582   4.115   0.129   4.778
 7235TIP3    H221583   3.990   0.054   4.820
 7236TIP3   OH221584   4.653   0.508   5.008
 7236TIP3    H121585   4.614   0.596   5.027
 7236TIP3    H221586   4.615   0.455   5.081
 7237TIP3   OH221587   4.777   1.084   5.533
 7237TIP3    H121588   4.818   1.156   5.482
 7237TIP3    H221589   4.853   1.049   5.583
 7238TIP3   OH221590   4.429   0.979   4.914
 7238TIP3    H121591   4.343   0.986   4.960
 7238TIP3    H221592   4.459   1.072   4.917
 7239TIP3   OH221593   5.173   0.721   5.488
 7239TIP3    H121594   5.161   0.716   5.586
 7239TIP3    H221595   5.250   0.664   5.475
 7240TIP3   OH221596   5.139   0.610   4.371
 7240TIP3    H121597   5.191   0.586   4.452
 7240TIP3    H221598   5.050   0.583   4.400
 7241TIP3   OH221599   5.410   1.254   5.548
 7241TIP3    H121600   5.348   1.180   5.567
 7241TIP3    H221601   5.383   1.277   5.459
 7242TIP3   OH221602   5.480   1.087   4.192
 7242TIP3    H121603   5.520   1.159   4.140
 7242TIP3    H221604   5.400   1.134   4.224
 7243TIP3   OH221605   5.300   0.543   4.588
 7243TIP3    H121606   5.290   0.478   4.661
 7243TIP3    H221607   5.397   0.543   4.577
 7244TIP3   OH221608   4.217   0.949   5.691
 7244TIP3    H121609   4.267   0.871   5.718
 7244TIP3    H221610   4.246   1.013   5.757
 7245TIP3   OH221611   4.507   0.592   4.371
 7245TIP3    H121612   4.522   0.500   4.341
 7245TIP3    H221613   4.489   0.578   4.466
 7246TIP3   OH221614   4.453   0.597   4.643
 7246TIP3    H121615   4.520   0.566   4.705
 7246TIP3    H221616   4.460   0.695   4.652
 7247TIP3   OH221617   4.192   0.293   4.848
 7247TIP3    H121618   4.125   0.336   4.904
 7247TIP3    H221619   4.206   0.362   4.781
 7248TIP3   OH221620   4.719   0.795   4.594
 7248TIP3    H121621   4.632   0.823   4.629
 7248TIP3    H221622   4.734   0.862   4.526
 7249TIP3   OH221623   4.933  -0.154   5.007
 7249TIP3    H121624   4.972  -0.067   4.988
 7249TIP3    H221625   4.887  -0.139   5.091
 7250TIP3   OH221626   5.162   0.152   5.865
 7250TIP3    H121627   5.183   0.241   5.898
 7250TIP3    H221628   5.249   0.127   5.828
 7251TIP3   OH221629   4.462   0.871   4.659
 7251TIP3    H121630   4.431   0.940   4.596
 7251TIP3    H221631   4.445   0.914   4.745
 7252TIP3   OH221632   5.470   0.274   5.179
 7252TIP3    H121633   5.398   0.214   5.205
 7252TIP3    H221634   5.545   0.236   5.231
 7253TIP3   OH221635   4.179   0.505   4.652
 7253TIP3    H121636   4.246   0.574   4.661
 7253TIP3    H221637   4.225   0.448   4.586
 7254TIP3   OH221638   5.435   1.221   5.132
 7254TIP3    H121639   5.390   1.281   5.070
 7254TIP3    H221640   5.527   1.248   5.116
 7255TIP3   OH221641   4.056   0.721   5.045
 7255TIP3    H121642   3.977   0.747   5.094
 7255TIP3    H221643   4.034   0.755   4.955
 7256TIP3   OH221644   4.206   1.253   6.111
 7256TIP3    H121645   4.292   1.252   6.158
 7256TIP3    H221646   4.184   1.158   6.110
 7257TIP3   OH221647   4.693   1.225   6.153
 7257TIP3    H121648   4.785   1.200   6.165
 7257TIP3    H221649   4.667   1.165   6.080
 7258TIP3   OH221650   4.671   0.797   4.287
 7258TIP3    H121651   4.614   0.725   4.324
 7258TIP3    H221652   4.745   0.743   4.254
 7259TIP3   OH221653   5.332   1.124   5.887
 7259TIP3    H121654   5.319   1.055   5.956
 7259TIP3    H221655   5.408   1.174   5.922
 7260TIP3   OH221656   5.108   0.839   4.196
 7260TIP3    H121657   5.154   0.776   4.253
 7260TIP3    H221658   5.164   0.840   4.115
 7261TIP3   OH221659   4.338   0.661   6.313
 7261TIP3    H121660   4.355   0.565   6.318
 7261TIP3    H221661   4.250   0.663   6.269
 7262TIP3   OH221662   4.314   0.315   4.503
 7262TIP3    H121663   4.363   0.272   4.575
 7262TIP3    H221664   4.385   0.319   4.435
 7263TIP3   OH221665   4.947   0.747   6.085
 7263TIP3    H121666   4.905   0.756   5.998
 7263TIP3    H221667   4.979   0.654   6.084
 7264TIP3   OH221668   4.821   0.517   4.313
 7264TIP3    H121669   4.823   0.529   4.410
 7264TIP3    H221670   4.822   0.418   4.310
 7265TIP3   OH221671   5.437   0.752   5.693
 7265TIP3    H121672   5.513   0.796   5.651
 7265TIP3    H221673   5.366   0.816   5.677
 7266TIP3   OH221674   4.454   0.385   6.295
 7266TIP3    H121675   4.533   0.334   6.274
 7266TIP3    H221676   4.479   0.420   6.383
 7267TIP3   OH221677   4.524   0.220   4.733
 7267TIP3    H121678   4.498   0.175   4.815
 7267TIP3    H221679   4.561   0.145   4.681
 7268TIP3   OH221680   4.797   0.337   5.952
 7268TIP3    H121681   4.708   0.380   5.951
 7268TIP3    H221682   4.833   0.358   5.864
 7269TIP3   OH221683   4.636   0.025   4.580
 7269TIP3    H121684   4.589  -0.001   4.500
 7269TIP3    H221685   4.728   0.030   4.550
 7270TIP3   OH221686   5.313   0.689   6.091
 7270TIP3    H121687   5.387   0.660   6.036
 7270TIP3    H221688   5.308   0.617   6.157
 7271TIP3   OH221689   5.449   0.341   4.227
 7271TIP3    H121690   5.428   0.296   4.143
 7271TIP3    H221691   5.417   0.431   4.205
 7272TIP3   OH221692   4.836   0.089   6.038
 7272TIP3    H121693   4.923   0.070   6.001
 7272TIP3    H221694   4.820   0.180   6.001
 7273TIP3   OH221695   4.964   0.391   5.745
 7273TIP3    H121696   5.045   0.387   5.690
 7273TIP3    H221697   4.911   0.460   5.702
 7274TIP3   OH221698   5.537   0.368   6.160
 7274TIP3    H121699   5.570   0.282   6.135
 7274TIP3    H221700   5.592   0.429   6.108
 7275TIP3   OH221701   5.566   0.616   5.894
 7275TIP3    H121702   5.507   0.649   5.824
 7275TIP3    H221703   5.651   0.618   5.844
 7276TIP3   OH221704   4.768   0.200   6.309
 7276TIP3    H121705   4.694   0.136   6.312
 7276TIP3    H221706   4.819   0.162   6.236
 7277TIP3   OH221707   5.246   0.220   6.191
 7277TIP3    H121708   5.199   0.191   6.270
 7277TIP3    H221709   5.281   0.135   6.156
 7278TIP3   OH221710   4.430   1.074   4.473
 7278TIP3    H121711   4.526   1.071   4.452
 7278TIP3    H221712   4.399   1.120   4.392
 7279TIP3   OH221713   3.911   0.455   4.689
 7279TIP3    H121714   4.006   0.477   4.676
 7279TIP3    H221715   3.907   0.366   4.648
 7280TIP3   OH221716   3.823   1.067   5.101
 7280TIP3    H121717   3.756   1.004   5.067
 7280TIP3    H221718   3.868   1.011   5.168
 7281TIP3   OH221719   3.959   0.923   5.289
 7281TIP3    H121720   3.950   0.845   5.346
 7281TIP3    H221721   4.010   0.981   5.348
 7282TIP3   OH221722   5.681   1.338   5.086
 7282TIP3    H121723   5.722   1.351   5.173
 7282TIP3    H221724   5.753   1.358   5.025
 7283TIP3   OH221725   5.718   1.338   5.372
 7283TIP3    H121726   5.674   1.251   5.367
 7283TIP3    H221727   5.794   1.314   5.427
 7284TIP3   OH221728   5.764   1.017   5.942
 7284TIP3    H121729   5.690   1.022   6.006
 7284TIP3    H221730   5.805   1.105   5.949
 7285TIP3   OH221731   5.581   0.527   4.562
 7285TIP3    H121732   5.649   0.592   4.536
 7285TIP3    H221733   5.623   0.488   4.643
 7286TIP3   OH221734   5.706   0.395   4.767
 7286TIP3    H121735   5.644   0.353   4.831
 7286TIP3    H221736   5.775   0.433   4.825
 7287TIP3   OH221737   5.759   0.787   5.195
 7287TIP3    H121738   5.818   0.723   5.149
 7287TIP3    H221739   5.752   0.859   5.130
 7288TIP3   OH221740   5.595   1.089   5.390
 7288TIP3    H121741   5.524   1.110   5.453
 7288TIP3    H221742   5.547   1.037   5.322
 7289TIP3   OH221743   5.644   0.298   4.414
 7289TIP3    H121744   5.574   0.310   4.345
 7289TIP3    H221745   5.622   0.375   4.471
 7290TIP3   OH221746   5.509  -0.035   4.372
 7290TIP3    H121747   5.480   0.039   4.318
 7290TIP3    H221748   5.480  -0.110   4.318
 7291TIP3   OH221749   5.522   0.243   4.917
 7291TIP3    H121750   5.553   0.153   4.935
 7291TIP3    H221751   5.505   0.273   5.009
 7292TIP3   OH221752   4.149   0.324   5.661
 7292TIP3    H121753   4.148   0.294   5.567
 7292TIP3    H221754   4.246   0.327   5.677
 7293TIP3   OH221755   5.813   0.678   5.776
 7293TIP3    H121756   5.877   0.603   5.767
 7293TIP3    H221757   5.839   0.737   5.704
 7294TIP3   OH221758   5.978   0.463   5.814
 7294TIP3    H121759   5.910   0.398   5.789
 7294TIP3    H221760   6.059   0.409   5.816
 7295TIP3   OH221761   5.463  -0.038   4.746
 7295TIP3    H121762   5.499  -0.080   4.828
 7295TIP3    H221763   5.547  -0.004   4.710
 7296TIP3   OH221764   5.682   0.178   5.319
 7296TIP3    H121765   5.773   0.188   5.283
 7296TIP3    H221766   5.694   0.205   5.411
 7297TIP3   OH221767   4.140  -0.016   5.743
 7297TIP3    H121768   4.186  -0.033   5.658
 7297TIP3    H221769   4.169   0.074   5.761
 7298TIP3   OH221770   5.276   1.189   4.748
 7298TIP3    H121771   5.317   1.163   4.663
 7298TIP3    H221772   5.341   1.251   4.782
 7299TIP3   OH221773   4.374   0.988   6.133
 7299TIP3    H121774   4.282   0.959   6.116
 7299TIP3    H221775   4.383   0.969   6.227
 7300TIP3   OH221776   4.549   1.018   5.680
 7300TIP3    H121777   4.501   1.094   5.641
 7300TIP3    H221778   4.636   1.032   5.636
 7301TIP3   OH221779   4.999   1.268   5.816
 7301TIP3    H121780   5.040   1.266   5.906
 7301TIP3    H221781   5.067   1.318   5.766
 7302TIP3   OH221782   5.179   1.418   5.672
 7302TIP3    H121783   5.249   1.360   5.638
 7302TIP3    H221784   5.230   1.473   5.736
 7303TIP3   OH221785   4.230   1.281   5.700
 7303TIP3    H121786   4.140   1.315   5.678
 7303TIP3    H221787   4.236   1.307   5.792
 7304TIP3   OH221788   4.466   1.258   5.559
 7304TIP3    H121789   4.380   1.270   5.606
 7304TIP3    H221790   4.444   1.289   5.470
 7305TIP3   OH221791   4.891   1.286   5.358
 7305TIP3    H121792   4.821   1.306   5.292
 7305TIP3    H221793   4.902   1.373   5.401
 7306TIP3   OH221794   5.161   1.241   5.401
 7306TIP3    H121795   5.064   1.235   5.397
 7306TIP3    H221796   5.177   1.307   5.334
 7307TIP3   OH221797   4.141   1.073   5.449
 7307TIP3    H121798   4.167   1.047   5.540
 7307TIP3    H221799   4.211   1.028   5.398
 7308TIP3   OH221800   4.332   0.943   5.303
 7308TIP3    H121801   4.348   0.858   5.351
 7308TIP3    H221802   4.423   0.979   5.299
 7309TIP3   OH221803   4.600   1.040   5.304
 7309TIP3    H121804   4.630   0.948   5.291
 7309TIP3    H221805   4.641   1.058   5.391
 7310TIP3   OH221806   3.928   0.840   4.839
 7310TIP3    H121807   3.843   0.806   4.805
 7310TIP3    H221808   3.914   0.935   4.826
 7311TIP3   OH221809   4.699   1.035   4.420
 7311TIP3    H121810   4.788   1.056   4.384
 7311TIP3    H221811   4.677   0.959   4.361
 7312TIP3   OH221812   5.415   1.149   4.514
 7312TIP3    H121813   5.409   1.051   4.499
 7312TIP3    H221814   5.373   1.182   4.432
 7313TIP3   OH221815   4.005   0.873   4.479
 7313TIP3    H121816   4.002   0.895   4.573
 7313TIP3    H221817   4.092   0.830   4.470
 7314TIP3   OH221818   5.647   1.297   5.702
 7314TIP3    H121819   5.566   1.262   5.660
 7314TIP3    H221820   5.625   1.392   5.706
 7315TIP3   OH221821   6.906   0.661   4.467
 7315TIP3    H121822   6.898   0.757   4.448
 7315TIP3    H221823   6.814   0.637   4.458
 7316TIP3   OH221824   6.922   0.657   4.839
 7316TIP3    H121825   6.942   0.637   4.932
 7316TIP3    H221826   6.866   0.581   4.815
 7317TIP3   OH221827   6.209   0.565   5.209
 7317TIP3    H121828   6.242   0.500   5.274
 7317TIP3    H221829   6.283   0.627   5.207
 7318TIP3   OH221830   7.151   0.967   4.529
 7318TIP3    H121831   7.141   0.898   4.596
 7318TIP3    H221832   7.177   1.044   4.582
 7319TIP3   OH221833   6.159   0.958   4.975
 7319TIP3    H121834   6.166   0.861   4.960
 7319TIP3    H221835   6.244   0.988   4.942
 7320TIP3   OH221836   5.881   0.166   4.731
 7320TIP3    H121837   5.837   0.251   4.747
 7320TIP3    H221838   5.813   0.119   4.679
 7321TIP3   OH221839   5.948   0.458   4.887
 7321TIP3    H121840   5.996   0.384   4.931
 7321TIP3    H221841   6.015   0.492   4.828
 7322TIP3   OH221842   6.803   1.435   4.543
 7322TIP3    H121843   6.854   1.362   4.502
 7322TIP3    H221844   6.780   1.398   4.629
 7323TIP3   OH221845   6.718   0.873   4.918
 7323TIP3    H121846   6.744   0.816   4.844
 7323TIP3    H221847   6.799   0.927   4.928
 7324TIP3   OH221848   7.123   0.402   4.932
 7324TIP3    H121849   7.159   0.315   4.957
 7324TIP3    H221850   7.086   0.383   4.844
 7325TIP3   OH221851   6.093   0.255   5.000
 7325TIP3    H121852   6.172   0.229   5.053
 7325TIP3    H221853   6.109   0.199   4.922
 7326TIP3   OH221854   6.538   0.455   4.790
 7326TIP3    H121855   6.626   0.420   4.812
 7326TIP3    H221856   6.490   0.372   4.766
 7327TIP3   OH221857   7.766   0.395   5.085
 7327TIP3    H121858   7.706   0.467   5.059
 7327TIP3    H221859   7.819   0.434   5.156
 7328TIP3   OH221860   6.807   0.888   4.339
 7328TIP3    H121861   6.764   0.863   4.257
 7328TIP3    H221862   6.764   0.975   4.357
 7329TIP3   OH221863   6.561   0.808   5.134
 7329TIP3    H121864   6.499   0.877   5.166
 7329TIP3    H221865   6.604   0.852   5.058
 7330TIP3   OH221866   6.329   0.162   5.100
 7330TIP3    H121867   6.396   0.228   5.125
 7330TIP3    H221868   6.372   0.113   5.028
 7331TIP3   OH221869   6.389   1.005   5.223
 7331TIP3    H121870   6.363   1.089   5.181
 7331TIP3    H221871   6.309   0.990   5.279
 7332TIP3   OH221872   5.786   0.694   4.459
 7332TIP3    H121873   5.744   0.723   4.376
 7332TIP3    H221874   5.816   0.779   4.497
 7333TIP3   OH221875   7.228   1.211   4.699
 7333TIP3    H121876   7.138   1.201   4.740
 7333TIP3    H221877   7.217   1.296   4.653
 7334TIP3   OH221878   6.937   1.260   4.383
 7334TIP3    H121879   6.981   1.177   4.354
 7334TIP3    H221880   6.991   1.325   4.333
 7335TIP3   OH221881   7.070   1.044   4.275
 7335TIP3    H121882   7.033   0.964   4.234
 7335TIP3    H221883   7.103   1.007   4.360
 7336TIP3   OH221884   7.451   1.126   5.041
 7336TIP3    H121885   7.439   1.048   4.982
 7336TIP3    H221886   7.433   1.200   4.980
 7337TIP3   OH221887   6.697   0.292   4.078
 7337TIP3    H121888   6.775   0.353   4.088
 7337TIP3    H221889   6.742   0.219   4.031
 7338TIP3   OH221890   7.646   0.760   4.889
 7338TIP3    H121891   7.563   0.812   4.893
 7338TIP3    H221892   7.674   0.780   4.797
 7339TIP3   OH221893   7.090   0.602   4.268
 7339TIP3    H121894   7.035   0.624   4.346
 7339TIP3    H221895   7.173   0.572   4.310
 7340TIP3   OH221896   7.322   0.647   5.174
 7340TIP3    H121897   7.319   0.732   5.222
 7340TIP3    H221898   7.237   0.653   5.126
 7341TIP3   OH221899   6.319   0.594   4.687
 7341TIP3    H121900   6.284   0.537   4.616
 7341TIP3    H221901   6.398   0.543   4.716
 7342TIP3   OH221902   6.465   0.566   5.042
 7342TIP3    H121903   6.494   0.552   4.950
 7342TIP3    H221904   6.502   0.654   5.064
 7343TIP3   OH221905   6.987   1.208   4.819
 7343TIP3    H121906   6.967   1.287   4.872
 7343TIP3    H221907   6.971   1.134   4.881
 7344TIP3   OH221908   6.595   1.126   5.366
 7344TIP3    H121909   6.535   1.190   5.410
 7344TIP3    H221910   6.529   1.073   5.316
 7345TIP3   OH221911   6.914   0.454   4.098
 7345TIP3    H121912   6.980   0.496   4.158
 7345TIP3    H221913   6.952   0.478   4.011
 7346TIP3   OH221914   6.340   0.693   5.459
 7346TIP3    H121915   6.344   0.776   5.510
 7346TIP3    H221916   6.246   0.669   5.474
 7347TIP3   OH221917   6.677   1.137   4.361
 7347TIP3    H121918   6.742   1.195   4.401
 7347TIP3    H221919   6.603   1.196   4.342
 7348TIP3   OH221920   6.390   1.299   5.451
 7348TIP3    H121921   6.357   1.295   5.359
 7348TIP3    H221922   6.310   1.276   5.503
 7349TIP3   OH221923   6.193   0.440   4.474
 7349TIP3    H121924   6.116   0.484   4.432
 7349TIP3    H221925   6.153   0.361   4.513
 7350TIP3   OH221926   7.242   1.068   3.691
 7350TIP3    H121927   7.251   1.165   3.679
 7350TIP3    H221928   7.335   1.039   3.679
 7351TIP3   OH221929   5.968   0.825   5.397
 7351TIP3    H121930   5.902   0.800   5.329
 7351TIP3    H221931   6.003   0.737   5.424
 7352TIP3   OH221932   5.827   1.020   5.028
 7352TIP3    H121933   5.921   1.000   5.017
 7352TIP3    H221934   5.829   1.092   5.092
 7353TIP3   OH221935   7.687   1.468   5.085
 7353TIP3    H121936   7.686   1.372   5.098
 7353TIP3    H221937   7.604   1.493   5.132
 7354TIP3   OH221938   6.801   1.254   5.227
 7354TIP3    H121939   6.796   1.348   5.256
 7354TIP3    H221940   6.724   1.216   5.274
 7355TIP3   OH221941   6.552   1.390   4.170
 7355TIP3    H121942   6.503   1.368   4.089
 7355TIP3    H221943   6.519   1.479   4.193
 7356TIP3   OH221944   5.988   1.236   4.561
 7356TIP3    H121945   6.063   1.229   4.623
 7356TIP3    H221946   5.940   1.153   4.574
 7357TIP3   OH221947   6.756   1.286   3.815
 7357TIP3    H121948   6.814   1.216   3.779
 7357TIP3    H221949   6.788   1.294   3.907
 7358TIP3   OH221950   6.804   1.333   4.086
 7358TIP3    H121951   6.715   1.344   4.127
 7358TIP3    H221952   6.851   1.287   4.157
 7359TIP3   OH221953   7.580   0.596   5.374
 7359TIP3    H121954   7.508   0.632   5.320
 7359TIP3    H221955   7.598   0.512   5.331
 7360TIP3   OH221956   6.173   1.010   5.392
 7360TIP3    H121957   6.224   0.989   5.473
 7360TIP3    H221958   6.100   0.944   5.396
 7361TIP3   OH221959   7.254   0.464   5.376
 7361TIP3    H121960   7.298   0.379   5.362
 7361TIP3    H221961   7.274   0.516   5.296
 7362TIP3   OH221962   6.997   0.515   3.840
 7362TIP3    H121963   6.975   0.472   3.755
 7362TIP3    H221964   7.080   0.561   3.818
 7363TIP3   OH221965   6.513   0.344   5.194
 7363TIP3    H121966   6.453   0.364   5.270
 7363TIP3    H221967   6.496   0.423   5.137
 7364TIP3   OH221968   6.372   0.259   4.696
 7364TIP3    H121969   6.299   0.203   4.732
 7364TIP3    H221970   6.396   0.211   4.616
 7365TIP3   OH221971   7.057   0.648   5.481
 7365TIP3    H121972   7.047   0.594   5.563
 7365TIP3    H221973   7.153   0.648   5.475
 7366TIP3   OH221974   7.038   0.344   4.674
 7366TIP3    H121975   7.010   0.404   4.604
 7366TIP3    H221976   7.087   0.276   4.626
 7367TIP3   OH221977   6.327   0.387   5.393
 7367TIP3    H121978   6.343   0.439   5.473
 7367TIP3    H221979   6.285   0.307   5.428
 7368TIP3   OH221980   7.051   0.601   5.098
 7368TIP3    H121981   7.079   0.527   5.039
 7368TIP3    H221982   7.019   0.554   5.176
 7369TIP3   OH221983   6.149   0.107   4.769
 7369TIP3    H121984   6.053   0.119   4.750
 7369TIP3    H221985   6.156   0.010   4.769
 7370TIP3   OH221986   6.460   0.174   4.396
 7370TIP3    H121987   6.508   0.096   4.431
 7370TIP3    H221988   6.373   0.135   4.370
 7371TIP3   OH221989   6.243   0.142   4.235
 7371TIP3    H121990   6.178   0.089   4.186
 7371TIP3    H221991   6.304   0.162   4.162
 7372TIP3   OH221992   7.375   1.822   5.185
 7372TIP3    H121993   7.376   1.840   5.089
 7372TIP3    H221994   7.457   1.866   5.215
 7373TIP3   OH221995   6.334   0.930   5.609
 7373TIP3    H121996   6.414   0.961   5.657
 7373TIP3    H221997   6.269   0.930   5.683
 7374TIP3   OH221998   6.804   0.387   4.870
 7374TIP3    H121999   6.865   0.333   4.818
 7374TIP3    H222000   6.799   0.338   4.954
 7375TIP3   OH222001   6.782   0.276   5.162
 7375TIP3    H122002   6.690   0.308   5.171
 7375TIP3    H222003   6.832   0.335   5.221
 7376TIP3   OH222004   6.515   0.679   4.247
 7376TIP3    H122005   6.455   0.602   4.248
 7376TIP3    H222006   6.506   0.710   4.340
 7377TIP3   OH222007   7.414   0.907   4.879
 7377TIP3    H122008   7.439   0.955   4.797
 7377TIP3    H222009   7.328   0.866   4.855
 7378TIP3   OH222010   6.921   0.993   5.244
 7378TIP3    H122011   6.928   0.965   5.336
 7378TIP3    H222012   6.874   1.078   5.251
 7379TIP3   OH222013   6.202   0.687   4.923
 7379TIP3    H122014   6.244   0.661   4.838
 7379TIP3    H222015   6.241   0.624   4.985
 7380TIP3   OH222016   6.658   0.822   4.063
 7380TIP3    H122017   6.609   0.906   4.074
 7380TIP3    H222018   6.611   0.764   4.127
 7381TIP3   OH222019   6.087   0.617   5.539
 7381TIP3    H122020   6.104   0.596   5.633
 7381TIP3    H222021   6.014   0.556   5.514
 7382TIP3   OH222022   6.807   0.732   5.562
 7382TIP3    H122023   6.739   0.681   5.515
 7382TIP3    H222024   6.889   0.708   5.513
 7383TIP3   OH222025   7.076   1.254   5.138
 7383TIP3    H122026   6.980   1.245   5.152
 7383TIP3    H222027   7.101   1.303   5.219
 7384TIP3   OH222028   7.488   0.310   4.045
 7384TIP3    H122029   7.429   0.262   3.982
 7384TIP3    H222030   7.480   0.400   4.007
 7385TIP3   OH222031   7.701   1.176   5.131
 7385TIP3    H122032   7.603   1.172   5.121
 7385TIP3    H222033   7.727   1.147   5.041
 7386TIP3   OH222034   7.184   1.139   3.957
 7386TIP3    H122035   7.157   1.070   4.019
 7386TIP3    H222036   7.194   1.091   3.873
 7387TIP3   OH222037   7.181   0.768   4.800
 7387TIP3    H122038   7.087   0.740   4.810
 7387TIP3    H222039   7.216   0.690   4.752
 7388TIP3   OH222040   6.301   0.985   4.525
 7388TIP3    H122041   6.331   1.077   4.541
 7388TIP3    H222042   6.212   0.990   4.560
 7389TIP3   OH222043   5.871   0.299   4.254
 7389TIP3    H122044   5.915   0.384   4.271
 7389TIP3    H222045   5.792   0.307   4.311
 7390TIP3   OH222046   6.453   0.758   4.497
 7390TIP3    H122047   6.413   0.848   4.504
 7390TIP3    H222048   6.413   0.716   4.575
 7391TIP3   OH222049   6.579   1.341   5.051
 7391TIP3    H122050   6.590   1.386   4.966
 7391TIP3    H222051   6.670   1.313   5.073
 7392TIP3   OH222052   6.205   1.248   4.373
 7392TIP3    H122053   6.130   1.244   4.433
 7392TIP3    H222054   6.267   1.298   4.431
 7393TIP3   OH222055   6.971   0.977   4.975
 7393TIP3    H122056   6.959   0.975   5.073
 7393TIP3    H222057   7.048   0.920   4.964
 7394TIP3   OH222058   6.935   0.867   3.859
 7394TIP3    H122059   6.989   0.842   3.937
 7394TIP3    H222060   6.848   0.840   3.891
 7395TIP3   OH222061   7.212   1.512   5.029
 7395TIP3    H122062   7.135   1.452   5.022
 7395TIP3    H222063   7.195   1.574   4.955
 7396TIP3   OH222064   7.277   1.344   3.679
 7396TIP3    H122065   7.315   1.416   3.626
 7396TIP3    H222066   7.197   1.389   3.712
 7397TIP3   OH222067   7.096   0.805   4.076
 7397TIP3    H122068   7.082   0.733   4.141
 7397TIP3    H222069   7.193   0.800   4.065
 7398TIP3   OH222070   6.007   1.207   5.182
 7398TIP3    H122071   6.060   1.127   5.194
 7398TIP3    H222072   6.050   1.267   5.244
 7399TIP3   OH222073   6.302   0.850   3.858
 7399TIP3    H122074   6.321   0.759   3.829
 7399TIP3    H222075   6.289   0.838   3.954
 7400TIP3   OH222076   6.252   0.851   4.133
 7400TIP3    H122077   6.319   0.831   4.200
 7400TIP3    H222078   6.252   0.949   4.135
 7401TIP3   OH222079   5.985   0.549   4.330
 7401TIP3    H122080   5.920   0.592   4.390
 7401TIP3    H222081   5.998   0.622   4.267
 7402TIP3   OH222082   6.512   1.050   4.077
 7402TIP3    H122083   6.427   1.078   4.115
 7402TIP3    H222084   6.531   1.126   4.020
 7403TIP3   OH222085   6.727   0.144   4.478
 7403TIP3    H122086   6.814   0.181   4.497
 7403TIP3    H222087   6.693   0.125   4.566
 7404TIP3   OH222088   6.963   0.422   5.333
 7404TIP3    H122089   6.982   0.503   5.385
 7404TIP3    H222090   7.053   0.385   5.327
 7405TIP3   OH222091   6.253   1.124   4.139
 7405TIP3    H122092   6.225   1.196   4.079
 7405TIP3    H222093   6.236   1.166   4.227
 7406TIP3   OH222094   7.263   0.528   4.670
 7406TIP3    H122095   7.196   0.464   4.697
 7406TIP3    H222096   7.343   0.490   4.714
 7407TIP3   OH222097   5.975   0.760   4.142
 7407TIP3    H122098   6.036   0.835   4.153
 7407TIP3    H222099   6.021   0.712   4.070
 7408TIP3   OH222100   5.903   0.014   4.259
 7408TIP3    H122101   5.935   0.106   4.262
 7408TIP3    H222102   5.814   0.026   4.293
 7409TIP3   OH222103   7.231   1.485   4.622
 7409TIP3    H122104   7.188   1.530   4.547
 7409TIP3    H222105   7.325   1.503   4.600
 7410TIP3   OH222106   5.850   0.973   4.533
 7410TIP3    H122107   5.770   1.006   4.577
 7410TIP3    H222108   5.838   1.011   4.444
 7411TIP3   OH222109   6.002   1.509   5.599
 7411TIP3    H122110   6.088   1.507   5.645
 7411TIP3    H222111   5.982   1.414   5.596
 7412TIP3   OH222112   6.488   1.481   5.640
 7412TIP3    H122113   6.581   1.456   5.650
 7412TIP3    H222114   6.461   1.422   5.567
 7413TIP3   OH222115   6.467   1.053   3.771
 7413TIP3    H122116   6.410   0.984   3.812
 7413TIP3    H222117   6.542   0.999   3.744
 7414TIP3   OH222118   7.126   1.384   5.376
 7414TIP3    H122119   7.114   1.313   5.444
 7414TIP3    H222120   7.203   1.433   5.409
 7415TIP3   OH222121   6.904   1.095   3.682
 7415TIP3    H122122   6.947   1.030   3.741
 7415TIP3    H222123   6.962   1.095   3.604
 7416TIP3   OH222124   6.134   0.917   5.799
 7416TIP3    H122125   6.148   0.821   5.805
 7416TIP3    H222126   6.046   0.921   5.756
 7417TIP3   OH222127   6.106   0.574   3.985
 7417TIP3    H122128   6.158   0.539   4.057
 7417TIP3    H222129   6.174   0.579   3.914
 7418TIP3   OH222130   6.743   1.004   5.572
 7418TIP3    H122131   6.699   1.016   5.486
 7418TIP3    H222132   6.773   0.910   5.568
 7419TIP3   OH222133   6.614   0.770   3.797
 7419TIP3    H122134   6.622   0.784   3.894
 7419TIP3    H222135   6.617   0.672   3.793
 7420TIP3   OH222136   7.237   1.006   5.179
 7420TIP3    H122137   7.306   1.058   5.133
 7420TIP3    H222138   7.161   1.065   5.169
 7421TIP3   OH222139   6.246   0.640   5.784
 7421TIP3    H122140   6.324   0.587   5.763
 7421TIP3    H222141   6.272   0.675   5.872
 7422TIP3   OH222142   6.378   0.428   4.256
 7422TIP3    H122143   6.300   0.432   4.316
 7422TIP3    H222144   6.341   0.384   4.177
 7423TIP3   OH222145   6.594   0.597   5.440
 7423TIP3    H122146   6.504   0.636   5.442
 7423TIP3    H222147   6.624   0.614   5.349
 7424TIP3   OH222148   6.427   0.256   4.056
 7424TIP3    H122149   6.388   0.261   3.965
 7424TIP3    H222150   6.522   0.267   4.033
 7425TIP3   OH222151   7.107   0.944   5.582
 7425TIP3    H122152   7.183   0.916   5.530
 7425TIP3    H222153   7.101   0.873   5.649
 7426TIP3   OH222154   7.244   0.598   3.715
 7426TIP3    H122155   7.220   0.550   3.634
 7426TIP3    H222156   7.211   0.688   3.691
 7427TIP3   OH222157   6.631   0.349   5.530
 7427TIP3    H122158   6.712   0.321   5.486
 7427TIP3    H222159   6.619   0.441   5.491
 7428TIP3   OH222160   6.765   0.653   5.227
 7428TIP3    H122161   6.837   0.669   5.165
 7428TIP3    H222162   6.699   0.719   5.197
 7429TIP3   OH222163   7.331   0.628   5.642
 7429TIP3    H122164   7.365   0.539   5.628
 7429TIP3    H222165   7.397   0.683   5.598
 7430TIP3   OH222166   7.369   0.864   5.365
 7430TIP3    H122167   7.308   0.918   5.309
 7430TIP3    H222168   7.455   0.888   5.324
 7431TIP3   OH222169   6.569   0.457   5.795
 7431TIP3    H122170   6.492   0.398   5.804
 7431TIP3    H222171   6.613   0.415   5.720
 7432TIP3   OH222172   7.042   0.477   5.679
 7432TIP3    H122173   6.990   0.449   5.756
 7432TIP3    H222174   7.078   0.392   5.645
 7433TIP3   OH222175   6.225   1.330   3.955
 7433TIP3    H122176   6.321   1.326   3.939
 7433TIP3    H222177   6.197   1.378   3.876
 7434TIP3   OH222178   5.707   0.710   4.176
 7434TIP3    H122179   5.801   0.733   4.163
 7434TIP3    H222180   5.703   0.621   4.135
 7435TIP3   OH222181   5.617   1.323   4.590
 7435TIP3    H122182   5.552   1.258   4.555
 7435TIP3    H222183   5.665   1.267   4.655
 7436TIP3   OH222184   5.754   1.179   4.778
 7436TIP3    H122185   5.749   1.100   4.835
 7436TIP3    H222186   5.812   1.235   4.832
 7437TIP3   OH222187   7.483   1.578   4.573
 7437TIP3    H122188   7.512   1.609   4.661
 7437TIP3    H222189   7.547   1.620   4.514
 7438TIP3   OH222190   7.515   1.597   4.857
 7438TIP3    H122191   7.470   1.510   4.852
 7438TIP3    H222192   7.590   1.572   4.914
 7439TIP3   OH222193   7.561   1.271   5.430
 7439TIP3    H122194   7.487   1.279   5.493
 7439TIP3    H222195   7.601   1.360   5.435
 7440TIP3   OH222196   7.377   0.785   4.050
 7440TIP3    H122197   7.448   0.848   4.024
 7440TIP3    H222198   7.417   0.744   4.130
 7441TIP3   OH222199   7.505   0.653   4.252
 7441TIP3    H122200   7.439   0.609   4.310
 7441TIP3    H222201   7.568   0.691   4.317
 7442TIP3   OH222202   7.558   1.043   4.688
 7442TIP3    H122203   7.610   0.979   4.636
 7442TIP3    H222204   7.545   1.116   4.624
 7443TIP3   OH222205   7.391   1.346   4.882
 7443TIP3    H122206   7.319   1.385   4.934
 7443TIP3    H222207   7.341   1.296   4.813
 7444TIP3   OH222208   7.443   0.558   3.900
 7444TIP3    H122209   7.371   0.565   3.833
 7444TIP3    H222210   7.417   0.633   3.958
 7445TIP3   OH222211   7.323   0.216   3.849
 7445TIP3    H122212   7.273   0.279   3.796
 7445TIP3    H222213   7.251   0.160   3.885
 7446TIP3   OH222214   7.322   0.514   4.400
 7446TIP3    H122215   7.317   0.418   4.378
 7446TIP3    H222216   7.309   0.516   4.497
 7447TIP3   OH222217   5.945   0.592   5.135
 7447TIP3    H122218   5.947   0.557   5.044
 7447TIP3    H222219   6.040   0.588   5.158
 7448TIP3   OH222220   7.611   0.928   5.257
 7448TIP3    H122221   7.685   0.865   5.244
 7448TIP3    H222222   7.634   1.000   5.195
 7449TIP3   OH222223   7.797   0.728   5.273
 7449TIP3    H122224   7.729   0.680   5.323
 7449TIP3    H222225   7.878   0.684   5.302
 7450TIP3   OH222226   7.305   0.264   4.285
 7450TIP3    H122227   7.350   0.197   4.340
 7450TIP3    H222228   7.353   0.259   4.201
 7451TIP3   OH222229   7.481   0.431   4.796
 7451TIP3    H122230   7.570   0.441   4.754
 7451TIP3    H222231   7.503   0.451   4.888
 7452TIP3   OH222232   7.544   0.552   5.042
 7452TIP3    H122233   7.460   0.593   5.072
 7452TIP3    H222234   7.580   0.623   4.983
 7453TIP3   OH222235   5.931   0.240   5.225
 7453TIP3    H122236   5.984   0.235   5.143
 7453TIP3    H222237   5.960   0.323   5.264
 7454TIP3   OH222238   7.069   1.442   4.232
 7454TIP3    H122239   7.118   1.423   4.150
 7454TIP3    H222240   7.126   1.507   4.275
 7455TIP3   OH222241   6.169   1.249   5.621
 7455TIP3    H122242   6.080   1.214   5.600
 7455TIP3    H222243   6.178   1.223   5.714
 7456TIP3   OH222244   6.342   1.276   5.168
 7456TIP3    H122245   6.299   1.352   5.124
 7456TIP3    H222246   6.432   1.288   5.130
 7457TIP3   OH222247   6.795   1.523   5.305
 7457TIP3    H122248   6.838   1.523   5.394
 7457TIP3    H222249   6.861   1.573   5.252
 7458TIP3   OH222250   6.973   1.675   5.160
 7458TIP3    H122251   7.041   1.619   5.120
 7458TIP3    H222252   7.026   1.728   5.222
 7459TIP3   OH222253   6.024   1.534   5.186
 7459TIP3    H122254   5.937   1.573   5.167
 7459TIP3    H222255   6.036   1.559   5.278
 7460TIP3   OH222256   6.265   1.520   5.050
 7460TIP3    H122257   6.176   1.532   5.090
 7460TIP3    H222258   6.248   1.540   4.956
 7461TIP3   OH222259   6.696   1.548   4.834
 7461TIP3    H122260   6.616   1.557   4.778
 7461TIP3    H222261   6.697   1.633   4.881
 7462TIP3   OH222262   6.956   1.485   4.898
 7462TIP3    H122263   6.861   1.496   4.876
 7462TIP3    H222264   6.994   1.560   4.850
 7463TIP3   OH222265   7.171   1.680   4.812
 7463TIP3    H122266   7.150   1.761   4.761
 7463TIP3    H222267   7.191   1.616   4.741
 7464TIP3   OH222268   5.944   1.324   4.936
 7464TIP3    H122269   5.964   1.299   5.029
 7464TIP3    H222270   6.027   1.295   4.895
 7465TIP3   OH222271   5.722   1.095   4.327
 7465TIP3    H122272   5.637   1.066   4.291
 7465TIP3    H222273   5.714   1.191   4.313
 7466TIP3   OH222274   6.494   1.291   3.906
 7466TIP3    H122275   6.583   1.312   3.871
 7466TIP3    H222276   6.473   1.215   3.848
 7467TIP3   OH222277   7.215   1.406   4.000
 7467TIP3    H122278   7.206   1.309   3.987
 7467TIP3    H222279   7.169   1.439   3.919
 7468TIP3   OH222280   5.800   1.127   3.967
 7468TIP3    H122281   5.801   1.154   4.060
 7468TIP3    H222282   5.889   1.087   3.956
 7469TIP3   OH222283   7.442   1.552   5.188
 7469TIP3    H122284   7.363   1.518   5.142
 7469TIP3    H222285   7.420   1.648   5.191
 7470TIP3   OH222286   8.709   0.924   3.949
 7470TIP3    H122287   8.684   1.018   3.941
 7470TIP3    H222288   8.625   0.880   3.924
 7471TIP3   OH222289   8.695   0.917   4.334
 7471TIP3    H122290   8.732   0.893   4.421
 7471TIP3    H222291   8.655   0.833   4.307
 7472TIP3   OH222292   8.005   0.823   4.700
 7472TIP3    H122293   8.040   0.757   4.762
 7472TIP3    H222294   8.084   0.878   4.686
 7473TIP3   OH222295   8.946   1.225   4.015
 7473TIP3    H122296   8.943   1.156   4.083
 7473TIP3    H222297   8.976   1.301   4.069
 7474TIP3   OH222298   7.976   1.228   4.428
 7474TIP3    H122299   7.967   1.131   4.430
 7474TIP3    H222300   8.072   1.236   4.423
 7475TIP3   OH222301   7.677   0.425   4.217
 7475TIP3    H122302   7.628   0.508   4.231
 7475TIP3    H222303   7.612   0.375   4.165
 7476TIP3   OH222304   7.747   0.719   4.382
 7476TIP3    H122305   7.794   0.642   4.420
 7476TIP3    H222306   7.803   0.741   4.306
 7477TIP3   OH222307   8.597   1.686   4.031
 7477TIP3    H122308   8.643   1.611   3.987
 7477TIP3    H222309   8.592   1.655   4.122
 7478TIP3   OH222310   8.505   1.147   4.384
 7478TIP3    H122311   8.542   1.069   4.339
 7478TIP3    H222312   8.589   1.193   4.405
 7479TIP3   OH222313   8.924   0.668   4.412
 7479TIP3    H122314   8.946   0.581   4.449
 7479TIP3    H222315   8.894   0.645   4.322
 7480TIP3   OH222316   7.888   0.510   4.489
 7480TIP3    H122317   7.969   0.484   4.540
 7480TIP3    H222318   7.903   0.456   4.410
 7481TIP3   OH222319   8.331   0.712   4.284
 7481TIP3    H122320   8.421   0.678   4.299
 7481TIP3    H222321   8.285   0.630   4.253
 7482TIP3   OH222322   8.615   1.158   3.812
 7482TIP3    H122323   8.556   1.119   3.747
 7482TIP3    H222324   8.562   1.235   3.842
 7483TIP3   OH222325   8.361   1.067   4.618
 7483TIP3    H122326   8.295   1.130   4.654
 7483TIP3    H222327   8.400   1.118   4.545
 7484TIP3   OH222328   8.126   0.419   4.587
 7484TIP3    H122329   8.194   0.485   4.611
 7484TIP3    H222330   8.167   0.371   4.514
 7485TIP3   OH222331   8.184   1.260   4.709
 7485TIP3    H122332   8.159   1.345   4.669
 7485TIP3    H222333   8.106   1.245   4.766
 7486TIP3   OH222334   7.584   0.952   3.946
 7486TIP3    H122335   7.539   0.977   3.863
 7486TIP3    H222336   7.611   1.038   3.982
 7487TIP3   OH222337   9.010   1.452   4.175
 7487TIP3    H122338   8.920   1.453   4.215
 7487TIP3    H222339   9.015   1.541   4.137
 7488TIP3   OH222340   8.722   1.504   3.864
 7488TIP3    H122341   8.782   1.429   3.844
 7488TIP3    H222342   8.776   1.579   3.829
 7489TIP3   OH222343   8.874   1.281   3.755
 7489TIP3    H122344   8.792   1.227   3.754
 7489TIP3    H222345   8.909   1.259   3.844
 7490TIP3   OH222346   8.532   0.777   3.786
 7490TIP3    H122347   8.450   0.825   3.762
 7490TIP3    H222348   8.578   0.771   3.700
 7491TIP3   OH222349   8.493   0.563   3.503
 7491TIP3    H122350   8.567   0.608   3.548
 7491TIP3    H222351   8.540   0.490   3.459
 7492TIP3   OH222352   8.894   0.853   3.767
 7492TIP3    H122353   8.826   0.882   3.832
 7492TIP3    H222354   8.971   0.849   3.826
 7493TIP3   OH222355   9.126   0.906   4.653
 7493TIP3    H122356   9.112   0.982   4.711
 7493TIP3    H222357   9.042   0.901   4.607
 7494TIP3   OH222358   8.120   0.857   4.172
 7494TIP3    H122359   8.075   0.798   4.106
 7494TIP3    H222360   8.194   0.800   4.202
 7495TIP3   OH222361   8.248   1.268   4.322
 7495TIP3    H122362   8.226   1.219   4.242
 7495TIP3    H222363   8.338   1.235   4.341
 7496TIP3   OH222364   8.257   0.823   4.532
 7496TIP3    H122365   8.286   0.802   4.440
 7496TIP3    H222366   8.299   0.910   4.548
 7497TIP3   OH222367   8.773   1.467   4.303
 7497TIP3    H122368   8.763   1.545   4.360
 7497TIP3    H222369   8.764   1.392   4.366
 7498TIP3   OH222370   8.390   1.383   4.852
 7498TIP3    H122371   8.331   1.446   4.899
 7498TIP3    H222372   8.324   1.330   4.803
 7499TIP3   OH222373   8.725   0.707   3.591
 7499TIP3    H122374   8.791   0.758   3.644
 7499TIP3    H222375   8.756   0.728   3.500
 7500TIP3   OH222376   8.137   0.950   4.948
 7500TIP3    H122377   8.139   1.033   5.000
 7500TIP3    H222378   8.043   0.926   4.956
 7501TIP3   OH222379   8.465   1.394   3.858
 7501TIP3    H122380   8.544   1.447   3.879
 7501TIP3    H222381   8.404   1.459   3.823
 7502TIP3   OH222382   8.186   1.553   4.938
 7502TIP3    H122383   8.151   1.549   4.847
 7502TIP3    H222384   8.106   1.532   4.992
 7503TIP3   OH222385   7.984   0.705   3.977
 7503TIP3    H122386   7.913   0.740   3.920
 7503TIP3    H222387   7.954   0.615   3.994
 7504TIP3   OH222388   7.765   1.083   4.885
 7504TIP3    H122389   7.700   1.061   4.815
 7504TIP3    H222390   7.801   0.996   4.909
 7505TIP3   OH222391   7.618   1.275   4.518
 7505TIP3    H122392   7.714   1.267   4.509
 7505TIP3    H222393   7.610   1.354   4.573
 7506TIP3   OH222394   8.590   1.512   4.709
 7506TIP3    H122395   8.590   1.605   4.740
 7506TIP3    H222396   8.518   1.474   4.764
 7507TIP3   OH222397   8.349   1.644   3.659
 7507TIP3    H122398   8.301   1.623   3.576
 7507TIP3    H222399   8.316   1.732   3.682
 7508TIP3   OH222400   7.787   1.492   4.043
 7508TIP3    H122401   7.835   1.481   4.128
 7508TIP3    H222402   7.728   1.415   4.046
 7509TIP3   OH222403   8.553   1.544   3.302
 7509TIP3    H122404   8.614   1.474   3.269
 7509TIP3    H222405   8.584   1.553   3.395
 7510TIP3   OH222406   8.601   1.590   3.573
 7510TIP3    H122407   8.512   1.600   3.614
 7510TIP3    H222408   8.650   1.551   3.647
 7511TIP3   OH222409   7.970   1.266   4.877
 7511TIP3    H122410   8.020   1.248   4.959
 7511TIP3    H222411   7.897   1.202   4.883
 7512TIP3   OH222412   8.803   0.755   3.329
 7512TIP3    H122413   8.776   0.734   3.237
 7512TIP3    H222414   8.850   0.839   3.316
 7513TIP3   OH222415   8.309   0.601   4.682
 7513TIP3    H122416   8.248   0.621   4.757
 7513TIP3    H222417   8.292   0.679   4.624
 7514TIP3   OH222418   8.171   0.514   4.185
 7514TIP3    H122419   8.095   0.461   4.216
 7514TIP3    H222420   8.195   0.465   4.103
 7515TIP3   OH222421   8.677   0.583   3.907
 7515TIP3    H122422   8.613   0.654   3.886
 7515TIP3    H222423   8.727   0.582   3.825
 7516TIP3   OH222424   8.865   0.893   4.959
 7516TIP3    H122425   8.844   0.843   5.041
 7516TIP3    H222426   8.956   0.917   4.979
 7517TIP3   OH222427   8.823   0.597   4.164
 7517TIP3    H122428   8.778   0.641   4.090
 7517TIP3    H222429   8.858   0.519   4.121
 7518TIP3   OH222430   8.121   0.644   4.880
 7518TIP3    H122431   8.144   0.693   4.961
 7518TIP3    H222432   8.090   0.559   4.915
 7519TIP3   OH222433   8.833   0.858   4.578
 7519TIP3    H122434   8.871   0.787   4.522
 7519TIP3    H222435   8.823   0.812   4.663
 7520TIP3   OH222436   7.942   0.366   4.259
 7520TIP3    H122437   7.847   0.383   4.237
 7520TIP3    H222438   7.949   0.271   4.243
 7521TIP3   OH222439   8.232   0.386   3.948
 7521TIP3    H122440   8.317   0.362   3.909
 7521TIP3    H222441   8.171   0.380   3.872
 7522TIP3   OH222442   8.047   0.401   3.729
 7522TIP3    H122443   7.981   0.353   3.676
 7522TIP3    H222444   8.105   0.433   3.658
 7523TIP3   OH222445   9.166   2.081   4.669
 7523TIP3    H122446   9.169   2.100   4.573
 7523TIP3    H222447   9.233   2.142   4.702
 7524TIP3   OH222448   8.130   1.188   5.096
 7524TIP3    H122449   8.211   1.217   5.143
 7524TIP3    H222450   8.066   1.188   5.170
 7525TIP3   OH222451   8.600   0.644   4.354
 7525TIP3    H122452   8.665   0.596   4.301
 7525TIP3    H222453   8.597   0.591   4.436
 7526TIP3   OH222454   8.575   0.526   4.654
 7526TIP3    H122455   8.485   0.563   4.658
 7526TIP3    H222456   8.626   0.587   4.710
 7527TIP3   OH222457   8.308   0.930   3.734
 7527TIP3    H122458   8.237   0.862   3.724
 7527TIP3    H222459   8.290   0.962   3.826
 7528TIP3   OH222460   8.719   1.249   4.732
 7528TIP3    H122461   8.724   1.222   4.824
 7528TIP3    H222462   8.672   1.334   4.736
 7529TIP3   OH222463   8.004   0.951   4.411
 7529TIP3    H122464   8.040   0.922   4.325
 7529TIP3    H222465   8.036   0.882   4.471
 7530TIP3   OH222466   8.453   1.077   3.553
 7530TIP3    H122467   8.407   1.164   3.561
 7530TIP3    H222468   8.398   1.022   3.613
 7531TIP3   OH222469   7.878   0.873   5.024
 7531TIP3    H122470   7.903   0.856   5.117
 7531TIP3    H222471   7.809   0.805   5.008
 7532TIP3   OH222472   8.608   0.986   5.047
 7532TIP3    H122473   8.537   0.937   5.002
 7532TIP3    H222474   8.686   0.962   4.993
 7533TIP3   OH222475   8.869   1.505   4.625
 7533TIP3    H122476   8.772   1.503   4.638
 7533TIP3    H222477   8.896   1.558   4.703
 7534TIP3   OH222478   8.991   1.372   3.422
 7534TIP3    H122479   8.969   1.348   3.513
 7534TIP3    H222480   8.922   1.328   3.372
 7535TIP3   OH222481   8.947   1.034   4.280
 7535TIP3    H122482   8.862   0.987   4.290
 7535TIP3    H222483   9.010   0.962   4.268
 7536TIP3   OH222484   8.100   1.251   4.033
 7536TIP3    H122485   8.101   1.334   3.982
 7536TIP3    H222486   8.005   1.237   4.044
 7537TIP3   OH222487   7.666   0.556   3.738
 7537TIP3    H122488   7.712   0.640   3.757
 7537TIP3    H222489   7.588   0.563   3.798
 7538TIP3   OH222490   8.247   1.022   3.981
 7538TIP3    H122491   8.206   1.109   4.000
 7538TIP3    H222492   8.209   0.968   4.054
 7539TIP3   OH222493   8.370   1.598   4.506
 7539TIP3    H122494   8.410   1.670   4.454
 7539TIP3    H222495   8.447   1.564   4.554
 7540TIP3   OH222496   8.022   1.492   3.888
 7540TIP3    H122497   7.935   1.499   3.934
 7540TIP3    H222498   8.052   1.585   3.891
 7541TIP3   OH222499   8.761   1.233   4.459
 7541TIP3    H122500   8.759   1.227   4.557
 7541TIP3    H222501   8.838   1.178   4.436
 7542TIP3   OH222502   8.724   1.129   3.350
 7542TIP3    H122503   8.780   1.095   3.423
 7542TIP3    H222504   8.636   1.104   3.381
 7543TIP3   OH222505   8.999   1.765   4.515
 7543TIP3    H122506   8.919   1.711   4.500
 7543TIP3    H222507   8.991   1.830   4.442
 7544TIP3   OH222508   8.895   1.038   3.549
 7544TIP3    H122509   8.882   0.981   3.627
 7544TIP3    H222510   8.971   1.091   3.578
 7545TIP3   OH222511   7.809   1.462   4.666
 7545TIP3    H122512   7.859   1.384   4.692
 7545TIP3    H222513   7.841   1.527   4.730
 7546TIP3   OH222514   8.103   1.105   3.344
 7546TIP3    H122515   8.113   1.012   3.315
 7546TIP3    H222516   8.083   1.092   3.439
 7547TIP3   OH222517   8.047   1.110   3.615
 7547TIP3    H122518   8.112   1.081   3.681
 7547TIP3    H222519   8.052   1.208   3.624
 7548TIP3   OH222520   7.780   0.804   3.818
 7548TIP3    H122521   7.716   0.847   3.877
 7548TIP3    H222522   7.796   0.875   3.753
 7549TIP3   OH222523   8.312   1.309   3.566
 7549TIP3    H122524   8.225   1.335   3.602
 7549TIP3    H222525   8.327   1.381   3.503
 7550TIP3   OH222526   8.527   0.361   3.978
 7550TIP3    H122527   8.566   0.449   3.962
 7550TIP3    H222528   8.481   0.373   4.062
 7551TIP3   OH222529   8.752   0.670   4.826
 7551TIP3    H122530   8.788   0.750   4.868
 7551TIP3    H222531   8.831   0.626   4.790
 7552TIP3   OH222532   8.054   1.383   3.633
 7552TIP3    H122533   8.023   1.452   3.570
 7552TIP3    H222534   8.037   1.426   3.719
 7553TIP3   OH222535   7.771   1.017   3.627
 7553TIP3    H122536   7.835   1.090   3.635
 7553TIP3    H222537   7.818   0.963   3.560
 7554TIP3   OH222538   7.694   0.270   3.743
 7554TIP3    H122539   7.726   0.362   3.748
 7554TIP3    H222540   7.609   0.279   3.787
 7555TIP3   OH222541   9.043   1.743   4.117
 7555TIP3    H122542   9.006   1.793   4.041
 7555TIP3    H222543   9.122   1.700   4.077
 7556TIP3   OH222544   7.648   1.232   4.018
 7556TIP3    H122545   7.570   1.260   4.068
 7556TIP3    H222546   7.626   1.268   3.929
 7557TIP3   OH222547   7.798   1.766   5.086
 7557TIP3    H122548   7.885   1.765   5.132
 7557TIP3    H222549   7.777   1.671   5.084
 7558TIP3   OH222550   8.283   1.736   5.129
 7558TIP3    H122551   8.377   1.717   5.138
 7558TIP3    H222552   8.259   1.678   5.054
 7559TIP3   OH222553   8.264   1.310   3.259
 7559TIP3    H122554   8.206   1.240   3.298
 7559TIP3    H222555   8.337   1.255   3.228
 7560TIP3   OH222556   8.922   1.639   4.862
 7560TIP3    H122557   8.910   1.569   4.931
 7560TIP3    H222558   8.996   1.690   4.897
 7561TIP3   OH222559   8.706   1.351   3.181
 7561TIP3    H122560   8.734   1.267   3.222
 7561TIP3    H222561   8.743   1.346   3.090
 7562TIP3   OH222562   7.930   1.174   5.286
 7562TIP3    H122563   7.947   1.078   5.291
 7562TIP3    H222564   7.843   1.176   5.243
 7563TIP3   OH222565   7.907   0.829   3.477
 7563TIP3    H122566   7.958   0.790   3.550
 7563TIP3    H222567   7.977   0.832   3.407
 7564TIP3   OH222568   8.540   1.259   5.059
 7564TIP3    H122569   8.496   1.271   4.973
 7564TIP3    H222570   8.571   1.166   5.055
 7565TIP3   OH222571   8.416   1.025   3.284
 7565TIP3    H122572   8.416   1.038   3.381
 7565TIP3    H222573   8.411   0.927   3.280
 7566TIP3   OH222574   9.039   1.270   4.664
 7566TIP3    H122575   9.085   1.313   4.591
 7566TIP3    H222576   8.955   1.320   4.664
 7567TIP3   OH222577   8.048   0.901   5.269
 7567TIP3    H122578   8.125   0.847   5.248
 7567TIP3    H222579   8.073   0.935   5.357
 7568TIP3   OH222580   8.121   0.727   3.704
 7568TIP3    H122581   8.091   0.689   3.788
 7568TIP3    H222582   8.151   0.648   3.655
 7569TIP3   OH222583   8.391   0.854   4.928
 7569TIP3    H122584   8.301   0.893   4.929
 7569TIP3    H222585   8.421   0.870   4.837
 7570TIP3   OH222586   8.215   0.519   3.543
 7570TIP3    H122587   8.189   0.524   3.449
 7570TIP3    H222588   8.312   0.531   3.536
 7571TIP3   OH222589   8.900   1.198   5.067
 7571TIP3    H122590   8.979   1.175   5.018
 7571TIP3    H222591   8.898   1.131   5.138
 7572TIP3   OH222592   8.425   0.603   5.011
 7572TIP3    H122593   8.512   0.581   4.977
 7572TIP3    H222594   8.414   0.696   4.975
 7573TIP3   OH222595   8.561   0.910   4.716
 7573TIP3    H122596   8.635   0.917   4.654
 7573TIP3    H222597   8.498   0.976   4.681
 7574TIP3   OH222598   9.123   0.879   5.117
 7574TIP3    H122599   9.165   0.792   5.113
 7574TIP3    H222600   9.194   0.940   5.092
 7575TIP3   OH222601   9.175   1.133   4.852
 7575TIP3    H122602   9.112   1.185   4.796
 7575TIP3    H222603   9.253   1.139   4.795
 7576TIP3   OH222604   8.362   0.713   5.282
 7576TIP3    H122605   8.287   0.652   5.287
 7576TIP3    H222606   8.412   0.672   5.211
 7577TIP3   OH222607   8.830   0.735   5.165
 7577TIP3    H122608   8.790   0.710   5.249
 7577TIP3    H222609   8.871   0.649   5.137
 7578TIP3   OH222610   8.022   1.586   3.446
 7578TIP3    H122611   8.118   1.584   3.425
 7578TIP3    H222612   7.990   1.632   3.366
 7579TIP3   OH222613   7.503   0.967   3.662
 7579TIP3    H122614   7.598   0.989   3.650
 7579TIP3    H222615   7.498   0.878   3.621
 7580TIP3   OH222616   7.416   1.580   4.075
 7580TIP3    H122617   7.349   1.517   4.040
 7580TIP3    H222618   7.461   1.524   4.141
 7581TIP3   OH222619   7.552   1.435   4.262
 7581TIP3    H122620   7.542   1.358   4.320
 7581TIP3    H222621   7.603   1.494   4.321
 7582TIP3   OH222622   9.164   1.554   4.394
 7582TIP3    H122623   9.096   1.616   4.425
 7582TIP3    H222624   9.119   1.511   4.319
 7583TIP3   OH222625   7.741   0.837   4.634
 7583TIP3    H122626   7.740   0.808   4.541
 7583TIP3    H222627   7.838   0.841   4.650
 7584TIP3   OH222628   7.733   0.497   4.717
 7584TIP3    H122629   7.778   0.480   4.631
 7584TIP3    H222630   7.761   0.587   4.734
 7585TIP3   OH222631   8.844   1.711   3.746
 7585TIP3    H122632   8.885   1.684   3.661
 7585TIP3    H222633   8.913   1.768   3.784
 7586TIP3   OH222634   7.966   1.502   5.107
 7586TIP3    H122635   7.875   1.472   5.089
 7586TIP3    H222636   7.975   1.482   5.201
 7587TIP3   OH222637   8.143   1.531   4.653
 7587TIP3    H122638   8.094   1.607   4.614
 7587TIP3    H222639   8.229   1.546   4.609
 7588TIP3   OH222640   8.590   1.779   4.791
 7588TIP3    H122641   8.632   1.781   4.879
 7588TIP3    H222642   8.657   1.829   4.738
 7589TIP3   OH222643   8.769   1.928   4.647
 7589TIP3    H122644   8.841   1.879   4.605
 7589TIP3    H222645   8.819   1.986   4.708
 7590TIP3   OH222646   7.822   1.793   4.674
 7590TIP3    H122647   7.733   1.828   4.651
 7590TIP3    H222648   7.828   1.820   4.766
 7591TIP3   OH222649   8.058   1.770   4.533
 7591TIP3    H122650   7.972   1.783   4.579
 7591TIP3    H222651   8.037   1.802   4.443
 7592TIP3   OH222652   8.483   1.800   4.330
 7592TIP3    H122653   8.413   1.822   4.266
 7592TIP3    H222654   8.497   1.887   4.374
 7593TIP3   OH222655   8.750   1.738   4.382
 7593TIP3    H122656   8.656   1.757   4.361
 7593TIP3    H222657   8.794   1.816   4.343
 7594TIP3   OH222658   8.954   1.927   4.303
 7594TIP3    H122659   8.939   2.013   4.258
 7594TIP3    H222660   8.987   1.871   4.229
 7595TIP3   OH222661   7.732   1.586   4.423
 7595TIP3    H122662   7.760   1.560   4.513
 7595TIP3    H222663   7.803   1.542   4.371
 7596TIP3   OH222664   7.924   1.456   4.277
 7596TIP3    H122665   7.940   1.372   4.325
 7596TIP3    H222666   8.015   1.493   4.273
 7597TIP3   OH222667   8.191   1.552   4.278
 7597TIP3    H122668   8.222   1.461   4.266
 7597TIP3    H222669   8.233   1.573   4.364
 7598TIP3   OH222670   7.521   1.354   3.813
 7598TIP3    H122671   7.436   1.320   3.778
 7598TIP3    H222672   7.507   1.449   3.798
 7599TIP3   OH222673   8.291   1.548   3.394
 7599TIP3    H122674   8.380   1.570   3.358
 7599TIP3    H222675   8.269   1.472   3.335
 7600TIP3   OH222676   8.945   1.634   3.513
 7600TIP3    H122677   8.981   1.552   3.477
 7600TIP3    H222678   8.921   1.682   3.431
 7601TIP3   OH222679   7.596   1.386   3.453
 7601TIP3    H122680   7.593   1.410   3.546
 7601TIP3    H222681   7.685   1.344   3.445
 7602TIP3   OH222682   9.208   1.813   4.689
 7602TIP3    H122683   9.143   1.772   4.627
 7602TIP3    H222684   9.185   1.907   4.677
 7603TIP3   OH222685   1.181   1.727   5.647
 7603TIP3    H122686   1.126   1.802   5.616
 7603TIP3    H222687   1.114   1.657   5.659
 7604TIP3   OH222688   1.146   1.701   6.013
 7604TIP3    H122689   1.164   1.642   6.087
 7604TIP3    H222690   1.123   1.634   5.944
 7605TIP3   OH222691   0.518   1.665   6.411
 7605TIP3    H122692   0.524   1.575   6.448
 7605TIP3    H222693   0.587   1.660   6.341
 7606TIP3   OH222694   1.404   2.017   5.702
 7606TIP3    H122695   1.380   1.941   5.757
 7606TIP3    H222696   1.430   2.084   5.767
 7607TIP3   OH222697   0.430   2.013   6.122
 7607TIP3    H122698   0.422   1.916   6.124
 7607TIP3    H222699   0.526   2.022   6.105
 7608TIP3   OH222700   1.048   2.475   5.722
 7608TIP3    H122701   1.096   2.404   5.673
 7608TIP3    H222702   1.047   2.438   5.811
 7609TIP3   OH222703   0.955   1.928   6.081
 7609TIP3    H122704   0.989   1.852   6.032
 7609TIP3    H222705   1.040   1.974   6.098
 7610TIP3   OH222706   1.969   1.257   6.071
 7610TIP3    H122707   1.997   1.340   6.115
 7610TIP3    H222708   1.987   1.279   5.978
 7611TIP3   OH222709   1.406   1.156   5.691
 7611TIP3    H122710   1.475   1.163   5.761
 7611TIP3    H222711   1.426   1.234   5.639
 7612TIP3   OH222712   0.791   1.507   5.979
 7612TIP3    H122713   0.881   1.496   5.939
 7612TIP3    H222714   0.752   1.421   5.951
 7613TIP3   OH222715   2.043   1.465   6.240
 7613TIP3    H122716   1.960   1.512   6.222
 7613TIP3    H222717   2.057   1.488   6.333
 7614TIP3   OH222718   1.056   1.943   5.512
 7614TIP3    H122719   1.005   1.899   5.443
 7614TIP3    H222720   1.002   2.023   5.529
 7615TIP3   OH222721   0.815   1.857   6.317
 7615TIP3    H122722   0.746   1.925   6.333
 7615TIP3    H222723   0.863   1.897   6.241
 7616TIP3   OH222724   1.616   1.189   5.868
 7616TIP3    H122725   1.601   1.144   5.952
 7616TIP3    H222726   1.666   1.268   5.895
 7617TIP3   OH222727   0.631   2.045   6.407
 7617TIP3    H122728   0.605   2.126   6.358
 7617TIP3    H222729   0.549   2.028   6.458
 7618TIP3   OH222730   0.074   1.753   5.620
 7618TIP3    H122731  -0.004   1.771   5.566
 7618TIP3    H222732   0.066   1.820   5.690
 7619TIP3   OH222733   1.473   2.256   5.879
 7619TIP3    H122734   1.382   2.247   5.915
 7619TIP3    H222735   1.465   2.340   5.831
 7620TIP3   OH222736   1.760   1.158   6.241
 7620TIP3    H122737   1.668   1.178   6.213
 7620TIP3    H222738   1.813   1.191   6.166
 7621TIP3   OH222739   1.175   2.303   5.550
 7621TIP3    H122740   1.225   2.220   5.530
 7621TIP3    H222741   1.235   2.368   5.507
 7622TIP3   OH222742   1.319   2.089   5.451
 7622TIP3    H122743   1.270   2.012   5.421
 7622TIP3    H222744   1.356   2.056   5.536
 7623TIP3   OH222745   1.698   2.170   6.218
 7623TIP3    H122746   1.688   2.092   6.159
 7623TIP3    H222747   1.683   2.244   6.156
 7624TIP3   OH222748   0.992   1.585   5.467
 7624TIP3    H122749   0.908   1.616   5.430
 7624TIP3    H222750   1.042   1.553   5.391
 7625TIP3   OH222751   0.947   1.346   5.196
 7625TIP3    H122752   1.016   1.393   5.247
 7625TIP3    H222753   1.003   1.284   5.146
 7626TIP3   OH222754   1.894   1.806   6.062
 7626TIP3    H122755   1.811   1.857   6.069
 7626TIP3    H222756   1.922   1.829   5.971
 7627TIP3   OH222757   1.339   1.645   5.443
 7627TIP3    H122758   1.281   1.673   5.518
 7627TIP3    H222759   1.418   1.617   5.492
 7628TIP3   OH222760   1.582   1.691   6.352
 7628TIP3    H122761   1.573   1.774   6.401
 7628TIP3    H222762   1.492   1.686   6.310
 7629TIP3   OH222763   0.581   1.657   5.875
 7629TIP3    H122764   0.539   1.603   5.804
 7629TIP3    H222765   0.656   1.600   5.900
 7630TIP3   OH222766   0.696   2.048   6.017
 7630TIP3    H122767   0.677   2.008   5.931
 7630TIP3    H222768   0.787   2.017   6.034
 7631TIP3   OH222769   0.692   1.630   6.202
 7631TIP3    H122770   0.731   1.591   6.120
 7631TIP3    H222771   0.756   1.700   6.224
 7632TIP3   OH222772   1.229   2.253   5.994
 7632TIP3    H122773   1.217   2.332   6.050
 7632TIP3    H222774   1.218   2.178   6.057
 7633TIP3   OH222775   0.840   2.163   6.546
 7633TIP3    H122776   0.786   2.228   6.595
 7633TIP3    H222777   0.772   2.124   6.488
 7634TIP3   OH222778   1.178   1.498   5.275
 7634TIP3    H122779   1.234   1.556   5.331
 7634TIP3    H222780   1.207   1.526   5.185
 7635TIP3   OH222781   0.915   2.189   5.549
 7635TIP3    H122782   0.996   2.238   5.569
 7635TIP3    H222783   0.858   2.256   5.510
 7636TIP3   OH222784   0.639   2.340   6.627
 7636TIP3    H122785   0.606   2.343   6.535
 7636TIP3    H222786   0.558   2.319   6.678
 7637TIP3   OH222787   1.694   0.746   5.321
 7637TIP3    H122788   1.613   0.766   5.372
 7637TIP3    H222789   1.706   0.830   5.272
 7638TIP3   OH222790   0.471   1.516   5.667
 7638TIP3    H122791   0.399   1.560   5.620
 7638TIP3    H222792   0.429   1.429   5.683
 7639TIP3   OH222793   1.491   2.113   4.867
 7639TIP3    H122794   1.500   2.210   4.856
 7639TIP3    H222795   1.584   2.084   4.855
 7640TIP3   OH222796   0.059   2.063   6.215
 7640TIP3    H122797   0.150   2.037   6.196
 7640TIP3    H222798   0.076   2.145   6.266
 7641TIP3   OH222799   1.935   2.512   6.262
 7641TIP3    H122800   1.935   2.416   6.276
 7641TIP3    H222801   1.853   2.537   6.309
 7642TIP3   OH222802   1.043   2.303   6.399
 7642TIP3    H122803   1.044   2.396   6.430
 7642TIP3    H222804   0.974   2.264   6.456
 7643TIP3   OH222805   0.798   2.430   5.351
 7643TIP3    H122806   0.755   2.411   5.265
 7643TIP3    H222807   0.769   2.521   5.370
 7644TIP3   OH222808   0.240   2.281   5.733
 7644TIP3    H122809   0.289   2.271   5.818
 7644TIP3    H222810   0.181   2.204   5.739
 7645TIP3   OH222811   1.003   2.330   4.992
 7645TIP3    H122812   1.063   2.260   4.955
 7645TIP3    H222813   1.037   2.339   5.083
 7646TIP3   OH222814   1.052   2.378   5.262
 7646TIP3    H122815   0.965   2.386   5.306
 7646TIP3    H222816   1.104   2.335   5.332
 7647TIP3   OH222817   1.826   1.647   6.536
 7647TIP3    H122818   1.744   1.658   6.485
 7647TIP3    H222819   1.839   1.550   6.529
 7648TIP3   OH222820   0.427   2.023   6.595
 7648TIP3    H122821   0.427   2.086   6.669
 7648TIP3    H222822   0.349   1.969   6.614
 7649TIP3   OH222823   1.350   1.006   6.595
 7649TIP3    H122824   1.397   0.922   6.611
 7649TIP3    H222825   1.259   0.979   6.615
 7650TIP3   OH222826   1.607   1.435   6.481
 7650TIP3    H122827   1.526   1.406   6.526
 7650TIP3    H222828   1.571   1.498   6.416
 7651TIP3   OH222829   1.253   1.553   5.016
 7651TIP3    H122830   1.222   1.526   4.928
 7651TIP3    H222831   1.333   1.604   4.993
 7652TIP3   OH222832   0.952   0.930   5.325
 7652TIP3    H122833   0.924   0.943   5.418
 7652TIP3    H222834   0.946   0.834   5.320
 7653TIP3   OH222835   0.815   1.442   6.383
 7653TIP3    H122836   0.731   1.398   6.399
 7653TIP3    H222837   0.797   1.484   6.297
 7654TIP3   OH222838   0.668   1.282   5.891
 7654TIP3    H122839   0.582   1.241   5.908
 7654TIP3    H222840   0.683   1.252   5.799
 7655TIP3   OH222841   1.300   1.638   6.720
 7655TIP3    H122842   1.297   1.589   6.803
 7655TIP3    H222843   1.394   1.665   6.718
 7656TIP3   OH222844   1.319   1.651   6.275
 7656TIP3    H122845   1.318   1.562   6.233
 7656TIP3    H222846   1.281   1.622   6.359
 7657TIP3   OH222847   0.973   1.094   5.942
 7657TIP3    H122848   0.886   1.116   5.977
 7657TIP3    H222849   1.030   1.159   5.987
 7658TIP3   OH222850   0.674   1.178   5.639
 7658TIP3    H122851   0.770   1.178   5.620
 7658TIP3    H222852   0.633   1.172   5.551
 7659TIP3   OH222853   1.470   1.163   6.165
 7659TIP3    H122854   1.412   1.227   6.213
 7659TIP3    H222855   1.400   1.111   6.121
 7660TIP3   OH222856   0.511   1.162   5.404
 7660TIP3    H122857   0.431   1.149   5.352
 7660TIP3    H222858   0.567   1.212   5.342
 7661TIP3   OH222859   1.624   2.866   6.362
 7661TIP3    H122860   1.623   2.888   6.267
 7661TIP3    H222861   1.703   2.913   6.393
 7662TIP3   OH222862   0.747   1.726   5.416
 7662TIP3    H122863   0.681   1.655   5.412
 7662TIP3    H222864   0.743   1.752   5.511
 7663TIP3   OH222865   1.662   1.952   6.056
 7663TIP3    H122866   1.685   2.000   5.973
 7663TIP3    H222867   1.576   1.910   6.032
 7664TIP3   OH222868   1.211   1.027   5.271
 7664TIP3    H122869   1.115   1.023   5.291
 7664TIP3    H222870   1.237   1.118   5.298
 7665TIP3   OH222871   1.151   2.032   6.426
 7665TIP3    H122872   1.197   2.017   6.509
 7665TIP3    H222873   1.128   2.126   6.428
 7666TIP3   OH222874   1.304   1.262   5.362
 7666TIP3    H122875   1.390   1.284   5.402
 7666TIP3    H222876   1.266   1.350   5.344
 7667TIP3   OH222877   0.446   1.734   6.103
 7667TIP3    H122878   0.478   1.712   6.013
 7667TIP3    H222879   0.519   1.696   6.155
 7668TIP3   OH222880   0.903   1.865   5.238
 7668TIP3    H122881   0.859   1.952   5.251
 7668TIP3    H222882   0.852   1.810   5.300
 7669TIP3   OH222883   1.059   1.767   6.710
 7669TIP3    H122884   1.032   1.738   6.620
 7669TIP3    H222885   1.150   1.729   6.709
 7670TIP3   OH222886   1.322   2.291   6.319
 7670TIP3    H122887   1.225   2.295   6.327
 7670TIP3    H222888   1.349   2.345   6.397
 7671TIP3   OH222889   1.736   1.362   5.223
 7671TIP3    H122890   1.671   1.317   5.163
 7671TIP3    H222891   1.729   1.452   5.185
 7672TIP3   OH222892   1.948   2.221   6.307
 7672TIP3    H122893   1.850   2.216   6.299
 7672TIP3    H222894   1.974   2.192   6.217
 7673TIP3   OH222895   1.430   2.184   5.133
 7673TIP3    H122896   1.406   2.115   5.197
 7673TIP3    H222897   1.442   2.134   5.050
 7674TIP3   OH222898   1.425   1.813   5.977
 7674TIP3    H122899   1.333   1.785   5.989
 7674TIP3    H222900   1.460   1.736   5.928
 7675TIP3   OH222901   0.552   2.045   5.733
 7675TIP3    H122902   0.557   2.123   5.675
 7675TIP3    H222903   0.458   2.024   5.728
 7676TIP3   OH222904   0.694   1.813   5.668
 7676TIP3    H122905   0.658   1.900   5.693
 7676TIP3    H222906   0.667   1.759   5.746
 7677TIP3   OH222907   0.822   2.385   6.197
 7677TIP3    H122908   0.861   2.458   6.144
 7677TIP3    H222909   0.901   2.352   6.243
 7678TIP3   OH222910   0.473   2.281   5.577
 7678TIP3    H122911   0.388   2.289   5.623
 7678TIP3    H222912   0.505   2.373   5.580
 7679TIP3   OH222913   1.215   2.021   6.153
 7679TIP3    H122914   1.205   2.011   6.250
 7679TIP3    H222915   1.289   1.961   6.135
 7680TIP3   OH222916   1.183   1.911   5.035
 7680TIP3    H122917   1.238   1.887   5.113
 7680TIP3    H222918   1.096   1.885   5.068
 7681TIP3   OH222919   1.459   2.556   6.205
 7681TIP3    H122920   1.381   2.499   6.194
 7681TIP3    H222921   1.446   2.621   6.132
 7682TIP3   OH222922   1.526   2.389   4.856
 7682TIP3    H122923   1.566   2.462   4.806
 7682TIP3    H222924   1.446   2.434   4.888
 7683TIP3   OH222925   1.344   1.845   5.248
 7683TIP3    H122926   1.331   1.781   5.321
 7683TIP3    H222927   1.442   1.844   5.241
 7684TIP3   OH222928   0.253   2.245   6.354
 7684TIP3    H122929   0.319   2.178   6.374
 7684TIP3    H222930   0.279   2.318   6.413
 7685TIP3   OH222931   0.550   1.894   5.036
 7685TIP3    H122932   0.569   1.804   5.005
 7685TIP3    H222933   0.534   1.879   5.131
 7686TIP3   OH222934   0.496   1.895   5.310
 7686TIP3    H122935   0.573   1.864   5.362
 7686TIP3    H222936   0.505   1.993   5.318
 7687TIP3   OH222937   0.245   1.575   5.513
 7687TIP3    H122938   0.184   1.631   5.568
 7687TIP3    H222939   0.267   1.640   5.445
 7688TIP3   OH222940   1.264   0.972   5.554
 7688TIP3    H122941   1.247   1.011   5.467
 7688TIP3    H222942   1.308   1.047   5.601
 7689TIP3   OH222943   0.762   2.096   5.257
 7689TIP3    H122944   0.676   2.126   5.292
 7689TIP3    H222945   0.780   2.166   5.193
 7690TIP3   OH222946   0.966   1.178   5.674
 7690TIP3    H122947   1.013   1.263   5.670
 7690TIP3    H222948   0.965   1.169   5.772
 7691TIP3   OH222949   1.110   0.892   5.776
 7691TIP3    H122950   1.074   0.967   5.827
 7691TIP3    H222951   1.162   0.937   5.706
 7692TIP3   OH222952   0.503   2.171   5.322
 7692TIP3    H122953   0.474   2.241   5.259
 7692TIP3    H222954   0.489   2.215   5.408
 7693TIP3   OH222955   1.868   1.375   6.457
 7693TIP3    H122956   1.770   1.382   6.467
 7693TIP3    H222957   1.873   1.337   6.368
 7694TIP3   OH222958   1.508   1.570   5.848
 7694TIP3    H122959   1.430   1.516   5.865
 7694TIP3    H222960   1.579   1.520   5.894
 7695TIP3   OH222961   0.219   1.808   5.310
 7695TIP3    H122962   0.288   1.875   5.327
 7695TIP3    H222963   0.268   1.752   5.247
 7696TIP3   OH222964   1.480   2.528   5.797
 7696TIP3    H122965   1.438   2.575   5.722
 7696TIP3    H222966   1.574   2.546   5.777
 7697TIP3   OH222967   0.101   2.032   5.727
 7697TIP3    H122968   0.010   2.060   5.744
 7697TIP3    H222969   0.105   2.043   5.631
 7698TIP3   OH222970   0.270   2.559   6.754
 7698TIP3    H122971   0.343   2.564   6.819
 7698TIP3    H222972   0.228   2.475   6.777
 7699TIP3   OH222973   0.735   2.526   6.818
 7699TIP3    H122974   0.829   2.507   6.832
 7699TIP3    H222975   0.716   2.467   6.743
 7700TIP3   OH222976   0.716   2.098   4.950
 7700TIP3    H122977   0.659   2.027   4.989
 7700TIP3    H222978   0.791   2.044   4.920
 7701TIP3   OH222979   1.371   2.428   6.555
 7701TIP3    H122980   1.365   2.357   6.622
 7701TIP3    H222981   1.451   2.477   6.583
 7702TIP3   OH222982   1.153   2.140   4.859
 7702TIP3    H122983   1.196   2.075   4.918
 7702TIP3    H222984   1.212   2.140   4.781
 7703TIP3   OH222985   0.363   1.613   5.171
 7703TIP3    H122986   0.419   1.581   5.244
 7703TIP3    H222987   0.430   1.616   5.099
 7704TIP3   OH222988   0.989   2.038   6.749
 7704TIP3    H122989   0.966   2.067   6.659
 7704TIP3    H222990   1.034   1.952   6.736
 7705TIP3   OH222991   0.862   1.811   4.972
 7705TIP3    H122992   0.869   1.826   5.069
 7705TIP3    H222993   0.865   1.713   4.969
 7706TIP3   OH222994   1.483   2.057   6.358
 7706TIP3    H122995   1.560   2.097   6.312
 7706TIP3    H222996   1.414   2.123   6.338
 7707TIP3   OH222997   0.560   1.516   5.385
 7707TIP3    H122998   0.552   1.484   5.476
 7707TIP3    H222999   0.603   1.440   5.340
 7708TIP3   OH223000   0.668   1.307   5.232
 7708TIP3    H123001   0.643   1.311   5.137
 7708TIP3    H223002   0.765   1.316   5.225
 7709TIP3   OH223003   1.349   1.980   6.752
 7709TIP3    H123004   1.432   1.967   6.705
 7709TIP3    H223005   1.357   1.918   6.826
 7710TIP3   OH223006   1.494   1.644   4.890
 7710TIP3    H123007   1.468   1.595   4.809
 7710TIP3    H223008   1.461   1.734   4.866
 7711TIP3   OH223009   1.007   1.713   6.453
 7711TIP3    H123010   1.056   1.659   6.389
 7711TIP3    H223011   0.948   1.764   6.394
 7712TIP3   OH223012   1.576   1.654   6.807
 7712TIP3    H123013   1.638   1.584   6.830
 7712TIP3    H223014   1.635   1.720   6.767
 7713TIP3   OH223015   1.613   1.913   6.545
 7713TIP3    H123016   1.556   1.966   6.484
 7713TIP3    H223017   1.701   1.929   6.504
 7714TIP3   OH223018   1.464   1.298   6.701
 7714TIP3    H123019   1.400   1.369   6.713
 7714TIP3    H223020   1.539   1.328   6.758
 7715TIP3   OH223021   1.689   1.309   6.847
 7715TIP3    H123022   1.712   1.218   6.874
 7715TIP3    H223023   1.686   1.357   6.933
 7716TIP3   OH223024   0.474   2.374   5.135
 7716TIP3    H123025   0.570   2.371   5.117
 7716TIP3    H223026   0.445   2.421   5.055
 7717TIP3   OH223027  -0.043   1.728   5.362
 7717TIP3    H123028   0.045   1.771   5.354
 7717TIP3    H223029  -0.023   1.638   5.329
 7718TIP3   OH223030  -0.126   2.363   5.753
 7718TIP3    H123031  -0.211   2.318   5.747
 7718TIP3    H223032  -0.084   2.318   5.829
 7719TIP3   OH223033  -0.007   2.233   5.958
 7719TIP3    H123034   0.002   2.150   6.008
 7719TIP3    H223035   0.051   2.292   6.011
 7720TIP3   OH223036   1.731   2.623   5.750
 7720TIP3    H123037   1.760   2.654   5.838
 7720TIP3    H223038   1.794   2.665   5.691
 7721TIP3   OH223039   1.763   2.641   6.033
 7721TIP3    H123040   1.721   2.552   6.029
 7721TIP3    H223041   1.839   2.620   6.090
 7722TIP3   OH223042   1.808   2.317   6.605
 7722TIP3    H123043   1.735   2.325   6.670
 7722TIP3    H223044   1.850   2.405   6.611
 7723TIP3   OH223045   1.626   1.830   5.226
 7723TIP3    H123046   1.697   1.893   5.202
 7723TIP3    H223047   1.665   1.789   5.307
 7724TIP3   OH223048   1.753   1.697   5.430
 7724TIP3    H123049   1.686   1.653   5.488
 7724TIP3    H223050   1.814   1.736   5.494
 7725TIP3   OH223051   1.805   2.088   5.863
 7725TIP3    H123052   1.859   2.024   5.812
 7725TIP3    H223053   1.795   2.162   5.801
 7726TIP3   OH223054   1.640   2.390   6.059
 7726TIP3    H123055   1.569   2.430   6.111
 7726TIP3    H223056   1.590   2.340   5.990
 7727TIP3   OH223057   1.692   1.605   5.077
 7727TIP3    H123058   1.619   1.609   5.011
 7727TIP3    H223059   1.665   1.680   5.134
 7728TIP3   OH223060   1.569   1.276   5.027
 7728TIP3    H123061   1.516   1.317   4.958
 7728TIP3    H223062   1.540   1.183   5.020
 7729TIP3   OH223063   1.571   1.552   5.578
 7729TIP3    H123064   1.573   1.455   5.570
 7729TIP3    H223065   1.552   1.565   5.674
 7730TIP3   OH223066   1.854   1.977   6.434
 7730TIP3    H123067   1.927   1.911   6.426
 7730TIP3    H223068   1.883   2.047   6.373
 7731TIP3   OH223069   2.042   1.786   6.456
 7731TIP3    H123070   1.967   1.734   6.492
 7731TIP3    H223071   2.115   1.721   6.468
 7732TIP3   OH223072   1.507   1.011   5.018
 7732TIP3    H123073   1.581   0.982   5.075
 7732TIP3    H223074   1.433   0.954   5.046
 7733TIP3   OH223075   1.567   1.278   5.474
 7733TIP3    H123076   1.599   1.187   5.495
 7733TIP3    H223077   1.626   1.301   5.400
 7734TIP3   OH223078   1.726   1.444   5.967
 7734TIP3    H123079   1.812   1.472   5.928
 7734TIP3    H223080   1.738   1.480   6.057
 7735TIP3   OH223081   1.794   1.586   6.201
 7735TIP3    H123082   1.717   1.622   6.250
 7735TIP3    H223083   1.826   1.667   6.155
 7736TIP3   OH223084   2.243   1.174   6.758
 7736TIP3    H123085   2.302   1.108   6.715
 7736TIP3    H223086   2.218   1.231   6.682
 7737TIP3   OH223087   1.677   1.019   5.506
 7737TIP3    H123088   1.719   1.006   5.593
 7737TIP3    H223089   1.611   0.946   5.507
 7738TIP3   OH223090   2.120   1.320   6.564
 7738TIP3    H123091   2.031   1.357   6.580
 7738TIP3    H223092   2.096   1.247   6.504
 7739TIP3   OH223093   1.755   0.956   5.141
 7739TIP3    H123094   1.795   0.882   5.091
 7739TIP3    H223095   1.822   1.026   5.134
 7740TIP3   OH223096   1.316   2.487   5.409
 7740TIP3    H123097   1.367   2.469   5.327
 7740TIP3    H223098   1.372   2.551   5.454
 7741TIP3   OH223099   0.411   2.245   6.791
 7741TIP3    H123100   0.315   2.232   6.793
 7741TIP3    H223101   0.431   2.269   6.883
 7742TIP3   OH223102   0.594   2.319   6.343
 7742TIP3    H123103   0.547   2.395   6.303
 7742TIP3    H223104   0.681   2.333   6.299
 7743TIP3   OH223105   1.043   2.568   6.481
 7743TIP3    H123106   1.085   2.569   6.569
 7743TIP3    H223107   1.110   2.618   6.428
 7744TIP3   OH223108   1.222   2.717   6.338
 7744TIP3    H123109   1.293   2.667   6.296
 7744TIP3    H223110   1.273   2.774   6.399
 7745TIP3   OH223111   2.016   1.080   6.440
 7745TIP3    H123112   1.926   1.078   6.404
 7745TIP3    H223113   2.046   0.987   6.427
 7746TIP3   OH223114   0.273   2.576   6.368
 7746TIP3    H123115   0.185   2.611   6.343
 7746TIP3    H223116   0.280   2.609   6.458
 7747TIP3   OH223117   0.509   2.555   6.223
 7747TIP3    H123118   0.423   2.570   6.269
 7747TIP3    H223119   0.489   2.590   6.134
 7748TIP3   OH223120   0.934   2.587   6.022
 7748TIP3    H123121   0.867   2.609   5.955
 7748TIP3    H223122   0.949   2.674   6.064
 7749TIP3   OH223123   1.203   2.528   6.074
 7749TIP3    H123124   1.109   2.543   6.052
 7749TIP3    H223125   1.246   2.603   6.031
 7750TIP3   OH223126   1.412   2.720   5.989
 7750TIP3    H123127   1.398   2.804   5.941
 7750TIP3    H223128   1.438   2.659   5.916
 7751TIP3   OH223129   0.182   2.369   6.107
 7751TIP3    H123130   0.204   2.351   6.201
 7751TIP3    H223131   0.258   2.326   6.062
 7752TIP3   OH223132   0.378   2.243   5.966
 7752TIP3    H123133   0.397   2.158   6.012
 7752TIP3    H223134   0.468   2.282   5.960
 7753TIP3   OH223135   0.642   2.341   5.968
 7753TIP3    H123136   0.676   2.251   5.951
 7753TIP3    H223137   0.685   2.360   6.053
 7754TIP3   OH223138   1.235   0.972   6.082
 7754TIP3    H123139   1.166   0.908   6.061
 7754TIP3    H223140   1.290   0.968   6.002
 7755TIP3   OH223141   1.749   0.871   5.964
 7755TIP3    H123142   1.785   0.927   5.891
 7755TIP3    H223143   1.653   0.892   5.959
 7756TIP3   OH223144   1.840   0.977   5.728
 7756TIP3    H123145   1.913   0.928   5.685
 7756TIP3    H223146   1.870   1.070   5.714
 7757TIP3   OH223147   1.474   0.877   5.938
 7757TIP3    H123148   1.444   0.859   5.849
 7757TIP3    H223149   1.444   0.798   5.988
 7758TIP3   OH223150   1.488   0.808   5.499
 7758TIP3    H123151   1.403   0.855   5.510
 7758TIP3    H223152   1.467   0.722   5.542
 7759TIP3   OH223153  -0.046   2.143   5.515
 7759TIP3    H123154  -0.096   2.102   5.443
 7759TIP3    H223155  -0.051   2.237   5.490
 7760TIP3   OH223156   0.876   0.935   5.591
 7760TIP3    H123157   0.933   0.879   5.646
 7760TIP3    H223158   0.907   1.024   5.619
 7761TIP3   OH223159   0.743   2.336   5.083
 7761TIP3    H123160   0.832   2.357   5.049
 7761TIP3    H223161   0.722   2.260   5.025
 7762TIP3   OH223162   1.462   2.450   5.176
 7762TIP3    H123163   1.454   2.353   5.163
 7762TIP3    H223164   1.418   2.484   5.096
 7763TIP3   OH223165   0.049   2.168   5.145
 7763TIP3    H123166   0.053   2.209   5.232
 7763TIP3    H223167   0.139   2.130   5.133
 7764TIP3   OH223168   1.754   1.045   6.882
 7764TIP3    H123169   1.777   1.011   6.972
 7764TIP3    H223170   1.841   1.039   6.836
 7765TIP3   OH223171   1.690   2.597   6.365
 7765TIP3    H123172   1.611   2.565   6.318
 7765TIP3    H223173   1.671   2.693   6.367
 7766TIP3   OH223174   2.960   1.972   5.122
 7766TIP3    H123175   2.922   2.061   5.111
 7766TIP3    H223176   2.881   1.917   5.105
 7767TIP3   OH223177   2.959   1.962   5.506
 7767TIP3    H123178   2.985   1.941   5.597
 7767TIP3    H223179   2.910   1.881   5.482
 7768TIP3   OH223180   2.256   1.864   5.875
 7768TIP3    H123181   2.286   1.798   5.940
 7768TIP3    H223182   2.332   1.924   5.874
 7769TIP3   OH223183   3.212   2.230   5.168
 7769TIP3    H123184   3.193   2.183   5.252
 7769TIP3    H223185   3.198   2.321   5.198
 7770TIP3   OH223186   2.223   2.273   5.604
 7770TIP3    H123187   2.215   2.175   5.607
 7770TIP3    H223188   2.320   2.282   5.600
 7771TIP3   OH223189   1.934   1.481   5.389
 7771TIP3    H123190   1.882   1.563   5.403
 7771TIP3    H223191   1.863   1.421   5.359
 7772TIP3   OH223192   1.993   1.765   5.558
 7772TIP3    H123193   2.040   1.689   5.597
 7772TIP3    H223194   2.051   1.789   5.484
 7773TIP3   OH223195   2.840   2.726   5.207
 7773TIP3    H123196   2.894   2.657   5.166
 7773TIP3    H223197   2.847   2.703   5.301
 7774TIP3   OH223198   2.754   2.193   5.559
 7774TIP3    H123199   2.794   2.117   5.513
 7774TIP3    H223200   2.836   2.241   5.583
 7775TIP3   OH223201   3.763   1.516   5.557
 7775TIP3    H123202   3.793   1.597   5.603
 7775TIP3    H223203   3.787   1.536   5.465
 7776TIP3   OH223204   3.169   1.698   5.592
 7776TIP3    H123205   3.208   1.612   5.615
 7776TIP3    H223206   3.135   1.681   5.503
 7777TIP3   OH223207   2.502   1.355   5.558
 7777TIP3    H123208   2.480   1.427   5.497
 7777TIP3    H223209   2.453   1.281   5.516
 7778TIP3   OH223210   3.196   1.445   5.182
 7778TIP3    H123211   3.267   1.427   5.247
 7778TIP3    H223212   3.249   1.480   5.108
 7779TIP3   OH223213   2.137   1.558   5.665
 7779TIP3    H123214   2.219   1.537   5.713
 7779TIP3    H223215   2.147   1.501   5.586
 7780TIP3   OH223216   2.579   1.756   5.452
 7780TIP3    H123217   2.671   1.728   5.471
 7780TIP3    H223218   2.538   1.671   5.425
 7781TIP3   OH223219   3.838   1.722   5.726
 7781TIP3    H123220   3.753   1.769   5.710
 7781TIP3    H223221   3.851   1.740   5.820
 7782TIP3   OH223222   2.500   1.338   5.992
 7782TIP3    H123223   2.439   1.375   5.926
 7782TIP3    H223224   2.449   1.355   6.074
 7783TIP3   OH223225   2.862   2.200   4.997
 7783TIP3    H123226   2.804   2.168   4.926
 7783TIP3    H223227   2.814   2.283   5.020
 7784TIP3   OH223228   2.606   2.113   5.791
 7784TIP3    H123229   2.541   2.176   5.829
 7784TIP3    H223230   2.648   2.167   5.721
 7785TIP3   OH223231   3.408   1.447   5.350
 7785TIP3    H123232   3.400   1.394   5.430
 7785TIP3    H223233   3.464   1.521   5.380
 7786TIP3   OH223234   2.370   1.454   5.777
 7786TIP3    H123235   2.432   1.526   5.801
 7786TIP3    H223236   2.419   1.412   5.703
 7787TIP3   OH223237   2.431   2.305   5.885
 7787TIP3    H123238   2.407   2.391   5.846
 7787TIP3    H223239   2.354   2.291   5.943
 7788TIP3   OH223240   1.834   1.996   5.122
 7788TIP3    H123241   1.787   2.023   5.041
 7788TIP3    H223242   1.861   2.082   5.160
 7789TIP3   OH223243   3.558   1.416   5.725
 7789TIP3    H123244   3.470   1.445   5.696
 7789TIP3    H223245   3.616   1.446   5.652
 7790TIP3   OH223246   2.858   1.059   5.705
 7790TIP3    H123247   2.847   0.964   5.724
 7790TIP3    H223248   2.780   1.095   5.752
 7791TIP3   OH223249   2.970   2.554   5.034
 7791TIP3    H123250   3.037   2.488   5.049
 7791TIP3    H223251   3.025   2.626   4.993
 7792TIP3   OH223252   3.498   2.421   5.710
 7792TIP3    H123253   3.483   2.343   5.652
 7792TIP3    H223254   3.474   2.495   5.650
 7793TIP3   OH223255   2.786   1.818   4.959
 7793TIP3    H123256   2.703   1.867   4.941
 7793TIP3    H223257   2.827   1.815   4.871
 7794TIP3   OH223258   2.746   1.603   4.681
 7794TIP3    H123259   2.814   1.649   4.733
 7794TIP3    H223260   2.801   1.539   4.632
 7795TIP3   OH223261   3.692   2.062   5.549
 7795TIP3    H123262   3.609   2.112   5.558
 7795TIP3    H223263   3.717   2.084   5.457
 7796TIP3   OH223264   3.164   1.957   4.954
 7796TIP3    H123265   3.082   1.940   5.008
 7796TIP3    H223266   3.219   1.878   4.978
 7797TIP3   OH223267   3.369   1.944   5.842
 7797TIP3    H123268   3.366   2.026   5.896
 7797TIP3    H223269   3.281   1.947   5.801
 7798TIP3   OH223270   2.367   1.901   5.348
 7798TIP3    H123271   2.325   1.842   5.282
 7798TIP3    H223272   2.443   1.847   5.377
 7799TIP3   OH223273   2.495   2.311   5.500
 7799TIP3    H123274   2.476   2.263   5.418
 7799TIP3    H223275   2.586   2.282   5.520
 7800TIP3   OH223276   2.506   1.870   5.704
 7800TIP3    H123277   2.538   1.855   5.613
 7800TIP3    H223278   2.546   1.957   5.727
 7801TIP3   OH223279   2.984   2.503   5.478
 7801TIP3    H123280   3.033   2.580   5.511
 7801TIP3    H223281   3.003   2.434   5.544
 7802TIP3   OH223282   2.638   2.427   6.029
 7802TIP3    H123283   2.580   2.491   6.076
 7802TIP3    H223284   2.571   2.375   5.981
 7803TIP3   OH223285   2.986   1.766   4.762
 7803TIP3    H123286   3.042   1.834   4.803
 7803TIP3    H223287   3.004   1.784   4.667
 7804TIP3   OH223288   2.392   1.987   6.126
 7804TIP3    H123289   2.398   2.072   6.174
 7804TIP3    H223290   2.297   1.967   6.137
 7805TIP3   OH223291   2.715   2.438   5.035
 7805TIP3    H123292   2.788   2.497   5.059
 7805TIP3    H223293   2.650   2.501   5.000
 7806TIP3   OH223294   2.434   2.598   6.115
 7806TIP3    H123295   2.399   2.594   6.024
 7806TIP3    H223296   2.355   2.577   6.169
 7807TIP3   OH223297   3.490   1.003   4.807
 7807TIP3    H123298   3.409   1.020   4.859
 7807TIP3    H223299   3.500   1.087   4.758
 7808TIP3   OH223300   2.234   1.742   5.152
 7808TIP3    H123301   2.167   1.787   5.097
 7808TIP3    H223302   2.189   1.659   5.173
 7809TIP3   OH223303   3.287   2.374   4.357
 7809TIP3    H123304   3.296   2.470   4.338
 7809TIP3    H223305   3.379   2.343   4.343
 7810TIP3   OH223306   2.013   2.127   6.062
 7810TIP3    H123307   1.949   2.103   5.993
 7810TIP3    H223308   2.050   2.039   6.088
 7811TIP3   OH223309   1.867   2.320   5.695
 7811TIP3    H123310   1.963   2.312   5.686
 7811TIP3    H223311   1.859   2.399   5.751
 7812TIP3   OH223312   3.732   2.767   5.750
 7812TIP3    H123313   3.730   2.671   5.768
 7812TIP3    H223314   3.649   2.795   5.794
 7813TIP3   OH223315   2.840   2.556   5.886
 7813TIP3    H123316   2.839   2.650   5.916
 7813TIP3    H223317   2.768   2.519   5.941
 7814TIP3   OH223318   2.595   2.687   4.836
 7814TIP3    H123319   2.551   2.671   4.751
 7814TIP3    H223320   2.567   2.777   4.860
 7815TIP3   OH223321   2.036   2.536   5.219
 7815TIP3    H123322   2.084   2.527   5.304
 7815TIP3    H223323   1.975   2.460   5.226
 7816TIP3   OH223324   2.796   2.583   4.478
 7816TIP3    H123325   2.858   2.517   4.442
 7816TIP3    H223326   2.833   2.599   4.568
 7817TIP3   OH223327   2.848   2.628   4.753
 7817TIP3    H123328   2.758   2.641   4.792
 7817TIP3    H223329   2.898   2.603   4.832
 7818TIP3   OH223330   3.625   1.904   6.023
 7818TIP3    H123331   3.541   1.917   5.975
 7818TIP3    H223332   3.638   1.808   6.015
 7819TIP3   OH223333   2.219   2.310   6.054
 7819TIP3    H123334   2.269   2.293   6.136
 7819TIP3    H223335   2.145   2.246   6.061
 7820TIP3   OH223336   2.618   1.135   5.832
 7820TIP3    H123337   2.528   1.103   5.809
 7820TIP3    H223338   2.593   1.217   5.879
 7821TIP3   OH223339   3.150   1.250   6.029
 7821TIP3    H123340   3.218   1.222   6.094
 7821TIP3    H223341   3.066   1.229   6.075
 7822TIP3   OH223342   3.394   1.680   5.948
 7822TIP3    H123343   3.345   1.673   6.034
 7822TIP3    H223344   3.365   1.766   5.914
 7823TIP3   OH223345   3.053   1.819   4.506
 7823TIP3    H123346   3.014   1.786   4.422
 7823TIP3    H223347   3.137   1.856   4.473
 7824TIP3   OH223348   2.758   1.188   4.802
 7824TIP3    H123349   2.733   1.184   4.897
 7824TIP3    H223350   2.727   1.099   4.774
 7825TIP3   OH223351   2.550   1.648   5.853
 7825TIP3    H123352   2.500   1.669   5.935
 7825TIP3    H223353   2.534   1.729   5.800
 7826TIP3   OH223354   2.432   1.535   5.367
 7826TIP3    H123355   2.340   1.508   5.385
 7826TIP3    H223356   2.446   1.493   5.279
 7827TIP3   OH223357   2.927   1.625   5.095
 7827TIP3    H123358   2.869   1.691   5.052
 7827TIP3    H223359   2.977   1.590   5.019
 7828TIP3   OH223360   3.098   1.900   6.181
 7828TIP3    H123361   3.075   1.828   6.244
 7828TIP3    H223362   3.191   1.916   6.205
 7829TIP3   OH223363   3.084   1.651   5.333
 7829TIP3    H123364   3.021   1.676   5.263
 7829TIP3    H223365   3.116   1.567   5.294
 7830TIP3   OH223366   2.369   1.678   6.062
 7830TIP3    H123367   2.395   1.741   6.131
 7830TIP3    H223368   2.356   1.596   6.114
 7831TIP3   OH223369   2.412   1.147   4.765
 7831TIP3    H123370   2.411   1.143   4.863
 7831TIP3    H223371   2.336   1.206   4.748
 7832TIP3   OH223372   1.962   1.202   5.641
 7832TIP3    H123373   2.038   1.231   5.695
 7832TIP3    H223374   2.002   1.165   5.561
 7833TIP3   OH223375   1.939   1.183   5.159
 7833TIP3    H123376   1.987   1.223   5.084
 7833TIP3    H223377   1.877   1.254   5.183
 7834TIP3   OH223378   3.094   1.899   5.757
 7834TIP3    H123379   3.125   1.824   5.700
 7834TIP3    H223380   3.064   1.848   5.836
 7835TIP3   OH223381   2.758   1.362   5.429
 7835TIP3    H123382   2.675   1.356   5.481
 7835TIP3    H223383   2.825   1.356   5.499
 7836TIP3   OH223384   2.196   1.413   5.436
 7836TIP3    H123385   2.101   1.420   5.411
 7836TIP3    H223386   2.217   1.320   5.415
 7837TIP3   OH223387   2.467   1.409   5.126
 7837TIP3    H123388   2.561   1.425   5.105
 7837TIP3    H223389   2.420   1.434   5.044
 7838TIP3   OH223390   3.251   1.433   5.628
 7838TIP3    H123391   3.219   1.444   5.721
 7838TIP3    H223392   3.187   1.370   5.593
 7839TIP3   OH223393   2.305   1.444   4.908
 7839TIP3    H123394   2.229   1.401   4.866
 7839TIP3    H223395   2.354   1.476   4.829
 7840TIP3   OH223396   3.421   3.120   5.848
 7840TIP3    H123397   3.416   3.143   5.753
 7840TIP3    H223398   3.498   3.173   5.877
 7841TIP3   OH223399   2.380   2.231   6.272
 7841TIP3    H123400   2.460   2.262   6.320
 7841TIP3    H223401   2.315   2.231   6.346
 7842TIP3   OH223402   2.846   1.687   5.528
 7842TIP3    H123403   2.915   1.640   5.479
 7842TIP3    H223404   2.851   1.646   5.616
 7843TIP3   OH223405   2.369   1.173   5.403
 7843TIP3    H123406   2.335   1.093   5.449
 7843TIP3    H223407   2.426   1.134   5.336
 7844TIP3   OH223408   2.821   1.582   5.813
 7844TIP3    H123409   2.731   1.617   5.831
 7844TIP3    H223410   2.878   1.640   5.868
 7845TIP3   OH223411   2.559   1.972   4.912
 7845TIP3    H123412   2.486   1.908   4.900
 7845TIP3    H223413   2.540   2.007   5.003
 7846TIP3   OH223414   3.459   2.204   5.543
 7846TIP3    H123415   3.482   2.256   5.463
 7846TIP3    H223416   3.372   2.166   5.521
 7847TIP3   OH223417   3.014   1.287   4.771
 7847TIP3    H123418   2.917   1.271   4.779
 7847TIP3    H223419   3.024   1.381   4.795
 7848TIP3   OH223420   2.956   2.290   5.909
 7848TIP3    H123421   2.976   2.269   6.001
 7848TIP3    H223422   2.920   2.380   5.914
 7849TIP3   OH223423   3.085   1.532   4.876
 7849TIP3    H123424   3.182   1.533   4.890
 7849TIP3    H223425   3.071   1.609   4.818
 7850TIP3   OH223426   2.250   1.995   5.589
 7850TIP3    H123427   2.288   1.965   5.504
 7850TIP3    H223428   2.285   1.929   5.651
 7851TIP3   OH223429   2.706   2.122   4.735
 7851TIP3    H123430   2.659   2.209   4.739
 7851TIP3    H223431   2.648   2.068   4.793
 7852TIP3   OH223432   2.128   1.916   6.201
 7852TIP3    H123433   2.151   1.902   6.295
 7852TIP3    H223434   2.060   1.848   6.187
 7853TIP3   OH223435   2.854   2.028   6.220
 7853TIP3    H123436   2.796   1.968   6.170
 7853TIP3    H223437   2.943   1.996   6.193
 7854TIP3   OH223438   3.121   2.543   5.806
 7854TIP3    H123439   3.024   2.549   5.810
 7854TIP3    H223440   3.145   2.598   5.884
 7855TIP3   OH223441   3.528   1.619   4.714
 7855TIP3    H123442   3.465   1.572   4.653
 7855TIP3    H223443   3.526   1.706   4.668
 7856TIP3   OH223444   3.747   2.477   5.793
 7856TIP3    H123445   3.649   2.473   5.788
 7856TIP3    H223446   3.770   2.449   5.702
 7857TIP3   OH223447   3.233   2.431   4.621
 7857TIP3    H123448   3.178   2.356   4.644
 7857TIP3    H223449   3.253   2.413   4.527
 7858TIP3   OH223450   3.223   2.073   5.448
 7858TIP3    H123451   3.132   2.047   5.475
 7858TIP3    H223452   3.257   1.987   5.418
 7859TIP3   OH223453   2.348   2.294   5.206
 7859TIP3    H123454   2.351   2.379   5.158
 7859TIP3    H223455   2.254   2.285   5.222
 7860TIP3   OH223456   1.913   1.603   4.915
 7860TIP3    H123457   1.958   1.687   4.936
 7860TIP3    H223458   1.835   1.609   4.975
 7861TIP3   OH223459   2.495   2.066   5.158
 7861TIP3    H123460   2.456   2.154   5.174
 7861TIP3    H223461   2.456   2.015   5.231
 7862TIP3   OH223462   2.618   2.642   5.682
 7862TIP3    H123463   2.659   2.714   5.629
 7862TIP3    H223464   2.697   2.609   5.729
 7863TIP3   OH223465   2.271   2.536   5.065
 7863TIP3    H123466   2.185   2.545   5.110
 7863TIP3    H223467   2.302   2.629   5.068
 7864TIP3   OH223468   3.014   2.269   5.642
 7864TIP3    H123469   2.999   2.274   5.739
 7864TIP3    H223470   3.098   2.222   5.639
 7865TIP3   OH223471   2.975   2.166   4.526
 7865TIP3    H123472   3.003   2.118   4.605
 7865TIP3    H223473   2.879   2.151   4.529
 7866TIP3   OH223474   3.262   2.811   5.691
 7866TIP3    H123475   3.184   2.753   5.694
 7866TIP3    H223476   3.250   2.846   5.600
 7867TIP3   OH223477   3.320   2.646   4.345
 7867TIP3    H123478   3.360   2.717   4.291
 7867TIP3    H223479   3.241   2.696   4.377
 7868TIP3   OH223480   2.343   1.420   6.209
 7868TIP3    H123481   2.247   1.426   6.224
 7868TIP3    H223482   2.371   1.360   6.280
 7869TIP3   OH223483   2.057   2.506   5.842
 7869TIP3    H123484   2.109   2.429   5.871
 7869TIP3    H223485   2.088   2.573   5.905
 7870TIP3   OH223486   2.352   2.147   4.520
 7870TIP3    H123487   2.361   2.055   4.492
 7870TIP3    H223488   2.332   2.137   4.616
 7871TIP3   OH223489   2.297   2.154   4.792
 7871TIP3    H123490   2.361   2.128   4.859
 7871TIP3    H223491   2.298   2.252   4.799
 7872TIP3   OH223492   2.032   1.849   4.996
 7872TIP3    H123493   1.966   1.892   5.055
 7872TIP3    H223494   2.045   1.920   4.930
 7873TIP3   OH223495   3.179   1.483   5.887
 7873TIP3    H123496   3.255   1.522   5.932
 7873TIP3    H223497   3.161   1.404   5.941
 7874TIP3   OH223498   3.055   1.240   5.052
 7874TIP3    H123499   3.044   1.263   4.958
 7874TIP3    H223500   3.096   1.320   5.089
 7875TIP3   OH223501   2.560   2.351   4.741
 7875TIP3    H123502   2.474   2.379   4.778
 7875TIP3    H223503   2.578   2.427   4.683
 7876TIP3   OH223504   2.750   1.416   5.156
 7876TIP3    H123505   2.816   1.487   5.142
 7876TIP3    H223506   2.752   1.407   5.254
 7877TIP3   OH223507   3.019   1.736   5.964
 7877TIP3    H123508   3.034   1.791   6.044
 7877TIP3    H223509   3.073   1.658   5.983
 7878TIP3   OH223510   2.894   1.147   5.261
 7878TIP3    H123511   2.891   1.221   5.323
 7878TIP3    H223512   2.953   1.183   5.191
 7879TIP3   OH223513   2.301   2.426   4.809
 7879TIP3    H123514   2.272   2.496   4.746
 7879TIP3    H223515   2.286   2.471   4.896
 7880TIP3   OH223516   2.406   1.140   5.042
 7880TIP3    H123517   2.402   1.229   5.083
 7880TIP3    H223518   2.501   1.120   5.055
 7881TIP3   OH223519   3.660   1.635   5.941
 7881TIP3    H123520   3.562   1.635   5.952
 7881TIP3    H223521   3.666   1.590   5.856
 7882TIP3   OH223522   3.309   1.830   5.331
 7882TIP3    H123523   3.233   1.770   5.347
 7882TIP3    H223524   3.381   1.784   5.380
 7883TIP3   OH223525   2.019   2.061   4.804
 7883TIP3    H123526   2.080   2.136   4.813
 7883TIP3    H223527   2.067   2.009   4.736
 7884TIP3   OH223528   1.971   1.334   4.922
 7884TIP3    H123529   1.961   1.431   4.928
 7884TIP3    H223530   1.880   1.306   4.907
 7885TIP3   OH223531   2.354   1.053   5.812
 7885TIP3    H123532   2.321   1.020   5.725
 7885TIP3    H223533   2.343   0.975   5.869
 7886TIP3   OH223534   1.894   2.272   5.194
 7886TIP3    H123535   1.819   2.304   5.245
 7886TIP3    H223536   1.875   2.312   5.106
 7887TIP3   OH223537   2.047   2.811   6.263
 7887TIP3    H123538   2.133   2.810   6.309
 7887TIP3    H223539   2.027   2.715   6.261
 7888TIP3   OH223540   2.531   2.782   6.304
 7888TIP3    H123541   2.625   2.761   6.317
 7888TIP3    H223542   2.509   2.723   6.230
 7889TIP3   OH223543   2.511   2.355   4.434
 7889TIP3    H123544   2.455   2.284   4.474
 7889TIP3    H223545   2.586   2.303   4.402
 7890TIP3   OH223546   3.172   2.682   6.038
 7890TIP3    H123547   3.161   2.614   6.108
 7890TIP3    H223548   3.247   2.735   6.071
 7891TIP3   OH223549   2.948   2.395   4.344
 7891TIP3    H123550   3.004   2.338   4.398
 7891TIP3    H223551   3.000   2.403   4.261
 7892TIP3   OH223552   2.179   2.219   6.462
 7892TIP3    H123553   2.196   2.123   6.467
 7892TIP3    H223554   2.091   2.220   6.419
 7893TIP3   OH223555   2.156   1.872   4.653
 7893TIP3    H123556   2.209   1.839   4.727
 7893TIP3    H223557   2.224   1.876   4.583
 7894TIP3   OH223558   2.789   2.303   6.235
 7894TIP3    H123559   2.746   2.318   6.149
 7894TIP3    H223560   2.819   2.210   6.229
 7895TIP3   OH223561   2.672   2.070   4.463
 7895TIP3    H123562   2.663   2.083   4.560
 7895TIP3    H223563   2.666   1.972   4.457
 7896TIP3   OH223564   3.278   2.306   5.837
 7896TIP3    H123565   3.352   2.358   5.800
 7896TIP3    H223566   3.207   2.373   5.832
 7897TIP3   OH223567   2.298   1.950   6.443
 7897TIP3    H123568   2.373   1.892   6.426
 7897TIP3    H223569   2.321   1.985   6.532
 7898TIP3   OH223570   2.368   1.773   4.880
 7898TIP3    H123571   2.337   1.734   4.963
 7898TIP3    H223572   2.400   1.694   4.831
 7899TIP3   OH223573   2.632   1.837   6.105
 7899TIP3    H123574   2.556   1.898   6.111
 7899TIP3    H223575   2.679   1.871   6.026
 7900TIP3   OH223576   2.463   1.564   4.718
 7900TIP3    H123577   2.437   1.568   4.623
 7900TIP3    H223578   2.560   1.573   4.711
 7901TIP3   OH223579   3.148   2.238   6.239
 7901TIP3    H123580   3.232   2.221   6.196
 7901TIP3    H223581   3.147   2.173   6.311
 7902TIP3   OH223582   3.289   1.900   4.384
 7902TIP3    H123583   3.273   1.851   4.302
 7902TIP3    H223584   3.258   1.989   4.355
 7903TIP3   OH223585   2.756   1.625   6.234
 7903TIP3    H123586   2.756   1.545   6.179
 7903TIP3    H223587   2.712   1.691   6.175
 7904TIP3   OH223588   2.759   1.412   6.038
 7904TIP3    H123589   2.785   1.452   5.953
 7904TIP3    H223590   2.665   1.389   6.021
 7905TIP3   OH223591   2.788   1.948   5.910
 7905TIP3    H123592   2.871   1.957   5.861
 7905TIP3    H223593   2.732   2.017   5.869
 7906TIP3   OH223594   3.369   1.916   6.293
 7906TIP3    H123595   3.418   1.833   6.308
 7906TIP3    H223596   3.439   1.976   6.264
 7907TIP3   OH223597   3.410   2.167   6.028
 7907TIP3    H123598   3.351   2.219   5.969
 7907TIP3    H223599   3.497   2.187   5.987
 7908TIP3   OH223600   2.630   1.742   6.459
 7908TIP3    H123601   2.563   1.673   6.474
 7908TIP3    H223602   2.668   1.714   6.374
 7909TIP3   OH223603   2.891   1.177   6.103
 7909TIP3    H123604   2.842   1.259   6.082
 7909TIP3    H223605   2.821   1.109   6.093
 7910TIP3   OH223606   3.018   1.683   6.322
 7910TIP3    H123607   3.009   1.672   6.418
 7910TIP3    H223608   2.927   1.657   6.295
 7911TIP3   OH223609   3.256   1.627   6.175
 7911TIP3    H123610   3.181   1.631   6.237
 7911TIP3    H223611   3.329   1.597   6.234
 7912TIP3   OH223612   3.488   1.570   6.327
 7912TIP3    H123613   3.498   1.474   6.348
 7912TIP3    H223614   3.481   1.611   6.416
 7913TIP3   OH223615   2.474   1.521   6.513
 7913TIP3    H123616   2.481   1.430   6.478
 7913TIP3    H223617   2.509   1.508   6.604
 7914TIP3   OH223618   2.988   1.188   6.360
 7914TIP3    H123619   3.054   1.116   6.357
 7914TIP3    H223620   2.947   1.179   6.272
 7915TIP3   OH223621   3.052   1.402   6.521
 7915TIP3    H123622   3.029   1.331   6.457
 7915TIP3    H223623   2.974   1.460   6.515
 7916TIP3   OH223624   2.269   2.626   4.620
 7916TIP3    H123625   2.366   2.627   4.604
 7916TIP3    H223626   2.240   2.678   4.543
 7917TIP3   OH223627   1.751   2.012   4.838
 7917TIP3    H123628   1.846   2.034   4.827
 7917TIP3    H223629   1.747   1.923   4.797
 7918TIP3   OH223630   1.664   2.624   5.251
 7918TIP3    H123631   1.597   2.561   5.218
 7918TIP3    H223632   1.709   2.568   5.319
 7919TIP3   OH223633   1.802   2.479   5.438
 7919TIP3    H123634   1.791   2.403   5.498
 7919TIP3    H223635   1.853   2.539   5.496
 7920TIP3   OH223636   3.561   2.856   5.240
 7920TIP3    H123637   3.510   2.881   5.319
 7920TIP3    H223638   3.539   2.928   5.180
 7921TIP3   OH223639   3.551   2.901   5.531
 7921TIP3    H123640   3.510   2.815   5.511
 7921TIP3    H223641   3.625   2.872   5.588
 7922TIP3   OH223642   3.605   2.572   6.092
 7922TIP3    H123643   3.532   2.580   6.156
 7922TIP3    H223644   3.645   2.661   6.097
 7923TIP3   OH223645   3.524   1.979   4.925
 7923TIP3    H123646   3.483   1.909   4.979
 7923TIP3    H223647   3.607   1.999   4.972
 7924TIP3   OH223648   3.599   2.343   5.351
 7924TIP3    H123649   3.657   2.281   5.300
 7924TIP3    H223650   3.561   2.400   5.284
 7925TIP3   OH223651   3.439   2.634   5.552
 7925TIP3    H123652   3.383   2.685   5.614
 7925TIP3    H223653   3.384   2.648   5.472
 7926TIP3   OH223654   3.492   1.861   4.569
 7926TIP3    H123655   3.418   1.867   4.504
 7926TIP3    H223656   3.479   1.941   4.622
 7927TIP3   OH223657   3.354   1.537   4.522
 7927TIP3    H123658   3.321   1.572   4.438
 7927TIP3    H223659   3.330   1.442   4.513
 7928TIP3   OH223660   3.361   1.802   5.065
 7928TIP3    H123661   3.374   1.706   5.057
 7928TIP3    H223662   3.351   1.814   5.162
 7929TIP3   OH223663   1.990   1.884   5.810
 7929TIP3    H123664   1.989   1.854   5.717
 7929TIP3    H223665   2.088   1.885   5.827
 7930TIP3   OH223666   3.652   2.233   5.919
 7930TIP3    H123667   3.726   2.169   5.912
 7930TIP3    H223668   3.680   2.305   5.861
 7931TIP3   OH223669   3.840   2.042   5.938
 7931TIP3    H123670   3.765   1.992   5.978
 7931TIP3    H223671   3.912   1.978   5.952
 7932TIP3   OH223672   3.301   1.271   4.511
 7932TIP3    H123673   3.379   1.238   4.560
 7932TIP3    H223674   3.230   1.209   4.533
 7933TIP3   OH223675   3.360   1.526   4.958
 7933TIP3    H123676   3.398   1.437   4.977
 7933TIP3    H223677   3.420   1.554   4.887
 7934TIP3   OH223678   3.521   1.704   5.453
 7934TIP3    H123679   3.608   1.729   5.415
 7934TIP3    H223680   3.533   1.737   5.544
 7935TIP3   OH223681   3.587   1.842   5.687
 7935TIP3    H123682   3.510   1.876   5.738
 7935TIP3    H223683   3.621   1.924   5.645
 7936TIP3   OH223684   2.206   1.572   6.485
 7936TIP3    H123685   2.304   1.565   6.486
 7936TIP3    H223686   2.183   1.487   6.528
 7937TIP3   OH223687   4.041   1.433   6.243
 7937TIP3    H123688   4.099   1.367   6.200
 7937TIP3    H223689   4.015   1.490   6.168
 7938TIP3   OH223690   3.466   1.276   4.998
 7938TIP3    H123691   3.516   1.259   5.081
 7938TIP3    H223692   3.407   1.198   4.996
 7939TIP3   OH223693   2.169   1.261   5.814
 7939TIP3    H123694   2.231   1.187   5.827
 7939TIP3    H223695   2.230   1.336   5.812
 7940TIP3   OH223696   1.974   1.536   5.891
 7940TIP3    H123697   2.021   1.528   5.806
 7940TIP3    H223698   2.002   1.624   5.920
 7941TIP3   OH223699   3.915   1.577   6.050
 7941TIP3    H123700   3.828   1.614   6.075
 7941TIP3    H223701   3.886   1.504   5.991
 7942TIP3   OH223702   3.551   1.213   4.627
 7942TIP3    H123703   3.590   1.138   4.578
 7942TIP3    H223704   3.620   1.281   4.619
 7943TIP3   OH223705   1.953   1.041   5.390
 7943TIP3    H123706   1.860   1.038   5.418
 7943TIP3    H223707   1.950   1.098   5.311
 7944TIP3   OH223708   3.119   2.725   4.900
 7944TIP3    H123709   3.167   2.732   4.814
 7944TIP3    H223710   3.154   2.806   4.946
 7945TIP3   OH223711   2.174   1.120   6.206
 7945TIP3    H123712   2.125   1.114   6.289
 7945TIP3    H223713   2.107   1.158   6.146
 7946TIP3   OH223714   2.214   2.547   6.283
 7946TIP3    H123715   2.123   2.516   6.266
 7946TIP3    H223716   2.225   2.527   6.377
 7947TIP3   OH223717   2.391   2.576   5.829
 7947TIP3    H123718   2.344   2.652   5.790
 7947TIP3    H223719   2.478   2.590   5.786
 7948TIP3   OH223720   2.837   2.822   5.968
 7948TIP3    H123721   2.880   2.824   6.057
 7948TIP3    H223722   2.902   2.875   5.916
 7949TIP3   OH223723   3.011   2.978   5.829
 7949TIP3    H123724   3.073   2.928   5.774
 7949TIP3    H223725   3.072   3.030   5.886
 7950TIP3   OH223726   3.811   1.338   5.925
 7950TIP3    H123727   3.719   1.332   5.895
 7950TIP3    H223728   3.841   1.245   5.914
 7951TIP3   OH223729   2.069   2.836   5.851
 7951TIP3    H123730   1.981   2.872   5.829
 7951TIP3    H223731   2.077   2.866   5.943
 7952TIP3   OH223732   2.305   2.813   5.709
 7952TIP3    H123733   2.219   2.827   5.755
 7952TIP3    H223734   2.285   2.847   5.620
 7953TIP3   OH223735   2.727   2.844   5.507
 7953TIP3    H123736   2.660   2.869   5.441
 7953TIP3    H223737   2.746   2.930   5.550
 7954TIP3   OH223738   2.997   2.799   5.578
 7954TIP3    H123739   2.906   2.805   5.544
 7954TIP3    H223740   3.051   2.803   5.496
 7955TIP3   OH223741   1.980   2.630   5.599
 7955TIP3    H123742   2.008   2.605   5.690
 7955TIP3    H223743   2.052   2.586   5.548
 7956TIP3   OH223744   2.173   2.501   5.453
 7956TIP3    H123745   2.189   2.417   5.502
 7956TIP3    H223746   2.263   2.539   5.450
 7957TIP3   OH223747   2.437   2.597   5.457
 7957TIP3    H123748   2.472   2.506   5.445
 7957TIP3    H223749   2.481   2.620   5.540
 7958TIP3   OH223750   3.014   1.251   5.540
 7958TIP3    H123751   2.971   1.184   5.597
 7958TIP3    H223752   3.086   1.201   5.499
 7959TIP3   OH223753   3.542   1.134   5.451
 7959TIP3    H123754   3.577   1.185   5.375
 7959TIP3    H223755   3.446   1.149   5.444
 7960TIP3   OH223756   3.635   1.236   5.213
 7960TIP3    H123757   3.708   1.183   5.174
 7960TIP3    H223758   3.669   1.327   5.198
 7961TIP3   OH223759   2.266   0.962   5.562
 7961TIP3    H123760   2.174   0.928   5.562
 7961TIP3    H223761   2.316   0.877   5.559
 7962TIP3   OH223762   2.049   0.830   5.209
 7962TIP3    H123763   2.079   0.889   5.138
 7962TIP3    H223764   2.019   0.894   5.277
 7963TIP3   OH223765   2.704   0.998   5.440
 7963TIP3    H123766   2.768   1.046   5.385
 7963TIP3    H223767   2.726   1.029   5.529
 7964TIP3   OH223768   3.259   1.139   5.425
 7964TIP3    H123769   3.254   1.101   5.337
 7964TIP3    H223770   3.244   1.060   5.482
 7965TIP3   OH223771   3.285   1.061   4.988
 7965TIP3    H123772   3.197   1.100   4.997
 7965TIP3    H223773   3.273   0.976   5.036
 7966TIP3   OH223774   1.769   2.398   4.990
 7966TIP3    H123775   1.684   2.366   4.955
 7966TIP3    H223776   1.757   2.493   4.978
 7967TIP3   OH223777   2.167   0.994   4.970
 7967TIP3    H123778   2.216   0.928   4.918
 7967TIP3    H223779   2.240   1.046   5.009
 7968TIP3   OH223780   2.684   1.165   5.069
 7968TIP3    H123781   2.740   1.117   5.132
 7968TIP3    H223782   2.704   1.257   5.098
 7969TIP3   OH223783   2.539   2.592   4.572
 7969TIP3    H123784   2.627   2.615   4.536
 7969TIP3    H223785   2.517   2.517   4.512
 7970TIP3   OH223786   3.256   2.709   4.664
 7970TIP3    H123787   3.247   2.614   4.645
 7970TIP3    H223788   3.212   2.749   4.586
 7971TIP3   OH223789   2.472   1.243   6.453
 7971TIP3    H123790   2.440   1.171   6.511
 7971TIP3    H223791   2.567   1.243   6.479
 7972TIP3   OH223792   2.721   1.240   6.571
 7972TIP3    H123793   2.806   1.212   6.533
 7972TIP3    H223794   2.708   1.171   6.639
 7973TIP3   OH223795   1.844   2.429   4.630
 7973TIP3    H123796   1.842   2.456   4.723
 7973TIP3    H223797   1.933   2.388   4.621
 7974TIP3   OH223798   3.545   1.299   6.360
 7974TIP3    H123799   3.565   1.268   6.451
 7974TIP3    H223800   3.633   1.294   6.318
 7975TIP3   OH223801   3.488   2.853   5.851
 7975TIP3    H123802   3.406   2.823   5.805
 7975TIP3    H223803   3.469   2.949   5.853
 7976TIP3   OH223804   4.752   2.224   4.620
 7976TIP3    H123805   4.725   2.316   4.599
 7976TIP3    H223806   4.675   2.176   4.585
 7977TIP3   OH223807   4.750   2.224   4.996
 7977TIP3    H123808   4.779   2.194   5.084
 7977TIP3    H223809   4.708   2.144   4.961
 7978TIP3   OH223810   4.048   2.122   5.363
 7978TIP3    H123811   4.078   2.054   5.427
 7978TIP3    H223812   4.128   2.176   5.359
 7979TIP3   OH223813   4.993   2.526   4.679
 7979TIP3    H123814   4.979   2.457   4.745
 7979TIP3    H223815   5.020   2.602   4.733
 7980TIP3   OH223816   4.009   2.529   5.135
 7980TIP3    H123817   4.005   2.433   5.114
 7980TIP3    H223818   4.103   2.543   5.110
 7981TIP3   OH223819   3.724   1.739   4.879
 7981TIP3    H123820   3.676   1.823   4.879
 7981TIP3    H223821   3.657   1.678   4.843
 7982TIP3   OH223822   3.784   2.017   5.038
 7982TIP3    H123823   3.832   1.942   5.079
 7982TIP3    H223824   3.845   2.043   4.968
 7983TIP3   OH223825   4.639   2.988   4.694
 7983TIP3    H123826   4.689   2.916   4.649
 7983TIP3    H223827   4.637   2.956   4.785
 7984TIP3   OH223828   4.549   2.451   5.047
 7984TIP3    H123829   4.585   2.375   4.998
 7984TIP3    H223830   4.633   2.494   5.071
 7985TIP3   OH223831   5.538   1.768   5.066
 7985TIP3    H123832   5.586   1.849   5.095
 7985TIP3    H223833   5.561   1.768   4.971
 7986TIP3   OH223834   4.965   1.951   5.082
 7986TIP3    H123835   5.004   1.863   5.100
 7986TIP3    H223836   4.932   1.938   4.991
 7987TIP3   OH223837   4.298   1.612   5.046
 7987TIP3    H123838   4.277   1.684   4.983
 7987TIP3    H223839   4.251   1.537   5.002
 7988TIP3   OH223840   4.989   1.703   4.668
 7988TIP3    H123841   5.063   1.687   4.731
 7988TIP3    H223842   5.040   1.738   4.592
 7989TIP3   OH223843   3.933   1.817   5.151
 7989TIP3    H123844   4.016   1.794   5.199
 7989TIP3    H223845   3.944   1.759   5.073
 7990TIP3   OH223846   4.374   2.012   4.943
 7990TIP3    H123847   4.467   1.986   4.957
 7990TIP3    H223848   4.334   1.928   4.912
 7991TIP3   OH223849   5.624   1.977   5.237
 7991TIP3    H123850   5.556   2.040   5.206
 7991TIP3    H223851   5.674   2.030   5.302
 7992TIP3   OH223852   4.297   1.595   5.479
 7992TIP3    H123853   4.235   1.631   5.413
 7992TIP3    H223854   4.246   1.611   5.561
 7993TIP3   OH223855   4.647   2.447   4.488
 7993TIP3    H123856   4.601   2.422   4.407
 7993TIP3    H223857   4.603   2.532   4.510
 7994TIP3   OH223858   4.403   2.369   5.277
 7994TIP3    H123859   4.339   2.433   5.315
 7994TIP3    H223860   4.446   2.421   5.207
 7995TIP3   OH223861   5.203   1.704   4.833
 7995TIP3    H123862   5.203   1.643   4.907
 7995TIP3    H223863   5.258   1.778   4.865
 7996TIP3   OH223864   4.165   1.711   5.264
 7996TIP3    H123865   4.229   1.782   5.287
 7996TIP3    H223866   4.214   1.668   5.190
 7997TIP3   OH223867   4.229   2.562   5.369
 7997TIP3    H123868   4.208   2.653   5.339
 7997TIP3    H223869   4.155   2.547   5.432
 7998TIP3   OH223870   3.638   2.254   4.605
 7998TIP3    H123871   3.584   2.277   4.527
 7998TIP3    H223872   3.654   2.341   4.645
 7999TIP3   OH223873   5.065   2.767   4.849
 7999TIP3    H123874   4.975   2.759   4.888
 7999TIP3    H223875   5.058   2.854   4.804
 8000TIP3   OH223876   4.655   1.316   5.193
 8000TIP3    H123877   4.643   1.220   5.210
 8000TIP3    H223878   4.576   1.352   5.239
 8001TIP3   OH223879   4.770   2.816   4.525
 8001TIP3    H123880   4.820   2.734   4.502
 8001TIP3    H223881   4.828   2.882   4.482
 8002TIP3   OH223882   4.911   2.601   4.425
 8002TIP3    H123883   4.868   2.523   4.389
 8002TIP3    H223884   4.946   2.566   4.511
 8003TIP3   OH223885   5.291   2.684   5.192
 8003TIP3    H123886   5.281   2.606   5.133
 8003TIP3    H223887   5.274   2.758   5.131
 8004TIP3   OH223888   4.583   2.077   4.448
 8004TIP3    H123889   4.501   2.126   4.425
 8004TIP3    H223890   4.628   2.072   4.362
 8005TIP3   OH223891   4.541   1.859   4.169
 8005TIP3    H123892   4.611   1.909   4.215
 8005TIP3    H223893   4.596   1.795   4.120
 8006TIP3   OH223894   5.486   2.315   5.036
 8006TIP3    H123895   5.404   2.370   5.042
 8006TIP3    H223896   5.516   2.340   4.946
 8007TIP3   OH223897   4.929   2.159   4.422
 8007TIP3    H123898   4.874   2.184   4.499
 8007TIP3    H223899   5.012   2.132   4.466
 8008TIP3   OH223900   5.163   2.202   5.328
 8008TIP3    H123901   5.161   2.285   5.380
 8008TIP3    H223902   5.076   2.206   5.285
 8009TIP3   OH223903   4.161   2.159   4.839
 8009TIP3    H123904   4.119   2.101   4.771
 8009TIP3    H223905   4.238   2.105   4.866
 8010TIP3   OH223906   4.280   2.562   4.991
 8010TIP3    H123907   4.267   2.522   4.904
 8010TIP3    H223908   4.372   2.536   5.011
 8011TIP3   OH223909   4.297   2.129   5.191
 8011TIP3    H123910   4.331   2.108   5.101
 8011TIP3    H223911   4.343   2.213   5.212
 8012TIP3   OH223912   4.824   2.765   4.968
 8012TIP3    H123913   4.810   2.846   5.021
 8012TIP3    H223914   4.810   2.693   5.033
 8013TIP3   OH223915   4.436   2.685   5.514
 8013TIP3    H123916   4.378   2.747   5.563
 8013TIP3    H223917   4.369   2.629   5.469
 8014TIP3   OH223918   4.772   2.016   4.247
 8014TIP3    H123919   4.830   2.075   4.299
 8014TIP3    H223920   4.797   2.041   4.155
 8015TIP3   OH223921   4.188   2.246   5.611
 8015TIP3    H123922   4.193   2.330   5.661
 8015TIP3    H223923   4.094   2.224   5.625
 8016TIP3   OH223924   4.511   2.698   4.524
 8016TIP3    H123925   4.588   2.754   4.545
 8016TIP3    H223926   4.450   2.761   4.483
 8017TIP3   OH223927   4.229   2.851   5.600
 8017TIP3    H123928   4.186   2.853   5.513
 8017TIP3    H223929   4.152   2.833   5.660
 8018TIP3   OH223930   5.286   1.259   4.294
 8018TIP3    H123931   5.205   1.278   4.346
 8018TIP3    H223932   5.297   1.343   4.244
 8019TIP3   OH223933   4.026   2.001   4.646
 8019TIP3    H123934   3.963   2.045   4.586
 8019TIP3    H223935   3.988   1.913   4.653
 8020TIP3   OH223936   5.082   2.628   3.841
 8020TIP3    H123937   5.090   2.725   3.829
 8020TIP3    H223938   5.174   2.599   3.823
 8021TIP3   OH223939   3.811   2.382   5.544
 8021TIP3    H123940   3.738   2.353   5.486
 8021TIP3    H223941   3.847   2.297   5.578
 8022TIP3   OH223942   5.529   3.026   5.236
 8022TIP3    H123943   5.527   2.929   5.251
 8022TIP3    H223944   5.446   3.052   5.282
 8023TIP3   OH223945   4.634   2.815   5.370
 8023TIP3    H123946   4.636   2.907   5.404
 8023TIP3    H223947   4.565   2.776   5.427
 8024TIP3   OH223948   4.394   2.944   4.323
 8024TIP3    H123949   4.347   2.925   4.240
 8024TIP3    H223950   4.362   3.033   4.346
 8025TIP3   OH223951   3.832   2.791   4.705
 8025TIP3    H123952   3.878   2.781   4.790
 8025TIP3    H223953   3.753   2.737   4.719
 8026TIP3   OH223954   4.597   2.845   3.965
 8026TIP3    H123955   4.656   2.774   3.929
 8026TIP3    H223956   4.629   2.853   4.057
 8027TIP3   OH223957   4.646   2.891   4.235
 8027TIP3    H123958   4.557   2.902   4.276
 8027TIP3    H223959   4.695   2.850   4.308
 8028TIP3   OH223960   5.422   2.155   5.502
 8028TIP3    H123961   5.338   2.182   5.462
 8028TIP3    H223962   5.401   2.066   5.534
 8029TIP3   OH223963   4.015   2.562   5.532
 8029TIP3    H123964   4.064   2.557   5.617
 8029TIP3    H223965   3.942   2.499   5.549
 8030TIP3   OH223966   4.414   1.391   5.319
 8030TIP3    H123967   4.324   1.359   5.295
 8030TIP3    H223968   4.389   1.473   5.366
 8031TIP3   OH223969   4.946   1.507   5.516
 8031TIP3    H123970   5.013   1.478   5.581
 8031TIP3    H223971   4.861   1.485   5.561
 8032TIP3   OH223972   5.207   1.951   5.448
 8032TIP3    H123973   5.147   1.936   5.524
 8032TIP3    H223974   5.166   2.027   5.404
 8033TIP3   OH223975   4.848   2.067   3.992
 8033TIP3    H123976   4.814   2.039   3.905
 8033TIP3    H223977   4.927   2.117   3.965
 8034TIP3   OH223978   4.561   1.440   4.292
 8034TIP3    H123979   4.528   1.438   4.384
 8034TIP3    H223980   4.522   1.357   4.259
 8035TIP3   OH223981   4.346   1.905   5.340
 8035TIP3    H123982   4.296   1.926   5.422
 8035TIP3    H223983   4.329   1.986   5.286
 8036TIP3   OH223984   4.229   1.792   4.854
 8036TIP3    H123985   4.136   1.765   4.871
 8036TIP3    H223986   4.243   1.752   4.765
 8037TIP3   OH223987   4.720   1.878   4.581
 8037TIP3    H123988   4.666   1.949   4.540
 8037TIP3    H223989   4.774   1.849   4.506
 8038TIP3   OH223990   4.894   2.157   5.668
 8038TIP3    H123991   4.871   2.085   5.731
 8038TIP3    H223992   4.987   2.173   5.692
 8039TIP3   OH223993   4.879   1.908   4.822
 8039TIP3    H123994   4.819   1.939   4.751
 8039TIP3    H223995   4.910   1.825   4.779
 8040TIP3   OH223996   4.163   1.935   5.549
 8040TIP3    H123997   4.191   1.996   5.619
 8040TIP3    H223998   4.151   1.852   5.599
 8041TIP3   OH223999   4.216   1.412   4.259
 8041TIP3    H124000   4.208   1.408   4.356
 8041TIP3    H224001   4.135   1.461   4.235
 8042TIP3   OH224002   3.757   1.462   5.127
 8042TIP3    H124003   3.834   1.488   5.181
 8042TIP3    H224004   3.796   1.421   5.048
 8043TIP3   OH224005   3.735   1.438   4.650
 8043TIP3    H124006   3.779   1.477   4.571
 8043TIP3    H224007   3.673   1.511   4.671
 8044TIP3   OH224008   4.890   2.154   5.244
 8044TIP3    H124009   4.922   2.080   5.187
 8044TIP3    H224010   4.860   2.103   5.323
 8045TIP3   OH224011   4.556   1.617   4.917
 8045TIP3    H124012   4.472   1.611   4.967
 8045TIP3    H224013   4.621   1.615   4.989
 8046TIP3   OH224014   3.990   1.668   4.925
 8046TIP3    H124015   3.896   1.673   4.899
 8046TIP3    H224016   4.016   1.577   4.902
 8047TIP3   OH224017   4.263   1.668   4.611
 8047TIP3    H124018   4.357   1.681   4.590
 8047TIP3    H224019   4.217   1.690   4.528
 8048TIP3   OH224020   5.057   1.685   5.118
 8048TIP3    H124021   5.020   1.697   5.209
 8048TIP3    H224022   4.991   1.624   5.080
 8049TIP3   OH224023   4.099   1.700   4.392
 8049TIP3    H124024   4.027   1.655   4.343
 8049TIP3    H224025   4.151   1.735   4.317
 8050TIP3   OH224026   5.217   3.377   5.335
 8050TIP3    H124027   5.215   3.402   5.241
 8050TIP3    H224028   5.294   3.428   5.368
 8051TIP3   OH224029   4.176   2.491   5.756
 8051TIP3    H124030   4.255   2.520   5.806
 8051TIP3    H224031   4.110   2.489   5.829
 8052TIP3   OH224032   4.641   1.942   5.014
 8052TIP3    H124033   4.710   1.899   4.963
 8052TIP3    H224034   4.650   1.900   5.102
 8053TIP3   OH224035   4.165   1.430   4.890
 8053TIP3    H124036   4.132   1.350   4.935
 8053TIP3    H224037   4.218   1.393   4.818
 8054TIP3   OH224038   4.617   1.838   5.302
 8054TIP3    H124039   4.527   1.873   5.317
 8054TIP3    H224040   4.673   1.898   5.354
 8055TIP3   OH224041   4.353   2.230   4.398
 8055TIP3    H124042   4.281   2.165   4.387
 8055TIP3    H224043   4.336   2.263   4.489
 8056TIP3   OH224044   5.256   2.464   5.029
 8056TIP3    H124045   5.280   2.514   4.947
 8056TIP3    H224046   5.169   2.425   5.005
 8057TIP3   OH224047   4.812   1.543   4.259
 8057TIP3    H124048   4.715   1.526   4.266
 8057TIP3    H224049   4.822   1.637   4.281
 8058TIP3   OH224050   4.753   2.546   5.396
 8058TIP3    H124051   4.774   2.524   5.487
 8058TIP3    H224052   4.716   2.636   5.403
 8059TIP3   OH224053   4.882   1.789   4.363
 8059TIP3    H124054   4.979   1.794   4.377
 8059TIP3    H224055   4.863   1.867   4.308
 8060TIP3   OH224056   4.044   2.260   5.075
 8060TIP3    H124057   4.081   2.229   4.990
 8060TIP3    H224058   4.081   2.194   5.136
 8061TIP3   OH224059   4.499   2.380   4.219
 8061TIP3    H124060   4.452   2.466   4.226
 8061TIP3    H224061   4.444   2.324   4.278
 8062TIP3   OH224062   3.924   2.176   5.687
 8062TIP3    H124063   3.948   2.162   5.781
 8062TIP3    H224064   3.857   2.106   5.675
 8063TIP3   OH224065   4.650   2.285   5.706
 8063TIP3    H124066   4.592   2.224   5.657
 8063TIP3    H224067   4.739   2.253   5.679
 8064TIP3   OH224068   4.914   2.805   5.290
 8064TIP3    H124069   4.818   2.806   5.302
 8064TIP3    H224070   4.943   2.857   5.368
 8065TIP3   OH224071   5.325   1.877   4.199
 8065TIP3    H124072   5.263   1.830   4.139
 8065TIP3    H224073   5.321   1.965   4.157
 8066TIP3   OH224074   5.541   2.733   5.282
 8066TIP3    H124075   5.443   2.730   5.273
 8066TIP3    H224076   5.567   2.705   5.191
 8067TIP3   OH224077   5.028   2.697   4.109
 8067TIP3    H124078   4.996   2.630   4.172
 8067TIP3    H224079   5.032   2.648   4.025
 8068TIP3   OH224080   5.020   2.326   4.949
 8068TIP3    H124081   4.926   2.301   4.962
 8068TIP3    H224082   5.054   2.248   4.903
 8069TIP3   OH224083   4.142   2.556   4.705
 8069TIP3    H124084   4.150   2.636   4.649
 8069TIP3    H224085   4.047   2.538   4.695
 8070TIP3   OH224086   3.711   1.859   4.400
 8070TIP3    H124087   3.757   1.944   4.419
 8070TIP3    H224088   3.634   1.865   4.460
 8071TIP3   OH224089   4.287   2.323   4.645
 8071TIP3    H124090   4.252   2.412   4.664
 8071TIP3    H224091   4.250   2.272   4.719
 8072TIP3   OH224092   4.414   2.897   5.170
 8072TIP3    H124093   4.453   2.971   5.120
 8072TIP3    H224094   4.491   2.866   5.220
 8073TIP3   OH224095   4.070   2.791   4.554
 8073TIP3    H124096   3.981   2.800   4.595
 8073TIP3    H224097   4.100   2.884   4.554
 8074TIP3   OH224098   4.805   2.532   5.126
 8074TIP3    H124099   4.797   2.531   5.224
 8074TIP3    H224100   4.886   2.481   5.114
 8075TIP3   OH224101   4.776   2.425   4.008
 8075TIP3    H124102   4.828   2.400   4.088
 8075TIP3    H224103   4.687   2.399   4.036
 8076TIP3   OH224104   5.053   3.067   5.177
 8076TIP3    H124105   4.974   3.011   5.169
 8076TIP3    H224106   5.038   3.133   5.105
 8077TIP3   OH224107   5.121   2.906   3.824
 8077TIP3    H124108   5.160   2.988   3.790
 8077TIP3    H224109   5.037   2.944   3.859
 8078TIP3   OH224110   4.139   1.678   5.696
 8078TIP3    H124111   4.044   1.683   5.712
 8078TIP3    H224112   4.168   1.617   5.767
 8079TIP3   OH224113   4.936   2.359   4.225
 8079TIP3    H124114   4.926   2.293   4.297
 8079TIP3    H224115   5.034   2.358   4.214
 8080TIP3   OH224116   4.146   2.406   4.008
 8080TIP3    H124117   4.159   2.315   3.977
 8080TIP3    H224118   4.127   2.392   4.103
 8081TIP3   OH224119   4.091   2.410   4.281
 8081TIP3    H124120   4.162   2.384   4.341
 8081TIP3    H224121   4.095   2.508   4.287
 8082TIP3   OH224122   3.828   2.104   4.483
 8082TIP3    H124123   3.763   2.150   4.540
 8082TIP3    H224124   3.842   2.174   4.416
 8083TIP3   OH224125   4.980   1.739   5.376
 8083TIP3    H124126   5.042   1.779   5.438
 8083TIP3    H224127   4.953   1.658   5.425
 8084TIP3   OH224128   4.851   1.496   4.539
 8084TIP3    H124129   4.838   1.518   4.444
 8084TIP3    H224130   4.891   1.578   4.574
 8085TIP3   OH224131   4.356   2.610   4.231
 8085TIP3    H124132   4.269   2.638   4.265
 8085TIP3    H224133   4.372   2.679   4.166
 8086TIP3   OH224134   4.546   1.671   4.643
 8086TIP3    H124135   4.611   1.742   4.625
 8086TIP3    H224136   4.550   1.666   4.741
 8087TIP3   OH224137   4.814   1.994   5.453
 8087TIP3    H124138   4.829   2.051   5.530
 8087TIP3    H224139   4.866   1.915   5.476
 8088TIP3   OH224140   4.691   1.404   4.749
 8088TIP3    H124141   4.681   1.483   4.805
 8088TIP3    H224142   4.750   1.440   4.678
 8089TIP3   OH224143   4.098   2.684   4.296
 8089TIP3    H124144   4.068   2.752   4.232
 8089TIP3    H224145   4.081   2.729   4.382
 8090TIP3   OH224146   4.199   1.396   4.535
 8090TIP3    H124147   4.198   1.487   4.571
 8090TIP3    H224148   4.295   1.377   4.544
 8091TIP3   OH224149   5.418   1.819   5.347
 8091TIP3    H124150   5.346   1.863   5.400
 8091TIP3    H224151   5.484   1.891   5.341
 8092TIP3   OH224152   5.107   2.084   4.821
 8092TIP3    H124153   5.029   2.026   4.830
 8092TIP3    H224154   5.176   2.034   4.869
 8093TIP3   OH224155   3.814   2.316   4.291
 8093TIP3    H124156   3.875   2.392   4.299
 8093TIP3    H224157   3.862   2.264   4.223
 8094TIP3   OH224158   3.762   1.590   4.425
 8094TIP3    H124159   3.761   1.687   4.417
 8094TIP3    H224160   3.683   1.564   4.378
 8095TIP3   OH224161   5.073   3.039   4.770
 8095TIP3    H124162   5.030   3.086   4.695
 8095TIP3    H224163   5.167   3.059   4.749
 8096TIP3   OH224164   4.149   1.311   5.298
 8096TIP3    H124165   4.118   1.276   5.212
 8096TIP3    H224166   4.139   1.232   5.356
 8097TIP3   OH224167   3.685   2.521   4.686
 8097TIP3    H124168   3.611   2.568   4.728
 8097TIP3    H224169   3.680   2.560   4.596
 8098TIP3   OH224170   3.844   3.069   5.748
 8098TIP3    H124171   3.929   3.067   5.798
 8098TIP3    H224172   3.821   2.974   5.747
 8099TIP3   OH224173   4.329   3.037   5.792
 8099TIP3    H124174   4.423   3.017   5.803
 8099TIP3    H224175   4.306   2.979   5.717
 8100TIP3   OH224176   4.309   2.611   3.924
 8100TIP3    H124177   4.252   2.540   3.961
 8100TIP3    H224178   4.383   2.557   3.889
 8101TIP3   OH224179   4.968   2.939   5.524
 8101TIP3    H124180   4.957   2.870   5.594
 8101TIP3    H224181   5.044   2.991   5.557
 8102TIP3   OH224182   4.746   2.654   3.834
 8102TIP3    H124183   4.789   2.586   3.889
 8102TIP3    H224184   4.800   2.652   3.752
 8103TIP3   OH224185   3.977   2.476   5.948
 8103TIP3    H124186   3.993   2.380   5.956
 8103TIP3    H224187   3.888   2.478   5.908
 8104TIP3   OH224188   3.952   2.129   4.141
 8104TIP3    H124189   4.006   2.093   4.213
 8104TIP3    H224190   4.019   2.133   4.069
 8105TIP3   OH224191   4.586   2.560   5.722
 8105TIP3    H124192   4.543   2.573   5.635
 8105TIP3    H224193   4.616   2.467   5.717
 8106TIP3   OH224194   4.461   2.326   3.949
 8106TIP3    H124195   4.462   2.339   4.045
 8106TIP3    H224196   4.460   2.228   3.944
 8107TIP3   OH224197   5.076   2.565   5.327
 8107TIP3    H124198   5.149   2.613   5.284
 8107TIP3    H224199   5.004   2.630   5.318
 8108TIP3   OH224200   4.096   2.208   5.928
 8108TIP3    H124201   4.167   2.144   5.916
 8108TIP3    H224202   4.117   2.242   6.017
 8109TIP3   OH224203   4.164   2.029   4.367
 8109TIP3    H124204   4.136   1.985   4.448
 8109TIP3    H224205   4.197   1.954   4.313
 8110TIP3   OH224206   4.428   2.094   5.591
 8110TIP3    H124207   4.352   2.155   5.597
 8110TIP3    H224208   4.476   2.127   5.512
 8111TIP3   OH224209   4.260   1.823   4.206
 8111TIP3    H124210   4.233   1.823   4.112
 8111TIP3    H224211   4.357   1.830   4.198
 8112TIP3   OH224212   4.944   2.495   5.726
 8112TIP3    H124213   5.029   2.478   5.684
 8112TIP3    H224214   4.943   2.430   5.799
 8113TIP3   OH224215   5.087   2.157   3.865
 8113TIP3    H124216   5.063   2.108   3.784
 8113TIP3    H224217   5.053   2.246   3.840
 8114TIP3   OH224218   4.553   1.882   5.720
 8114TIP3    H124219   4.552   1.801   5.666
 8114TIP3    H224220   4.508   1.947   5.662
 8115TIP3   OH224221   4.555   1.669   5.525
 8115TIP3    H124222   4.581   1.709   5.440
 8115TIP3    H224223   4.461   1.645   5.508
 8116TIP3   OH224224   4.585   2.204   5.397
 8116TIP3    H124225   4.667   2.213   5.346
 8116TIP3    H224226   4.529   2.273   5.356
 8117TIP3   OH224227   5.164   2.171   5.777
 8117TIP3    H124228   5.214   2.093   5.806
 8117TIP3    H224229   5.234   2.235   5.756
 8118TIP3   OH224230   5.209   2.421   5.513
 8118TIP3    H124231   5.149   2.475   5.456
 8118TIP3    H224232   5.295   2.445   5.472
 8119TIP3   OH224233   4.427   1.999   5.945
 8119TIP3    H124234   4.360   1.930   5.962
 8119TIP3    H224235   4.465   1.969   5.860
 8120TIP3   OH224236   4.688   1.433   5.589
 8120TIP3    H124237   4.638   1.515   5.569
 8120TIP3    H224238   4.618   1.365   5.579
 8121TIP3   OH224239   4.815   1.939   5.808
 8121TIP3    H124240   4.807   1.928   5.904
 8121TIP3    H224241   4.724   1.913   5.781
 8122TIP3   OH224242   5.051   1.878   5.657
 8122TIP3    H124243   4.976   1.886   5.719
 8122TIP3    H224244   5.124   1.852   5.717
 8123TIP3   OH224245   5.284   1.825   5.811
 8123TIP3    H124246   5.294   1.730   5.835
 8123TIP3    H224247   5.275   1.867   5.899
 8124TIP3   OH224248   4.271   1.777   5.999
 8124TIP3    H124249   4.277   1.686   5.966
 8124TIP3    H224250   4.305   1.765   6.090
 8125TIP3   OH224251   4.784   1.445   5.847
 8125TIP3    H124252   4.851   1.374   5.844
 8125TIP3    H224253   4.743   1.435   5.758
 8126TIP3   OH224254   4.849   1.659   6.006
 8126TIP3    H124255   4.825   1.587   5.944
 8126TIP3    H224256   4.770   1.717   6.002
 8127TIP3   OH224257   4.067   2.885   4.108
 8127TIP3    H124258   4.162   2.885   4.088
 8127TIP3    H224259   4.034   2.933   4.031
 8128TIP3   OH224260   3.545   2.265   4.327
 8128TIP3    H124261   3.640   2.289   4.316
 8128TIP3    H224262   3.543   2.177   4.284
 8129TIP3   OH224263   3.490   2.859   4.705
 8129TIP3    H124264   3.397   2.832   4.693
 8129TIP3    H224265   3.509   2.823   4.794
 8130TIP3   OH224266   3.609   2.734   4.927
 8130TIP3    H124267   3.554   2.682   4.987
 8130TIP3    H224268   3.654   2.795   4.989
 8131TIP3   OH224269   5.325   3.132   4.724
 8131TIP3    H124270   5.350   3.166   4.812
 8131TIP3    H224271   5.384   3.182   4.666
 8132TIP3   OH224272   5.355   3.153   5.006
 8132TIP3    H124273   5.313   3.065   5.002
 8132TIP3    H224274   5.430   3.133   5.064
 8133TIP3   OH224275   5.401   2.829   5.579
 8133TIP3    H124276   5.327   2.837   5.643
 8133TIP3    H224277   5.442   2.918   5.584
 8134TIP3   OH224278   5.219   2.345   4.201
 8134TIP3    H124279   5.291   2.406   4.179
 8134TIP3    H224280   5.257   2.301   4.281
 8135TIP3   OH224281   5.343   2.212   4.404
 8135TIP3    H124282   5.279   2.168   4.463
 8135TIP3    H224283   5.409   2.249   4.466
 8136TIP3   OH224284   5.397   2.600   4.837
 8136TIP3    H124285   5.451   2.539   4.784
 8136TIP3    H224286   5.387   2.676   4.776
 8137TIP3   OH224287   5.232   2.902   5.032
 8137TIP3    H124288   5.161   2.945   5.084
 8137TIP3    H224289   5.180   2.854   4.964
 8138TIP3   OH224290   5.284   2.118   4.052
 8138TIP3    H124291   5.212   2.120   3.984
 8138TIP3    H224292   5.256   2.194   4.107
 8139TIP3   OH224293   5.154   1.792   4.006
 8139TIP3    H124294   5.112   1.829   3.928
 8139TIP3    H224295   5.129   1.698   3.998
 8140TIP3   OH224296   5.160   2.065   4.551
 8140TIP3    H124297   5.167   1.968   4.545
 8140TIP3    H224298   5.147   2.079   4.647
 8141TIP3   OH224299   3.786   2.149   5.288
 8141TIP3    H124300   3.788   2.110   5.198
 8141TIP3    H224301   3.882   2.145   5.312
 8142TIP3   OH224302   5.448   2.490   5.405
 8142TIP3    H124303   5.523   2.427   5.397
 8142TIP3    H224304   5.476   2.563   5.347
 8143TIP3   OH224305   5.636   2.300   5.425
 8143TIP3    H124306   5.562   2.247   5.462
 8143TIP3    H224307   5.710   2.238   5.439
 8144TIP3   OH224308   5.097   1.527   3.996
 8144TIP3    H124309   5.174   1.494   4.047
 8144TIP3    H224310   5.025   1.466   4.019
 8145TIP3   OH224311   5.156   1.782   4.448
 8145TIP3    H124312   5.195   1.693   4.464
 8145TIP3    H224313   5.214   1.814   4.377
 8146TIP3   OH224314   5.322   1.953   4.947
 8146TIP3    H124315   5.405   1.983   4.902
 8146TIP3    H224316   5.330   2.005   5.029
 8147TIP3   OH224317   5.381   2.101   5.175
 8147TIP3    H124318   5.304   2.138   5.224
 8147TIP3    H224319   5.414   2.182   5.129
 8148TIP3   OH224320   4.004   1.828   5.971
 8148TIP3    H124321   4.101   1.821   5.974
 8148TIP3    H224322   3.978   1.744   6.014
 8149TIP3   OH224323   5.832   1.685   5.728
 8149TIP3    H124324   5.895   1.620   5.690
 8149TIP3    H224325   5.819   1.747   5.654
 8150TIP3   OH224326   5.263   1.532   4.485
 8150TIP3    H124327   5.312   1.514   4.568
 8150TIP3    H224328   5.203   1.454   4.482
 8151TIP3   OH224329   3.964   1.519   5.302
 8151TIP3    H124330   4.025   1.443   5.314
 8151TIP3    H224331   4.027   1.593   5.298
 8152TIP3   OH224332   3.767   1.795   5.375
 8152TIP3    H124333   3.817   1.785   5.292
 8152TIP3    H224334   3.805   1.875   5.412
 8153TIP3   OH224335   5.708   1.838   5.533
 8153TIP3    H124336   5.631   1.859   5.589
 8153TIP3    H224337   5.676   1.767   5.474
 8154TIP3   OH224338   5.347   1.469   4.115
 8154TIP3    H124339   5.387   1.395   4.065
 8154TIP3    H224340   5.415   1.538   4.107
 8155TIP3   OH224341   3.750   1.301   4.881
 8155TIP3    H124342   3.656   1.294   4.903
 8155TIP3    H224343   3.749   1.355   4.800
 8156TIP3   OH224344   4.911   2.996   4.383
 8156TIP3    H124345   4.963   2.983   4.301
 8156TIP3    H224346   4.961   3.066   4.428
 8157TIP3   OH224347   3.970   1.378   5.692
 8157TIP3    H124348   3.921   1.369   5.776
 8157TIP3    H224349   3.902   1.414   5.633
 8158TIP3   OH224350   4.011   2.796   5.768
 8158TIP3    H124351   3.917   2.774   5.754
 8158TIP3    H224352   4.020   2.784   5.864
 8159TIP3   OH224353   4.178   2.825   5.303
 8159TIP3    H124354   4.140   2.912   5.276
 8159TIP3    H224355   4.268   2.839   5.267
 8160TIP3   OH224356   4.635   3.080   5.454
 8160TIP3    H124357   4.676   3.081   5.543
 8160TIP3    H224358   4.702   3.131   5.402
 8161TIP3   OH224359   4.815   3.230   5.311
 8161TIP3    H124360   4.887   3.179   5.272
 8161TIP3    H224361   4.864   3.288   5.373
 8162TIP3   OH224362   5.606   1.586   5.407
 8162TIP3    H124363   5.515   1.562   5.429
 8162TIP3    H224364   5.646   1.496   5.394
 8163TIP3   OH224365   3.859   3.082   5.326
 8163TIP3    H124366   3.769   3.121   5.313
 8163TIP3    H224367   3.872   3.106   5.418
 8164TIP3   OH224368   4.099   3.066   5.195
 8164TIP3    H124369   4.014   3.087   5.241
 8164TIP3    H224370   4.083   3.107   5.107
 8165TIP3   OH224371   4.527   3.100   4.995
 8165TIP3    H124372   4.459   3.123   4.929
 8165TIP3    H224373   4.541   3.187   5.038
 8166TIP3   OH224374   4.796   3.040   5.044
 8166TIP3    H124375   4.701   3.056   5.026
 8166TIP3    H224376   4.837   3.119   5.005
 8167TIP3   OH224377   5.006   3.233   4.963
 8167TIP3    H124378   4.990   3.318   4.916
 8167TIP3    H224379   5.029   3.173   4.889
 8168TIP3   OH224380   3.798   2.882   5.084
 8168TIP3    H124381   3.829   2.942   5.154
 8168TIP3    H224382   3.877   2.859   5.033
 8169TIP3   OH224383   3.983   2.756   4.936
 8169TIP3    H124384   4.010   2.665   4.952
 8169TIP3    H224385   4.071   2.800   4.925
 8170TIP3   OH224386   4.238   2.854   4.943
 8170TIP3    H124387   4.275   2.766   4.928
 8170TIP3    H224388   4.282   2.877   5.027
 8171TIP3   OH224389   4.814   1.510   5.034
 8171TIP3    H124390   4.768   1.442   5.087
 8171TIP3    H224391   4.880   1.458   4.985
 8172TIP3   OH224392   5.336   1.422   4.956
 8172TIP3    H124393   5.373   1.450   4.869
 8172TIP3    H224394   5.242   1.410   4.934
 8173TIP3   OH224395   5.431   1.489   4.705
 8173TIP3    H124396   5.503   1.436   4.663
 8173TIP3    H224397   5.465   1.580   4.686
 8174TIP3   OH224398   4.061   1.218   5.049
 8174TIP3    H124399   3.969   1.184   5.050
 8174TIP3    H224400   4.111   1.134   5.047
 8175TIP3   OH224401   3.844   1.086   4.694
 8175TIP3    H124402   3.877   1.144   4.623
 8175TIP3    H224403   3.817   1.151   4.762
 8176TIP3   OH224404   4.501   1.254   4.927
 8176TIP3    H124405   4.564   1.302   4.872
 8176TIP3    H224406   4.523   1.286   5.015
 8177TIP3   OH224407   5.059   1.394   4.910
 8177TIP3    H124408   5.048   1.358   4.822
 8177TIP3    H224409   5.042   1.314   4.966
 8178TIP3   OH224410   5.082   1.318   4.475
 8178TIP3    H124411   4.993   1.358   4.482
 8178TIP3    H224412   5.067   1.233   4.522
 8179TIP3   OH224413   3.567   2.652   4.476
 8179TIP3    H124414   3.481   2.628   4.438
 8179TIP3    H224415   3.554   2.748   4.486
 8180TIP3   OH224416   3.963   1.249   4.459
 8180TIP3    H124417   4.011   1.184   4.404
 8180TIP3    H224418   4.036   1.302   4.496
 8181TIP3   OH224419   4.477   1.421   4.558
 8181TIP3    H124420   4.535   1.372   4.618
 8181TIP3    H224421   4.500   1.513   4.584
 8182TIP3   OH224422   4.337   2.849   4.058
 8182TIP3    H124423   4.425   2.871   4.021
 8182TIP3    H224424   4.314   2.774   3.999
 8183TIP3   OH224425   5.057   2.964   4.149
 8183TIP3    H124426   5.047   2.867   4.137
 8183TIP3    H224427   5.009   2.998   4.071
 8184TIP3   OH224428   4.269   1.500   5.940
 8184TIP3    H124429   4.235   1.429   5.997
 8184TIP3    H224430   4.364   1.500   5.966
 8185TIP3   OH224431   4.518   1.495   6.058
 8185TIP3    H124432   4.603   1.468   6.021
 8185TIP3    H224433   4.504   1.426   6.126
 8186TIP3   OH224434   3.639   2.683   4.116
 8186TIP3    H124435   3.635   2.717   4.207
 8186TIP3    H224436   3.729   2.645   4.110
 8187TIP3   OH224437   5.341   1.555   5.848
 8187TIP3    H124438   5.359   1.524   5.940
 8187TIP3    H224439   5.431   1.550   5.808
 8188TIP3   OH224440   5.284   3.110   5.337
 8188TIP3    H124441   5.204   3.077   5.292
 8188TIP3    H224442   5.264   3.206   5.341
 8189TIP3   OH224443   6.548   2.481   4.107
 8189TIP3    H124444   6.521   2.573   4.087
 8189TIP3    H224445   6.471   2.432   4.074
 8190TIP3   OH224446   6.546   2.481   4.483
 8190TIP3    H124447   6.574   2.449   4.570
 8190TIP3    H224448   6.505   2.401   4.446
 8191TIP3   OH224449   5.847   2.379   4.852
 8191TIP3    H124450   5.879   2.312   4.915
 8191TIP3    H224451   5.925   2.435   4.843
 8192TIP3   OH224452   6.789   2.782   4.166
 8192TIP3    H124453   6.776   2.713   4.232
 8192TIP3    H224454   6.817   2.858   4.220
 8193TIP3   OH224455   5.816   2.785   4.577
 8193TIP3    H124456   5.808   2.688   4.580
 8193TIP3    H224457   5.913   2.794   4.573
 8194TIP3   OH224458   5.523   1.992   4.364
 8194TIP3    H124459   5.473   2.075   4.375
 8194TIP3    H224460   5.454   1.934   4.327
 8195TIP3   OH224461   5.585   2.277   4.530
 8195TIP3    H124462   5.632   2.200   4.570
 8195TIP3    H224463   5.645   2.302   4.459
 8196TIP3   OH224464   6.435   3.244   4.181
 8196TIP3    H124465   6.485   3.173   4.135
 8196TIP3    H224466   6.434   3.211   4.272
 8197TIP3   OH224467   6.346   2.706   4.533
 8197TIP3    H124468   6.383   2.630   4.486
 8197TIP3    H224469   6.430   2.751   4.557
 8198TIP3   OH224470   7.356   2.027   4.530
 8198TIP3    H124471   7.387   2.110   4.571
 8198TIP3    H224472   7.379   2.043   4.437
 8199TIP3   OH224473   6.761   2.209   4.569
 8199TIP3    H124474   6.800   2.121   4.585
 8199TIP3    H224475   6.727   2.198   4.478
 8200TIP3   OH224476   6.090   1.869   4.534
 8200TIP3    H124477   6.073   1.939   4.468
 8200TIP3    H224478   6.048   1.792   4.489
 8201TIP3   OH224479   6.787   1.960   4.156
 8201TIP3    H124480   6.860   1.942   4.220
 8201TIP3    H224481   6.839   1.994   4.081
 8202TIP3   OH224482   5.728   2.070   4.640
 8202TIP3    H124483   5.811   2.050   4.686
 8202TIP3    H224484   5.740   2.015   4.559
 8203TIP3   OH224485   6.171   2.269   4.430
 8203TIP3    H124486   6.264   2.242   4.445
 8203TIP3    H224487   6.131   2.184   4.399
 8204TIP3   OH224488   7.432   2.232   4.700
 8204TIP3    H124489   7.349   2.281   4.682
 8204TIP3    H224490   7.445   2.250   4.794
 8205TIP3   OH224491   6.092   1.853   4.966
 8205TIP3    H124492   6.032   1.887   4.898
 8205TIP3    H224493   6.040   1.870   5.047
 8206TIP3   OH224494   6.441   2.702   3.977
 8206TIP3    H124495   6.399   2.679   3.893
 8206TIP3    H224496   6.398   2.788   3.997
 8207TIP3   OH224497   6.199   2.626   4.764
 8207TIP3    H124498   6.134   2.690   4.802
 8207TIP3    H224499   6.241   2.679   4.694
 8208TIP3   OH224500   7.000   1.961   4.323
 8208TIP3    H124501   6.998   1.902   4.400
 8208TIP3    H224502   7.057   2.033   4.353
 8209TIP3   OH224503   5.961   1.967   4.752
 8209TIP3    H124504   6.025   2.038   4.773
 8209TIP3    H224505   6.008   1.924   4.677
 8210TIP3   OH224506   6.025   2.818   4.858
 8210TIP3    H124507   6.000   2.904   4.820
 8210TIP3    H224508   5.947   2.804   4.916
 8211TIP3   OH224509   5.430   2.514   4.092
 8211TIP3    H124510   5.366   2.544   4.027
 8211TIP3    H224511   5.456   2.598   4.137
 8212TIP3   OH224512   6.861   3.024   4.336
 8212TIP3    H124513   6.771   3.016   4.375
 8212TIP3    H224514   6.855   3.110   4.291
 8213TIP3   OH224515   7.146   1.939   4.702
 8213TIP3    H124516   7.058   1.953   4.662
 8213TIP3    H224517   7.207   1.962   4.628
 8214TIP3   OH224518   6.461   1.576   4.687
 8214TIP3    H124519   6.436   1.481   4.680
 8214TIP3    H224520   6.377   1.609   4.725
 8215TIP3   OH224521   6.565   3.072   4.011
 8215TIP3    H124522   6.615   2.991   3.989
 8215TIP3    H224523   6.624   3.139   3.969
 8216TIP3   OH224524   6.705   2.858   3.914
 8216TIP3    H124525   6.671   2.777   3.872
 8216TIP3    H224526   6.740   2.823   3.998
 8217TIP3   OH224527   7.087   2.939   4.680
 8217TIP3    H124528   7.076   2.863   4.619
 8217TIP3    H224529   7.069   3.015   4.619
 8218TIP3   OH224530   6.378   2.334   3.934
 8218TIP3    H124531   6.298   2.384   3.909
 8218TIP3    H224532   6.426   2.329   3.850
 8219TIP3   OH224533   6.337   2.117   3.655
 8219TIP3    H124534   6.407   2.165   3.702
 8219TIP3    H224535   6.392   2.051   3.607
 8220TIP3   OH224536   7.283   2.574   4.523
 8220TIP3    H124537   7.201   2.627   4.529
 8220TIP3    H224538   7.312   2.597   4.432
 8221TIP3   OH224539   6.725   2.415   3.909
 8221TIP3    H124540   6.671   2.440   3.987
 8221TIP3    H224541   6.809   2.388   3.952
 8222TIP3   OH224542   6.955   2.459   4.804
 8222TIP3    H124543   6.959   2.543   4.854
 8222TIP3    H224544   6.865   2.464   4.766
 8223TIP3   OH224545   5.959   2.414   4.324
 8223TIP3    H124546   5.917   2.355   4.258
 8223TIP3    H224547   6.036   2.360   4.353
 8224TIP3   OH224548   6.088   2.825   4.472
 8224TIP3    H124549   6.068   2.777   4.391
 8224TIP3    H224550   6.179   2.794   4.492
 8225TIP3   OH224551   6.095   2.385   4.678
 8225TIP3    H124552   6.129   2.364   4.588
 8225TIP3    H224553   6.138   2.470   4.699
 8226TIP3   OH224554   6.619   3.022   4.455
 8226TIP3    H124555   6.606   3.102   4.508
 8226TIP3    H224556   6.606   2.950   4.519
 8227TIP3   OH224557   6.231   2.941   5.002
 8227TIP3    H124558   6.173   3.004   5.049
 8227TIP3    H224559   6.164   2.888   4.954
 8228TIP3   OH224560   6.567   2.274   3.734
 8228TIP3    H124561   6.627   2.332   3.786
 8228TIP3    H224562   6.593   2.298   3.642
 8229TIP3   OH224563   5.986   2.500   5.101
 8229TIP3    H124564   5.990   2.586   5.148
 8229TIP3    H224565   5.891   2.481   5.109
 8230TIP3   OH224566   6.307   2.956   4.007
 8230TIP3    H124567   6.386   3.008   4.030
 8230TIP3    H224568   6.247   3.024   3.973
 8231TIP3   OH224569   6.027   3.111   5.089
 8231TIP3    H124570   5.991   3.107   4.998
 8231TIP3    H224571   5.948   3.089   5.143
 8232TIP3   OH224572   7.083   1.515   3.782
 8232TIP3    H124573   7.001   1.533   3.833
 8232TIP3    H224574   7.093   1.599   3.732
 8233TIP3   OH224575   5.823   2.256   4.131
 8233TIP3    H124576   5.754   2.294   4.072
 8233TIP3    H224577   5.789   2.167   4.145
 8234TIP3   OH224578   6.880   2.883   3.330
 8234TIP3    H124579   6.888   2.980   3.316
 8234TIP3    H224580   6.973   2.854   3.316
 8235TIP3   OH224581   5.606   2.640   5.036
 8235TIP3    H124582   5.541   2.617   4.966
 8235TIP3    H224583   5.643   2.553   5.061
 8236TIP3   OH224584   5.459   2.833   4.669
 8236TIP3    H124585   5.556   2.828   4.661
 8236TIP3    H224586   5.449   2.912   4.723
 8237TIP3   OH224587   7.326   3.283   4.724
 8237TIP3    H124588   7.322   3.186   4.738
 8237TIP3    H224589   7.242   3.309   4.769
 8238TIP3   OH224590   6.431   3.071   4.858
 8238TIP3    H124591   6.431   3.163   4.891
 8238TIP3    H224592   6.360   3.032   4.914
 8239TIP3   OH224593   6.186   3.198   3.811
 8239TIP3    H124594   6.146   3.183   3.724
 8239TIP3    H224595   6.159   3.290   3.832
 8240TIP3   OH224596   5.628   3.049   4.193
 8240TIP3    H124597   5.678   3.040   4.277
 8240TIP3    H224598   5.562   2.979   4.206
 8241TIP3   OH224599   6.391   3.098   3.453
 8241TIP3    H124600   6.451   3.030   3.415
 8241TIP3    H224601   6.427   3.108   3.543
 8242TIP3   OH224602   6.440   3.148   3.723
 8242TIP3    H124603   6.353   3.156   3.768
 8242TIP3    H224604   6.494   3.109   3.794
 8243TIP3   OH224605   5.811   2.823   5.027
 8243TIP3    H124606   5.861   2.807   5.109
 8243TIP3    H224607   5.737   2.759   5.035
 8244TIP3   OH224608   6.211   1.652   4.808
 8244TIP3    H124609   6.126   1.615   4.777
 8244TIP3    H224610   6.179   1.731   4.856
 8245TIP3   OH224611   6.741   1.768   5.004
 8245TIP3    H124612   6.808   1.731   5.066
 8245TIP3    H224613   6.656   1.741   5.046
 8246TIP3   OH224614   7.004   2.237   4.965
 8246TIP3    H124615   6.928   2.196   5.014
 8246TIP3    H224616   6.958   2.283   4.891
 8247TIP3   OH224617   6.643   2.325   3.479
 8247TIP3    H124618   6.610   2.296   3.391
 8247TIP3    H224619   6.724   2.373   3.452
 8248TIP3   OH224620   6.356   1.698   3.778
 8248TIP3    H124621   6.326   1.695   3.871
 8248TIP3    H224622   6.319   1.613   3.746
 8249TIP3   OH224623   6.142   2.162   4.827
 8249TIP3    H124624   6.091   2.183   4.908
 8249TIP3    H224625   6.125   2.242   4.772
 8250TIP3   OH224626   6.024   2.050   4.340
 8250TIP3    H124627   5.932   2.020   4.358
 8250TIP3    H224628   6.039   2.008   4.253
 8251TIP3   OH224629   6.517   2.136   4.068
 8251TIP3    H124630   6.462   2.206   4.027
 8251TIP3    H224631   6.571   2.105   3.992
 8252TIP3   OH224632   6.688   2.413   5.154
 8252TIP3    H124633   6.667   2.341   5.218
 8252TIP3    H224634   6.783   2.424   5.166
 8253TIP3   OH224635   6.676   2.165   4.308
 8253TIP3    H124636   6.616   2.194   4.237
 8253TIP3    H224637   6.707   2.082   4.267
 8254TIP3   OH224638   5.959   2.192   5.037
 8254TIP3    H124639   5.989   2.255   5.105
 8254TIP3    H224640   5.954   2.109   5.088
 8255TIP3   OH224641   6.012   1.669   3.745
 8255TIP3    H124642   6.006   1.664   3.842
 8255TIP3    H224643   5.929   1.716   3.723
 8256TIP3   OH224644   5.553   1.715   4.619
 8256TIP3    H124645   5.632   1.744   4.669
 8256TIP3    H224646   5.590   1.680   4.536
 8257TIP3   OH224647   5.530   1.694   4.136
 8257TIP3    H124648   5.577   1.733   4.058
 8257TIP3    H224649   5.469   1.767   4.158
 8258TIP3   OH224650   6.686   2.411   4.731
 8258TIP3    H124651   6.718   2.338   4.673
 8258TIP3    H224652   6.655   2.358   4.808
 8259TIP3   OH224653   6.353   1.884   4.405
 8259TIP3    H124654   6.271   1.863   4.453
 8259TIP3    H224655   6.420   1.864   4.472
 8260TIP3   OH224656   5.787   1.925   4.412
 8260TIP3    H124657   5.693   1.929   4.384
 8260TIP3    H224658   5.814   1.834   4.388
 8261TIP3   OH224659   6.059   1.927   4.099
 8261TIP3    H124660   6.154   1.936   4.079
 8261TIP3    H224661   6.015   1.947   4.013
 8262TIP3   OH224662   6.846   1.945   4.608
 8262TIP3    H124663   6.804   1.955   4.696
 8262TIP3    H224664   6.785   1.882   4.565
 8263TIP3   OH224665   5.893   1.960   3.878
 8263TIP3    H124666   5.822   1.912   3.831
 8263TIP3    H224667   5.946   1.992   3.802
 8264TIP3   OH224668   7.013   3.634   4.822
 8264TIP3    H124669   7.012   3.659   4.728
 8264TIP3    H224670   7.091   3.683   4.854
 8265TIP3   OH224671   5.972   2.744   5.246
 8265TIP3    H124672   6.052   2.775   5.293
 8265TIP3    H224673   5.907   2.745   5.319
 8266TIP3   OH224674   6.438   2.202   4.503
 8266TIP3    H124675   6.502   2.153   4.449
 8266TIP3    H224676   6.444   2.155   4.588
 8267TIP3   OH224677   5.960   1.687   4.373
 8267TIP3    H124678   5.931   1.607   4.422
 8267TIP3    H224679   6.028   1.650   4.315
 8268TIP3   OH224680   6.414   2.095   4.787
 8268TIP3    H124681   6.323   2.128   4.802
 8268TIP3    H224682   6.469   2.156   4.840
 8269TIP3   OH224683   6.145   2.489   3.882
 8269TIP3    H124684   6.075   2.420   3.875
 8269TIP3    H224685   6.132   2.520   3.974
 8270TIP3   OH224686   7.052   2.721   4.516
 8270TIP3    H124687   7.076   2.770   4.434
 8270TIP3    H224688   6.965   2.681   4.491
 8271TIP3   OH224689   6.608   1.800   3.743
 8271TIP3    H124690   6.511   1.783   3.753
 8271TIP3    H224691   6.617   1.895   3.768
 8272TIP3   OH224692   6.551   2.804   4.882
 8272TIP3    H124693   6.568   2.781   4.975
 8272TIP3    H224694   6.512   2.892   4.888
 8273TIP3   OH224695   6.678   2.045   3.849
 8273TIP3    H124696   6.774   2.050   3.865
 8273TIP3    H224697   6.661   2.124   3.794
 8274TIP3   OH224698   5.841   2.506   4.562
 8274TIP3    H124699   5.880   2.479   4.477
 8274TIP3    H224700   5.881   2.443   4.623
 8275TIP3   OH224701   6.295   2.635   3.703
 8275TIP3    H124702   6.248   2.721   3.712
 8275TIP3    H224703   6.242   2.579   3.764
 8276TIP3   OH224704   5.721   2.430   5.174
 8276TIP3    H124705   5.745   2.418   5.267
 8276TIP3    H224706   5.652   2.363   5.162
 8277TIP3   OH224707   6.445   2.541   5.195
 8277TIP3    H124708   6.386   2.483   5.142
 8277TIP3    H224709   6.533   2.510   5.165
 8278TIP3   OH224710   6.711   3.060   4.778
 8278TIP3    H124711   6.614   3.061   4.789
 8278TIP3    H224712   6.739   3.114   4.855
 8279TIP3   OH224713   7.122   2.133   3.686
 8279TIP3    H124714   7.059   2.088   3.625
 8279TIP3    H224715   7.118   2.222   3.644
 8280TIP3   OH224716   7.337   2.989   4.769
 8280TIP3    H124717   7.239   2.987   4.759
 8280TIP3    H224718   7.363   2.962   4.678
 8281TIP3   OH224719   6.817   2.954   3.593
 8281TIP3    H124720   6.796   2.883   3.655
 8281TIP3    H224721   6.832   2.908   3.509
 8282TIP3   OH224722   6.816   2.583   4.437
 8282TIP3    H124723   6.722   2.557   4.448
 8282TIP3    H224724   6.850   2.504   4.390
 8283TIP3   OH224725   5.941   2.809   4.183
 8283TIP3    H124726   5.945   2.892   4.132
 8283TIP3    H224727   5.846   2.800   4.197
 8284TIP3   OH224728   5.503   2.115   3.887
 8284TIP3    H124729   5.550   2.198   3.910
 8284TIP3    H224730   5.426   2.120   3.948
 8285TIP3   OH224731   6.083   2.577   4.130
 8285TIP3    H124732   6.048   2.667   4.148
 8285TIP3    H224733   6.048   2.527   4.206
 8286TIP3   OH224734   6.211   3.155   4.656
 8286TIP3    H124735   6.251   3.228   4.604
 8286TIP3    H224736   6.288   3.122   4.705
 8287TIP3   OH224737   5.862   3.050   4.036
 8287TIP3    H124738   5.777   3.057   4.083
 8287TIP3    H224739   5.895   3.142   4.041
 8288TIP3   OH224740   6.602   2.790   4.613
 8288TIP3    H124741   6.594   2.788   4.711
 8288TIP3    H224742   6.681   2.736   4.599
 8289TIP3   OH224743   6.572   2.680   3.497
 8289TIP3    H124744   6.627   2.656   3.575
 8289TIP3    H224745   6.484   2.655   3.529
 8290TIP3   OH224746   6.849   3.325   4.664
 8290TIP3    H124747   6.770   3.268   4.655
 8290TIP3    H224748   6.835   3.390   4.592
 8291TIP3   OH224749   6.914   3.158   3.317
 8291TIP3    H124750   6.952   3.230   3.263
 8291TIP3    H224751   6.834   3.205   3.349
 8292TIP3   OH224752   5.939   1.935   5.187
 8292TIP3    H124753   5.845   1.933   5.207
 8292TIP3    H224754   5.974   1.872   5.253
 8293TIP3   OH224755   6.733   2.617   3.715
 8293TIP3    H124756   6.723   2.550   3.784
 8293TIP3    H224757   6.830   2.615   3.701
 8294TIP3   OH224758   5.651   3.019   4.815
 8294TIP3    H124759   5.702   2.943   4.845
 8294TIP3    H224760   5.678   3.086   4.878
 8295TIP3   OH224761   5.932   2.661   3.497
 8295TIP3    H124762   5.961   2.574   3.463
 8295TIP3    H224763   5.927   2.644   3.592
 8296TIP3   OH224764   5.880   2.667   3.778
 8296TIP3    H124765   5.958   2.637   3.827
 8296TIP3    H224766   5.891   2.765   3.782
 8297TIP3   OH224767   5.622   2.358   3.969
 8297TIP3    H124768   5.557   2.406   4.025
 8297TIP3    H224769   5.665   2.430   3.922
 8298TIP3   OH224770   6.771   2.003   4.871
 8298TIP3    H124771   6.854   2.014   4.918
 8298TIP3    H224772   6.740   1.919   4.912
 8299TIP3   OH224773   6.649   1.753   4.024
 8299TIP3    H124774   6.636   1.777   3.930
 8299TIP3    H224775   6.688   1.835   4.061
 8300TIP3   OH224776   6.147   2.862   3.715
 8300TIP3    H124777   6.064   2.898   3.753
 8300TIP3    H224778   6.172   2.934   3.656
 8301TIP3   OH224779   6.341   1.929   4.130
 8301TIP3    H124780   6.407   1.999   4.113
 8301TIP3    H224781   6.345   1.922   4.228
 8302TIP3   OH224782   6.609   2.249   4.937
 8302TIP3    H124783   6.625   2.301   5.018
 8302TIP3    H224784   6.660   2.167   4.953
 8303TIP3   OH224785   6.492   1.660   4.234
 8303TIP3    H124786   6.482   1.735   4.294
 8303TIP3    H224787   6.548   1.698   4.163
 8304TIP3   OH224788   5.886   2.940   3.782
 8304TIP3    H124789   5.864   3.014   3.720
 8304TIP3    H224790   5.876   2.983   3.869
 8305TIP3   OH224791   5.996   1.653   4.019
 8305TIP3    H124792   5.994   1.741   4.061
 8305TIP3    H224793   6.090   1.631   4.031
 8306TIP3   OH224794   7.257   2.159   4.922
 8306TIP3    H124795   7.160   2.157   4.919
 8306TIP3    H224796   7.277   2.111   4.840
 8307TIP3   OH224797   6.901   2.343   4.307
 8307TIP3    H124798   6.825   2.283   4.317
 8307TIP3    H224799   6.972   2.295   4.354
 8308TIP3   OH224800   5.617   2.604   3.729
 8308TIP3    H124801   5.690   2.647   3.779
 8308TIP3    H224802   5.667   2.522   3.702
 8309TIP3   OH224803   5.560   1.847   3.910
 8309TIP3    H124804   5.555   1.944   3.904
 8309TIP3    H224805   5.476   1.819   3.870
 8310TIP3   OH224806   6.869   3.295   4.257
 8310TIP3    H124807   6.827   3.343   4.182
 8310TIP3    H224808   6.963   3.315   4.237
 8311TIP3   OH224809   5.939   1.568   4.788
 8311TIP3    H124810   5.916   1.534   4.699
 8311TIP3    H224811   5.937   1.486   4.842
 8312TIP3   OH224812   5.484   2.781   4.168
 8312TIP3    H124813   5.412   2.816   4.223
 8312TIP3    H224814   5.464   2.824   4.082
 8313TIP3   OH224815   5.639   3.324   5.235
 8313TIP3    H124816   5.725   3.323   5.282
 8313TIP3    H224817   5.618   3.229   5.234
 8314TIP3   OH224818   6.125   3.294   5.279
 8314TIP3    H124819   6.219   3.274   5.288
 8314TIP3    H224820   6.100   3.236   5.204
 8315TIP3   OH224821   6.103   2.867   3.410
 8315TIP3    H124822   6.051   2.794   3.449
 8315TIP3    H224823   6.180   2.818   3.375
 8316TIP3   OH224824   6.763   3.197   5.012
 8316TIP3    H124825   6.754   3.127   5.081
 8316TIP3    H224826   6.840   3.248   5.043
 8317TIP3   OH224827   6.540   2.909   3.318
 8317TIP3    H124828   6.589   2.848   3.376
 8317TIP3    H224829   6.596   2.912   3.238
 8318TIP3   OH224830   5.772   2.732   5.436
 8318TIP3    H124831   5.788   2.637   5.441
 8318TIP3    H224832   5.683   2.735   5.393
 8319TIP3   OH224833   5.751   2.390   3.635
 8319TIP3    H124834   5.804   2.343   3.702
 8319TIP3    H224835   5.815   2.389   3.560
 8320TIP3   OH224836   6.381   2.816   5.209
 8320TIP3    H124837   6.338   2.831   5.123
 8320TIP3    H224838   6.411   2.723   5.202
 8321TIP3   OH224839   6.246   2.580   3.437
 8321TIP3    H124840   6.259   2.594   3.533
 8321TIP3    H224841   6.254   2.482   3.431
 8322TIP3   OH224842   6.874   2.821   4.819
 8322TIP3    H124843   6.945   2.869   4.773
 8322TIP3    H224844   6.800   2.884   4.808
 8323TIP3   OH224845   5.891   2.462   5.417
 8323TIP3    H124846   5.968   2.406   5.400
 8323TIP3    H224847   5.913   2.498   5.505
 8324TIP3   OH224848   5.952   2.286   3.851
 8324TIP3    H124849   5.933   2.242   3.935
 8324TIP3    H224850   5.991   2.213   3.799
 8325TIP3   OH224851   6.224   2.351   5.079
 8325TIP3    H124852   6.148   2.412   5.084
 8325TIP3    H224853   6.271   2.384   5.000
 8326TIP3   OH224854   6.056   2.082   3.693
 8326TIP3    H124855   6.031   2.078   3.598
 8326TIP3    H224856   6.154   2.086   3.685
 8327TIP3   OH224857   6.737   2.752   5.213
 8327TIP3    H124858   6.823   2.741   5.172
 8327TIP3    H224859   6.740   2.687   5.286
 8328TIP3   OH224860   6.881   2.413   3.353
 8328TIP3    H124861   6.859   2.365   3.271
 8328TIP3    H224862   6.849   2.503   3.328
 8329TIP3   OH224863   6.350   2.139   5.206
 8329TIP3    H124864   6.349   2.058   5.152
 8329TIP3    H224865   6.305   2.203   5.148
 8330TIP3   OH224866   6.350   1.929   5.013
 8330TIP3    H124867   6.377   1.963   4.926
 8330TIP3    H224868   6.258   1.901   4.995
 8331TIP3   OH224869   6.382   2.463   4.887
 8331TIP3    H124870   6.461   2.468   4.832
 8331TIP3    H224871   6.324   2.531   4.844
 8332TIP3   OH224872   7.034   2.406   5.235
 8332TIP3    H124873   7.025   2.353   5.319
 8332TIP3    H224874   7.042   2.496   5.272
 8333TIP3   OH224875   7.009   2.674   5.000
 8333TIP3    H124876   6.946   2.728   4.945
 8333TIP3    H224877   7.093   2.700   4.957
 8334TIP3   OH224878   6.224   2.255   5.433
 8334TIP3    H124879   6.155   2.187   5.448
 8334TIP3    H224880   6.261   2.226   5.347
 8335TIP3   OH224881   6.485   1.694   5.078
 8335TIP3    H124882   6.433   1.773   5.055
 8335TIP3    H224883   6.419   1.622   5.066
 8336TIP3   OH224884   6.609   2.197   5.297
 8336TIP3    H124885   6.594   2.182   5.393
 8336TIP3    H224886   6.520   2.171   5.265
 8337TIP3   OH224887   6.844   2.139   5.153
 8337TIP3    H124888   6.765   2.138   5.211
 8337TIP3    H224889   6.912   2.101   5.212
 8338TIP3   OH224890   7.090   2.084   5.293
 8338TIP3    H124891   7.097   1.988   5.315
 8338TIP3    H224892   7.073   2.125   5.380
 8339TIP3   OH224893   6.063   2.035   5.487
 8339TIP3    H124894   6.073   1.944   5.453
 8339TIP3    H224895   6.100   2.024   5.577
 8340TIP3   OH224896   6.580   1.701   5.336
 8340TIP3    H124897   6.646   1.629   5.331
 8340TIP3    H224898   6.539   1.693   5.247
 8341TIP3   OH224899   6.647   1.918   5.491
 8341TIP3    H124900   6.624   1.844   5.430
 8341TIP3    H224901   6.566   1.973   5.488
 8342TIP3   OH224902   5.860   3.133   3.587
 8342TIP3    H124903   5.957   3.136   3.576
 8342TIP3    H224904   5.834   3.192   3.513
 8343TIP3   OH224905   5.342   2.530   3.798
 8343TIP3    H124906   5.439   2.533   3.805
 8343TIP3    H224907   5.328   2.440   3.760
 8344TIP3   OH224908   5.259   3.136   4.224
 8344TIP3    H124909   5.190   3.076   4.190
 8344TIP3    H224910   5.302   3.080   4.292
 8345TIP3   OH224911   5.397   2.990   4.410
 8345TIP3    H124912   5.383   2.916   4.472
 8345TIP3    H224913   5.445   3.052   4.468
 8346TIP3   OH224914   7.120   3.390   4.211
 8346TIP3    H124915   7.147   3.425   4.298
 8346TIP3    H224916   7.180   3.437   4.151
 8347TIP3   OH224917   7.150   3.410   4.493
 8347TIP3    H124918   7.110   3.321   4.490
 8347TIP3    H224919   7.227   3.392   4.549
 8348TIP3   OH224920   7.198   3.085   5.067
 8348TIP3    H124921   7.124   3.095   5.130
 8348TIP3    H224922   7.238   3.174   5.071
 8349TIP3   OH224923   7.013   2.600   3.688
 8349TIP3    H124924   7.083   2.663   3.660
 8349TIP3    H224925   7.055   2.559   3.767
 8350TIP3   OH224926   7.140   2.467   3.890
 8350TIP3    H124927   7.075   2.424   3.950
 8350TIP3    H224928   7.205   2.506   3.953
 8351TIP3   OH224929   7.193   2.857   4.324
 8351TIP3    H124930   7.247   2.795   4.270
 8351TIP3    H224931   7.185   2.933   4.264
 8352TIP3   OH224932   7.028   3.157   4.520
 8352TIP3    H124933   6.957   3.202   4.571
 8352TIP3    H224934   6.977   3.110   4.451
 8353TIP3   OH224935   7.080   2.375   3.539
 8353TIP3    H124936   7.008   2.377   3.471
 8353TIP3    H224937   7.053   2.451   3.594
 8354TIP3   OH224938   6.950   2.048   3.494
 8354TIP3    H124939   6.910   2.087   3.415
 8354TIP3    H224940   6.924   1.954   3.484
 8355TIP3   OH224941   6.956   2.322   4.038
 8355TIP3    H124942   6.963   2.225   4.033
 8355TIP3    H224943   6.943   2.337   4.134
 8356TIP3   OH224944   5.583   2.394   4.785
 8356TIP3    H124945   5.582   2.367   4.691
 8356TIP3    H224946   5.680   2.398   4.801
 8357TIP3   OH224947   7.246   2.748   4.891
 8357TIP3    H124948   7.324   2.689   4.894
 8357TIP3    H224949   7.274   2.820   4.832
 8358TIP3   OH224950   7.410   2.539   4.956
 8358TIP3    H124951   7.368   2.479   4.893
 8358TIP3    H224952   7.499   2.499   4.960
 8359TIP3   OH224953   6.894   1.782   3.482
 8359TIP3    H124954   6.970   1.751   3.535
 8359TIP3    H224955   6.821   1.723   3.506
 8360TIP3   OH224956   6.951   2.038   3.934
 8360TIP3    H124957   6.991   1.949   3.950
 8360TIP3    H224958   7.010   2.070   3.864
 8361TIP3   OH224959   7.115   2.217   4.430
 8361TIP3    H124960   7.201   2.243   4.389
 8361TIP3    H224961   7.129   2.251   4.520
 8362TIP3   OH224962   7.186   2.362   4.672
 8362TIP3    H124963   7.103   2.396   4.712
 8362TIP3    H224964   7.213   2.438   4.616
 8363TIP3   OH224965   5.797   2.081   5.443
 8363TIP3    H124966   5.894   2.079   5.452
 8363TIP3    H224967   5.774   2.000   5.493
 8364TIP3   OH224968   7.630   1.943   5.217
 8364TIP3    H124969   7.691   1.878   5.176
 8364TIP3    H224970   7.610   2.002   5.142
 8365TIP3   OH224971   7.060   1.788   3.971
 8365TIP3    H124972   7.108   1.771   4.055
 8365TIP3    H224973   6.999   1.711   3.969
 8366TIP3   OH224974   5.759   1.776   4.801
 8366TIP3    H124975   5.821   1.699   4.803
 8366TIP3    H224976   5.822   1.849   4.788
 8367TIP3   OH224977   5.565   2.051   4.868
 8367TIP3    H124978   5.613   2.036   4.784
 8367TIP3    H224979   5.594   2.140   4.889
 8368TIP3   OH224980   7.510   2.088   5.020
 8368TIP3    H124981   7.420   2.120   5.038
 8368TIP3    H224982   7.490   2.011   4.963
 8369TIP3   OH224983   7.144   1.725   3.602
 8369TIP3    H124984   7.183   1.652   3.551
 8369TIP3    H224985   7.211   1.795   3.593
 8370TIP3   OH224986   5.545   1.560   4.369
 8370TIP3    H124987   5.450   1.552   4.388
 8370TIP3    H224988   5.546   1.613   4.287
 8371TIP3   OH224989   6.704   3.255   3.869
 8371TIP3    H124990   6.756   3.239   3.788
 8371TIP3    H224991   6.758   3.322   3.914
 8372TIP3   OH224992   5.774   1.645   5.184
 8372TIP3    H124993   5.719   1.625   5.261
 8372TIP3    H224994   5.707   1.666   5.117
 8373TIP3   OH224995   5.807   3.058   5.257
 8373TIP3    H124996   5.715   3.030   5.240
 8373TIP3    H224997   5.816   3.041   5.352
 8374TIP3   OH224998   5.984   3.089   4.803
 8374TIP3    H124999   5.935   3.164   4.765
 8374TIP3    H225000   6.070   3.104   4.759
 8375TIP3   OH225001   6.431   3.337   4.941
 8375TIP3    H125002   6.473   3.338   5.030
 8375TIP3    H225003   6.498   3.387   4.889
 8376TIP3   OH225004   6.610   3.487   4.798
 8376TIP3    H125005   6.683   3.437   4.758
 8376TIP3    H225006   6.661   3.545   4.859
 8377TIP3   OH225007   7.402   1.849   4.900
 8377TIP3    H125008   7.311   1.837   4.868
 8377TIP3    H225009   7.437   1.758   4.889
 8378TIP3   OH225010   5.662   3.350   4.825
 8378TIP3    H125011   5.573   3.384   4.802
 8378TIP3    H225012   5.669   3.379   4.916
 8379TIP3   OH225013   5.898   3.327   4.683
 8379TIP3    H125014   5.812   3.340   4.729
 8379TIP3    H225015   5.877   3.361   4.594
 8380TIP3   OH225016   6.324   3.358   4.481
 8380TIP3    H125017   6.255   3.380   4.415
 8380TIP3    H225018   6.338   3.445   4.525
 8381TIP3   OH225019   6.592   3.296   4.532
 8381TIP3    H125020   6.498   3.314   4.512
 8381TIP3    H225021   6.635   3.374   4.492
 8382TIP3   OH225022   6.799   3.489   4.449
 8382TIP3    H125023   6.786   3.574   4.402
 8382TIP3    H225024   6.826   3.429   4.376
 8383TIP3   OH225025   5.574   3.144   4.571
 8383TIP3    H125026   5.599   3.119   4.663
 8383TIP3    H225027   5.646   3.099   4.521
 8384TIP3   OH225028   5.766   3.013   4.426
 8384TIP3    H125029   5.782   2.930   4.475
 8384TIP3    H225030   5.856   3.051   4.423
 8385TIP3   OH225031   6.031   3.110   4.429
 8385TIP3    H125032   6.064   3.019   4.418
 8385TIP3    H225033   6.073   3.132   4.514
 8386TIP3   OH225034   6.606   1.765   4.519
 8386TIP3    H125035   6.562   1.699   4.576
 8386TIP3    H225036   6.674   1.712   4.474
 8387TIP3   OH225037   7.135   1.652   4.428
 8387TIP3    H125038   7.169   1.699   4.349
 8387TIP3    H225039   7.038   1.661   4.416
 8388TIP3   OH225040   7.228   1.748   4.189
 8388TIP3    H125041   7.300   1.696   4.147
 8388TIP3    H225042   7.261   1.839   4.172
 8389TIP3   OH225043   5.858   1.477   4.538
 8389TIP3    H125044   5.767   1.440   4.536
 8389TIP3    H225045   5.910   1.393   4.535
 8390TIP3   OH225046   5.640   1.343   4.180
 8390TIP3    H125047   5.674   1.400   4.110
 8390TIP3    H225048   5.614   1.407   4.249
 8391TIP3   OH225049   6.283   1.554   4.415
 8391TIP3    H125050   6.367   1.564   4.369
 8391TIP3    H225051   6.307   1.511   4.498
 8392TIP3   OH225052   6.856   1.655   4.398
 8392TIP3    H125053   6.843   1.617   4.311
 8392TIP3    H225054   6.840   1.576   4.455
 8393TIP3   OH225055   6.878   1.574   3.962
 8393TIP3    H125056   6.790   1.614   3.971
 8393TIP3    H225057   6.864   1.489   4.010
 8394TIP3   OH225058   5.361   2.907   3.963
 8394TIP3    H125059   5.273   2.881   3.930
 8394TIP3    H225060   5.357   3.003   3.948
 8395TIP3   OH225061   5.759   1.505   3.946
 8395TIP3    H125062   5.808   1.441   3.891
 8395TIP3    H225063   5.833   1.558   3.983
 8396TIP3   OH225064   6.274   1.678   4.044
 8396TIP3    H125065   6.326   1.627   4.108
 8396TIP3    H225066   6.298   1.769   4.072
 8397TIP3   OH225067   6.132   3.105   3.546
 8397TIP3    H125068   6.221   3.128   3.510
 8397TIP3    H225069   6.111   3.030   3.486
 8398TIP3   OH225070   6.850   3.221   3.637
 8398TIP3    H125071   6.841   3.123   3.623
 8398TIP3    H225072   6.807   3.255   3.556
 8399TIP3   OH225073   6.064   1.757   5.427
 8399TIP3    H125074   6.034   1.683   5.483
 8399TIP3    H225075   6.160   1.757   5.451
 8400TIP3   OH225076   6.314   1.753   5.544
 8400TIP3    H125077   6.397   1.724   5.504
 8400TIP3    H225078   6.301   1.684   5.612
 8401TIP3   OH225079   7.138   1.815   5.334
 8401TIP3    H125080   7.156   1.781   5.425
 8401TIP3    H225081   7.226   1.807   5.292
 8402TIP3   OH225082   7.080   3.366   4.825
 8402TIP3    H125083   7.000   3.335   4.778
 8402TIP3    H225084   7.061   3.463   4.827
 8403TIP3   OH225085   8.347   2.740   3.588
 8403TIP3    H125086   8.317   2.832   3.575
 8403TIP3    H225087   8.267   2.691   3.562
 8404TIP3   OH225088   8.342   2.735   3.970
 8404TIP3    H125089   8.373   2.710   4.058
 8404TIP3    H225090   8.300   2.653   3.940
 8405TIP3   OH225091   7.644   2.636   4.340
 8405TIP3    H125092   7.677   2.568   4.402
 8405TIP3    H225093   7.722   2.691   4.328
 8406TIP3   OH225094   8.586   3.041   3.652
 8406TIP3    H125095   8.572   2.972   3.718
 8406TIP3    H225096   8.611   3.117   3.708
 8407TIP3   OH225097   7.612   3.042   4.064
 8407TIP3    H125098   7.604   2.944   4.067
 8407TIP3    H225099   7.709   3.051   4.061
 8408TIP3   OH225100   7.321   2.249   3.851
 8408TIP3    H125101   7.270   2.332   3.862
 8408TIP3    H225102   7.251   2.191   3.815
 8409TIP3   OH225103   7.380   2.534   4.018
 8409TIP3    H125104   7.429   2.458   4.056
 8409TIP3    H225105   7.439   2.560   3.945
 8410TIP3   OH225106   8.230   3.499   3.665
 8410TIP3    H125107   8.283   3.426   3.627
 8410TIP3    H225108   8.226   3.475   3.759
 8411TIP3   OH225109   8.143   2.962   4.018
 8411TIP3    H125110   8.181   2.885   3.974
 8411TIP3    H225111   8.226   3.007   4.044
 8412TIP3   OH225112   9.087   2.308   4.028
 8412TIP3    H125113   9.150   2.360   4.083
 8412TIP3    H225114   9.133   2.310   3.942
 8413TIP3   OH225115   8.554   2.468   4.054
 8413TIP3    H125116   8.596   2.382   4.076
 8413TIP3    H225117   8.524   2.451   3.963
 8414TIP3   OH225118   7.890   2.125   4.020
 8414TIP3    H125119   7.869   2.197   3.957
 8414TIP3    H225120   7.842   2.051   3.976
 8415TIP3   OH225121   8.585   2.214   3.643
 8415TIP3    H125122   8.657   2.198   3.708
 8415TIP3    H225123   8.637   2.252   3.570
 8416TIP3   OH225124   7.525   2.327   4.126
 8416TIP3    H125125   7.608   2.306   4.173
 8416TIP3    H225126   7.536   2.271   4.046
 8417TIP3   OH225127   7.967   2.525   3.916
 8417TIP3    H125128   8.060   2.498   3.932
 8417TIP3    H225129   7.927   2.441   3.885
 8418TIP3   OH225130   9.224   2.491   4.183
 8418TIP3    H125131   9.139   2.540   4.184
 8418TIP3    H225132   9.265   2.521   4.266
 8419TIP3   OH225133   7.889   2.108   4.453
 8419TIP3    H125134   7.828   2.144   4.385
 8419TIP3    H225135   7.838   2.126   4.534
 8420TIP3   OH225136   8.252   2.972   3.448
 8420TIP3    H125137   8.189   2.933   3.386
 8420TIP3    H225138   8.202   3.050   3.478
 8421TIP3   OH225139   7.994   2.882   4.251
 8421TIP3    H125140   7.930   2.947   4.289
 8421TIP3    H225141   8.037   2.936   4.182
 8422TIP3   OH225142   8.799   2.215   3.812
 8422TIP3    H125143   8.789   2.166   3.894
 8422TIP3    H225144   8.852   2.291   3.841
 8423TIP3   OH225145   7.758   2.223   4.238
 8423TIP3    H125146   7.820   2.295   4.261
 8423TIP3    H225147   7.807   2.181   4.163
 8424TIP3   OH225148   7.820   3.075   4.344
 8424TIP3    H125149   7.796   3.162   4.306
 8424TIP3    H225150   7.742   3.061   4.402
 8425TIP3   OH225151   7.220   2.766   3.583
 8425TIP3    H125152   7.177   2.792   3.499
 8425TIP3    H225153   7.248   2.852   3.619
 8426TIP3   OH225154   8.657   3.279   3.816
 8426TIP3    H125155   8.569   3.271   3.860
 8426TIP3    H225156   8.650   3.368   3.777
 8427TIP3   OH225157   8.927   2.175   4.196
 8427TIP3    H125158   8.840   2.208   4.168
 8427TIP3    H225159   8.986   2.216   4.129
 8428TIP3   OH225160   8.247   1.829   4.165
 8428TIP3    H125161   8.236   1.734   4.183
 8428TIP3    H225162   8.169   1.865   4.212
 8429TIP3   OH225163   8.367   3.326   3.498
 8429TIP3    H125164   8.420   3.247   3.476
 8429TIP3    H225165   8.422   3.396   3.456
 8430TIP3   OH225166   8.509   3.100   3.396
 8430TIP3    H125167   8.428   3.046   3.394
 8430TIP3    H225168   8.545   3.077   3.484
 8431TIP3   OH225169   8.882   3.196   4.166
 8431TIP3    H125170   8.869   3.119   4.107
 8431TIP3    H225171   8.863   3.271   4.106
 8432TIP3   OH225172   8.174   2.590   3.421
 8432TIP3    H125173   8.091   2.638   3.400
 8432TIP3    H225174   8.217   2.583   3.334
 8433TIP3   OH225175   8.133   2.373   3.141
 8433TIP3    H125176   8.203   2.420   3.190
 8433TIP3    H225177   8.187   2.307   3.093
 8434TIP3   OH225178   9.075   2.829   4.010
 8434TIP3    H125179   8.993   2.883   4.018
 8434TIP3    H225180   9.100   2.849   3.917
 8435TIP3   OH225181   8.521   2.674   3.393
 8435TIP3    H125182   8.465   2.698   3.471
 8435TIP3    H225183   8.602   2.643   3.440
 8436TIP3   OH225184   8.757   2.713   4.304
 8436TIP3    H125185   8.755   2.795   4.357
 8436TIP3    H225186   8.670   2.719   4.260
 8437TIP3   OH225187   7.755   2.671   3.809
 8437TIP3    H125188   7.713   2.613   3.743
 8437TIP3    H225189   7.832   2.617   3.838
 8438TIP3   OH225190   7.884   3.082   3.959
 8438TIP3    H125191   7.864   3.033   3.878
 8438TIP3    H225192   7.975   3.050   3.979
 8439TIP3   OH225193   7.891   2.641   4.165
 8439TIP3    H125194   7.925   2.623   4.075
 8439TIP3    H225195   7.934   2.727   4.187
 8440TIP3   OH225196   8.419   3.277   3.941
 8440TIP3    H125197   8.402   3.359   3.991
 8440TIP3    H225198   8.403   3.207   4.007
 8441TIP3   OH225199   8.028   3.197   4.488
 8441TIP3    H125200   7.970   3.261   4.536
 8441TIP3    H225201   7.960   3.145   4.441
 8442TIP3   OH225202   8.365   2.528   3.221
 8442TIP3    H125203   8.424   2.585   3.275
 8442TIP3    H225204   8.391   2.554   3.129
 8443TIP3   OH225205   7.783   2.756   4.591
 8443TIP3    H125206   7.787   2.843   4.636
 8443TIP3    H225207   7.686   2.743   4.589
 8444TIP3   OH225208   8.107   3.209   3.493
 8444TIP3    H125209   8.178   3.268   3.523
 8444TIP3    H225210   8.040   3.271   3.460
 8445TIP3   OH225211   7.823   3.366   4.574
 8445TIP3    H125212   7.787   3.364   4.484
 8445TIP3    H225213   7.744   3.345   4.629
 8446TIP3   OH225214   8.886   1.787   3.295
 8446TIP3    H125215   8.797   1.802   3.332
 8446TIP3    H225216   8.890   1.853   3.223
 8447TIP3   OH225217   7.621   2.513   3.616
 8447TIP3    H125218   7.555   2.558   3.559
 8447TIP3    H225219   7.578   2.427   3.629
 8448TIP3   OH225220   7.400   2.899   4.522
 8448TIP3    H125221   7.336   2.876   4.452
 8448TIP3    H225222   7.435   2.812   4.549
 8449TIP3   OH225223   7.256   3.088   4.159
 8449TIP3    H125224   7.352   3.084   4.147
 8449TIP3    H225225   7.246   3.170   4.210
 8450TIP3   OH225226   9.121   3.539   4.212
 8450TIP3    H125227   9.118   3.444   4.233
 8450TIP3    H225228   9.038   3.569   4.255
 8451TIP3   OH225229   8.227   3.328   4.344
 8451TIP3    H125230   8.228   3.420   4.377
 8451TIP3    H225231   8.157   3.289   4.401
 8452TIP3   OH225232   7.988   3.459   3.295
 8452TIP3    H125233   7.938   3.440   3.214
 8452TIP3    H225234   7.955   3.547   3.321
 8453TIP3   OH225235   7.425   3.306   3.679
 8453TIP3    H125236   7.473   3.296   3.765
 8453TIP3    H225237   7.362   3.232   3.687
 8454TIP3   OH225238   8.190   3.359   2.939
 8454TIP3    H125239   8.249   3.289   2.905
 8454TIP3    H225240   8.219   3.367   3.032
 8455TIP3   OH225241   8.238   3.401   3.210
 8455TIP3    H125242   8.148   3.415   3.248
 8455TIP3    H225243   8.285   3.366   3.287
 8456TIP3   OH225244   9.021   2.678   4.477
 8456TIP3    H125245   8.935   2.688   4.434
 8456TIP3    H225246   9.034   2.581   4.471
 8457TIP3   OH225247   7.608   3.078   4.513
 8457TIP3    H125248   7.656   3.064   4.597
 8457TIP3    H225249   7.533   3.016   4.521
 8458TIP3   OH225250   8.006   1.904   4.293
 8458TIP3    H125251   7.916   1.872   4.269
 8458TIP3    H225252   7.982   1.986   4.338
 8459TIP3   OH225253   8.539   2.019   4.489
 8459TIP3    H125254   8.607   1.992   4.553
 8459TIP3    H225255   8.455   1.998   4.535
 8460TIP3   OH225256   8.777   2.447   4.405
 8460TIP3    H125257   8.732   2.443   4.493
 8460TIP3    H225258   8.754   2.537   4.374
 8461TIP3   OH225259   8.441   2.586   2.966
 8461TIP3    H125260   8.400   2.551   2.884
 8461TIP3    H225261   8.518   2.633   2.930
 8462TIP3   OH225262   8.154   1.953   3.266
 8462TIP3    H125263   8.121   1.952   3.358
 8462TIP3    H225264   8.114   1.870   3.233
 8463TIP3   OH225265   7.937   2.418   4.313
 8463TIP3    H125266   7.889   2.441   4.395
 8463TIP3    H225267   7.922   2.499   4.259
 8464TIP3   OH225268   7.821   2.305   3.828
 8464TIP3    H125269   7.729   2.278   3.845
 8464TIP3    H225270   7.835   2.264   3.739
 8465TIP3   OH225271   8.314   2.392   3.555
 8465TIP3    H125272   8.258   2.462   3.514
 8465TIP3    H225273   8.366   2.361   3.479
 8466TIP3   OH225274   8.487   2.670   4.641
 8466TIP3    H125275   8.465   2.598   4.704
 8466TIP3    H225276   8.580   2.687   4.664
 8467TIP3   OH225277   8.470   2.420   3.795
 8467TIP3    H125278   8.410   2.448   3.723
 8467TIP3    H225279   8.502   2.336   3.755
 8468TIP3   OH225280   7.755   2.449   4.524
 8468TIP3    H125281   7.792   2.510   4.590
 8468TIP3    H225282   7.747   2.366   4.576
 8469TIP3   OH225283   7.809   1.926   3.232
 8469TIP3    H125284   7.800   1.921   3.330
 8469TIP3    H225285   7.727   1.974   3.209
 8470TIP3   OH225286   7.350   1.973   4.103
 8470TIP3    H125287   7.428   2.001   4.155
 8470TIP3    H225288   7.387   1.937   4.022
 8471TIP3   OH225289   7.328   1.952   3.623
 8471TIP3    H125290   7.372   1.992   3.544
 8471TIP3    H225291   7.265   2.024   3.645
 8472TIP3   OH225292   8.478   2.668   4.218
 8472TIP3    H125293   8.513   2.595   4.161
 8472TIP3    H225294   8.452   2.617   4.297
 8473TIP3   OH225295   8.146   2.130   3.890
 8473TIP3    H125296   8.064   2.126   3.942
 8473TIP3    H225297   8.214   2.127   3.959
 8474TIP3   OH225298   7.583   2.182   3.898
 8474TIP3    H125299   7.489   2.189   3.872
 8474TIP3    H225300   7.606   2.090   3.875
 8475TIP3   OH225301   7.855   2.180   3.585
 8475TIP3    H125302   7.949   2.195   3.564
 8475TIP3    H225303   7.808   2.203   3.502
 8476TIP3   OH225304   8.637   2.204   4.089
 8476TIP3    H125305   8.604   2.215   4.181
 8476TIP3    H225306   8.573   2.140   4.053
 8477TIP3   OH225307   7.692   2.213   3.366
 8477TIP3    H125308   7.618   2.168   3.320
 8477TIP3    H225309   7.743   2.246   3.289
 8478TIP3   OH225310   8.811   3.890   4.309
 8478TIP3    H125311   8.809   3.917   4.215
 8478TIP3    H225312   8.887   3.942   4.342
 8479TIP3   OH225313   7.768   2.998   4.734
 8479TIP3    H125314   7.849   3.031   4.780
 8479TIP3    H225315   7.703   3.007   4.807
 8480TIP3   OH225316   8.233   2.455   3.987
 8480TIP3    H125317   8.305   2.413   3.937
 8480TIP3    H225318   8.243   2.415   4.075
 8481TIP3   OH225319   7.758   1.943   3.863
 8481TIP3    H125320   7.724   1.863   3.908
 8481TIP3    H225321   7.810   1.906   3.791
 8482TIP3   OH225322   8.210   2.350   4.277
 8482TIP3    H125323   8.120   2.387   4.292
 8482TIP3    H225324   8.268   2.409   4.328
 8483TIP3   OH225325   7.947   2.743   3.372
 8483TIP3    H125326   7.875   2.678   3.360
 8483TIP3    H225327   7.928   2.776   3.463
 8484TIP3   OH225328   8.846   2.977   4.003
 8484TIP3    H125329   8.867   3.025   3.920
 8484TIP3    H225330   8.759   2.936   3.982
 8485TIP3   OH225331   8.404   2.058   3.228
 8485TIP3    H125332   8.308   2.040   3.240
 8485TIP3    H225333   8.413   2.151   3.256
 8486TIP3   OH225334   8.343   3.059   4.369
 8486TIP3    H125335   8.368   3.038   4.460
 8486TIP3    H225336   8.308   3.149   4.376
 8487TIP3   OH225337   8.475   2.300   3.337
 8487TIP3    H125338   8.572   2.305   3.351
 8487TIP3    H225339   8.458   2.379   3.281
 8488TIP3   OH225340   7.637   2.762   4.049
 8488TIP3    H125341   7.675   2.736   3.963
 8488TIP3    H225342   7.678   2.698   4.109
 8489TIP3   OH225343   8.093   2.893   3.195
 8489TIP3    H125344   8.045   2.979   3.200
 8489TIP3    H225345   8.036   2.837   3.252
 8490TIP3   OH225346   7.513   2.692   4.664
 8490TIP3    H125347   7.552   2.671   4.751
 8490TIP3    H225348   7.454   2.617   4.646
 8491TIP3   OH225349   8.243   2.797   4.681
 8491TIP3    H125350   8.188   2.739   4.626
 8491TIP3    H225351   8.333   2.767   4.655
 8492TIP3   OH225352   8.506   3.315   4.264
 8492TIP3    H125353   8.410   3.319   4.277
 8492TIP3    H225354   8.536   3.368   4.341
 8493TIP3   OH225355   8.911   2.383   3.183
 8493TIP3    H125356   8.851   2.336   3.120
 8493TIP3    H225357   8.941   2.452   3.122
 8494TIP3   OH225358   9.134   3.240   4.249
 8494TIP3    H125359   9.035   3.241   4.245
 8494TIP3    H225360   9.154   3.208   4.159
 8495TIP3   OH225361   8.612   2.841   3.920
 8495TIP3    H125362   8.519   2.815   3.936
 8495TIP3    H225363   8.645   2.761   3.875
 8496TIP3   OH225364   7.737   3.065   3.668
 8496TIP3    H125365   7.738   3.149   3.619
 8496TIP3    H225366   7.642   3.054   3.683
 8497TIP3   OH225367   7.301   2.373   3.375
 8497TIP3    H125368   7.347   2.457   3.395
 8497TIP3    H225369   7.224   2.379   3.435
 8498TIP3   OH225370   7.883   2.836   3.618
 8498TIP3    H125371   7.844   2.924   3.635
 8498TIP3    H225372   7.845   2.785   3.692
 8499TIP3   OH225373   8.007   3.411   4.142
 8499TIP3    H125374   8.047   3.485   4.093
 8499TIP3    H225375   8.084   3.380   4.194
 8500TIP3   OH225376   7.660   3.306   3.526
 8500TIP3    H125377   7.573   3.314   3.570
 8500TIP3    H225378   7.691   3.399   3.529
 8501TIP3   OH225379   8.397   3.044   4.100
 8501TIP3    H125380   8.387   3.045   4.198
 8501TIP3    H225381   8.480   2.995   4.091
 8502TIP3   OH225382   8.383   2.942   2.988
 8502TIP3    H125383   8.399   2.911   3.079
 8502TIP3    H225384   8.288   2.924   2.983
 8503TIP3   OH225385   8.647   3.578   4.148
 8503TIP3    H125386   8.566   3.524   4.141
 8503TIP3    H225387   8.632   3.646   4.079
 8504TIP3   OH225388   8.709   3.420   2.810
 8504TIP3    H125389   8.743   3.488   2.749
 8504TIP3    H225390   8.627   3.464   2.838
 8505TIP3   OH225391   7.733   2.192   4.670
 8505TIP3    H125392   7.636   2.193   4.681
 8505TIP3    H225393   7.760   2.129   4.739
 8506TIP3   OH225394   8.542   2.860   3.200
 8506TIP3    H125395   8.491   2.801   3.259
 8506TIP3    H225396   8.618   2.872   3.260
 8507TIP3   OH225397   7.446   3.276   4.302
 8507TIP3    H125398   7.499   3.201   4.334
 8507TIP3    H225399   7.475   3.346   4.362
 8508TIP3   OH225400   7.742   2.918   2.981
 8508TIP3    H125401   7.749   2.825   2.952
 8508TIP3    H225402   7.721   2.906   3.076
 8509TIP3   OH225403   7.685   2.924   3.252
 8509TIP3    H125404   7.749   2.897   3.319
 8509TIP3    H225405   7.687   3.022   3.260
 8510TIP3   OH225406   7.420   2.619   3.457
 8510TIP3    H125407   7.354   2.663   3.515
 8510TIP3    H225408   7.433   2.690   3.391
 8511TIP3   OH225409   8.566   2.254   4.348
 8511TIP3    H125410   8.644   2.294   4.388
 8511TIP3    H225411   8.552   2.174   4.403
 8512TIP3   OH225412   8.444   2.009   3.512
 8512TIP3    H125413   8.432   2.034   3.418
 8512TIP3    H225414   8.484   2.090   3.550
 8513TIP3   OH225415   7.949   3.123   3.202
 8513TIP3    H125416   7.862   3.149   3.240
 8513TIP3    H225417   7.963   3.197   3.141
 8514TIP3   OH225418   8.138   2.185   3.616
 8514TIP3    H125419   8.204   2.256   3.600
 8514TIP3    H225420   8.141   2.177   3.714
 8515TIP3   OH225421   8.406   2.505   4.426
 8515TIP3    H125422   8.424   2.560   4.505
 8515TIP3    H225423   8.462   2.428   4.441
 8516TIP3   OH225424   8.282   1.916   3.721
 8516TIP3    H125425   8.279   1.990   3.783
 8516TIP3    H225426   8.341   1.952   3.652
 8517TIP3   OH225427   7.691   3.197   3.270
 8517TIP3    H125428   7.660   3.266   3.207
 8517TIP3    H225429   7.674   3.241   3.356
 8518TIP3   OH225430   7.792   1.909   3.509
 8518TIP3    H125431   7.789   2.000   3.545
 8518TIP3    H225432   7.888   1.891   3.518
 8519TIP3   OH225433   9.044   2.406   4.403
 8519TIP3    H125434   8.946   2.402   4.409
 8519TIP3    H225435   9.058   2.373   4.314
 8520TIP3   OH225436   8.690   2.604   3.786
 8520TIP3    H125437   8.617   2.542   3.804
 8520TIP3    H225438   8.764   2.561   3.836
 8521TIP3   OH225439   7.408   2.830   3.265
 8521TIP3    H125440   7.468   2.906   3.272
 8521TIP3    H225441   7.456   2.778   3.197
 8522TIP3   OH225442   7.356   2.104   3.396
 8522TIP3    H125443   7.352   2.201   3.391
 8522TIP3    H225444   7.272   2.078   3.357
 8523TIP3   OH225445   8.668   3.549   3.741
 8523TIP3    H125446   8.625   3.596   3.666
 8523TIP3    H225447   8.762   3.572   3.724
 8524TIP3   OH225448   7.741   1.824   4.272
 8524TIP3    H125449   7.710   1.790   4.185
 8524TIP3    H225450   7.731   1.745   4.329
 8525TIP3   OH225451   7.282   3.041   3.655
 8525TIP3    H125452   7.207   3.074   3.705
 8525TIP3    H225453   7.264   3.080   3.567
 8526TIP3   OH225454   7.436   3.580   4.723
 8526TIP3    H125455   7.522   3.582   4.771
 8526TIP3    H225456   7.416   3.485   4.722
 8527TIP3   OH225457   7.918   3.550   4.768
 8527TIP3    H125458   8.013   3.535   4.777
 8527TIP3    H225459   7.898   3.492   4.692
 8528TIP3   OH225460   7.901   3.124   2.896
 8528TIP3    H125461   7.842   3.056   2.936
 8528TIP3    H225462   7.973   3.068   2.863
 8529TIP3   OH225463   8.562   3.451   4.497
 8529TIP3    H125464   8.551   3.383   4.568
 8529TIP3    H225465   8.637   3.504   4.530
 8530TIP3   OH225466   8.338   3.163   2.810
 8530TIP3    H125467   8.380   3.088   2.856
 8530TIP3    H225468   8.386   3.167   2.725
 8531TIP3   OH225469   7.567   2.989   4.923
 8531TIP3    H125470   7.580   2.893   4.929
 8531TIP3    H225471   7.479   2.994   4.880
 8532TIP3   OH225472   7.545   2.643   3.113
 8532TIP3    H125473   7.597   2.606   3.186
 8532TIP3    H225474   7.613   2.646   3.043
 8533TIP3   OH225475   8.176   3.072   4.696
 8533TIP3    H125476   8.135   3.088   4.609
 8533TIP3    H225477   8.208   2.980   4.689
 8534TIP3   OH225478   8.064   2.842   2.923
 8534TIP3    H125479   8.055   2.854   3.019
 8534TIP3    H225480   8.056   2.744   2.917
 8535TIP3   OH225481   8.667   3.078   4.298
 8535TIP3    H125482   8.741   3.128   4.259
 8535TIP3    H225483   8.596   3.145   4.291
 8536TIP3   OH225484   7.677   2.699   4.908
 8536TIP3    H125485   7.763   2.665   4.882
 8536TIP3    H225486   7.700   2.745   4.991
 8537TIP3   OH225487   7.758   2.543   3.341
 8537TIP3    H125488   7.726   2.502   3.423
 8537TIP3    H225489   7.789   2.466   3.289
 8538TIP3   OH225490   8.018   2.604   4.563
 8538TIP3    H125491   7.945   2.669   4.571
 8538TIP3    H225492   8.068   2.639   4.486
 8539TIP3   OH225493   7.852   2.336   3.179
 8539TIP3    H125494   7.824   2.336   3.085
 8539TIP3    H225495   7.949   2.343   3.170
 8540TIP3   OH225496   8.536   3.007   4.699
 8540TIP3    H125497   8.622   2.994   4.658
 8540TIP3    H225498   8.537   2.943   4.772
 8541TIP3   OH225499   8.666   2.700   2.839
 8541TIP3    H125500   8.648   2.624   2.780
 8541TIP3    H225501   8.689   2.765   2.771
 8542TIP3   OH225502   8.142   2.394   4.696
 8542TIP3    H125503   8.145   2.314   4.640
 8542TIP3    H225504   8.101   2.460   4.635
 8543TIP3   OH225505   8.147   2.182   4.499
 8543TIP3    H125506   8.175   2.222   4.415
 8543TIP3    H225507   8.054   2.159   4.481
 8544TIP3   OH225508   8.176   2.717   4.372
 8544TIP3    H125509   8.259   2.724   4.324
 8544TIP3    H225510   8.121   2.787   4.330
 8545TIP3   OH225511   8.758   2.686   4.754
 8545TIP3    H125512   8.808   2.604   4.768
 8545TIP3    H225513   8.828   2.748   4.727
 8546TIP3   OH225514   8.799   2.935   4.487
 8546TIP3    H125515   8.741   2.989   4.428
 8546TIP3    H225516   8.886   2.956   4.447
 8547TIP3   OH225517   8.016   2.513   4.919
 8547TIP3    H125518   7.951   2.442   4.934
 8547TIP3    H225519   8.057   2.485   4.835
 8548TIP3   OH225520   8.280   1.947   4.565
 8548TIP3    H125521   8.231   2.029   4.543
 8548TIP3    H225522   8.209   1.879   4.553
 8549TIP3   OH225523   8.406   2.453   4.782
 8549TIP3    H125524   8.399   2.442   4.879
 8549TIP3    H225525   8.315   2.426   4.756
 8550TIP3   OH225526   8.645   2.397   4.636
 8550TIP3    H125527   8.570   2.401   4.698
 8550TIP3    H225528   8.718   2.368   4.694
 8551TIP3   OH225529   8.873   2.339   4.789
 8551TIP3    H125530   8.884   2.244   4.810
 8551TIP3    H225531   8.868   2.380   4.878
 8552TIP3   OH225532   7.861   2.291   4.975
 8552TIP3    H125533   7.870   2.201   4.938
 8552TIP3    H225534   7.898   2.278   5.064
 8553TIP3   OH225535   8.374   1.956   4.822
 8553TIP3    H125536   8.443   1.886   4.817
 8553TIP3    H225537   8.335   1.949   4.733
 8554TIP3   OH225538   8.439   2.170   4.983
 8554TIP3    H125539   8.417   2.100   4.918
 8554TIP3    H225540   8.362   2.230   4.975
 8555TIP3   OH225541   7.659   3.397   3.082
 8555TIP3    H125542   7.754   3.399   3.062
 8555TIP3    H225543   7.625   3.446   3.004
 8556TIP3   OH225544   7.140   2.780   3.300
 8556TIP3    H125545   7.235   2.802   3.287
 8556TIP3    H225546   7.135   2.692   3.258
 8557TIP3   OH225547   7.053   3.393   3.712
 8557TIP3    H125548   6.985   3.331   3.677
 8557TIP3    H225549   7.098   3.337   3.779
 8558TIP3   OH225550   7.191   3.248   3.898
 8558TIP3    H125551   7.179   3.173   3.958
 8558TIP3    H225552   7.241   3.309   3.955
 8559TIP3   OH225553   8.923   3.637   3.700
 8559TIP3    H125554   8.937   3.676   3.788
 8559TIP3    H225555   8.965   3.704   3.644
 8560TIP3   OH225556   8.941   3.666   3.977
 8560TIP3    H125557   8.908   3.574   3.985
 8560TIP3    H225558   9.021   3.661   4.030
 8561TIP3   OH225559   8.993   3.343   4.551
 8561TIP3    H125560   8.920   3.350   4.616
 8561TIP3    H225561   9.034   3.431   4.557
 8562TIP3   OH225562   8.808   2.873   3.154
 8562TIP3    H125563   8.887   2.931   3.138
 8562TIP3    H225564   8.841   2.826   3.235
 8563TIP3   OH225565   8.912   2.734   3.365
 8563TIP3    H125566   8.854   2.682   3.426
 8563TIP3    H225567   8.980   2.768   3.426
 8564TIP3   OH225568   8.985   3.108   3.806
 8564TIP3    H125569   9.036   3.058   3.740
 8564TIP3    H225570   8.971   3.193   3.760
 8565TIP3   OH225571   8.823   3.412   4.006
 8565TIP3    H125572   8.756   3.460   4.059
 8565TIP3    H225573   8.767   3.367   3.939
 8566TIP3   OH225574   8.883   2.637   3.016
 8566TIP3    H125575   8.801   2.629   2.963
 8566TIP3    H225576   8.859   2.703   3.082
 8567TIP3   OH225577   8.732   2.309   2.987
 8567TIP3    H125578   8.720   2.335   2.895
 8567TIP3    H225579   8.712   2.212   2.981
 8568TIP3   OH225580   8.751   2.578   3.521
 8568TIP3    H125581   8.761   2.481   3.518
 8568TIP3    H225582   8.737   2.594   3.617
 8569TIP3   OH225583   7.379   2.650   4.272
 8569TIP3    H125584   7.378   2.623   4.178
 8569TIP3    H225585   7.476   2.655   4.288
 8570TIP3   OH225586   9.040   3.001   4.378
 8570TIP3    H125587   9.116   2.940   4.372
 8570TIP3    H225588   9.070   3.076   4.324
 8571TIP3   OH225589   9.239   2.819   4.401
 8571TIP3    H125590   9.160   2.771   4.436
 8571TIP3    H225591   9.305   2.747   4.411
 8572TIP3   OH225592   8.687   2.042   2.973
 8572TIP3    H125593   8.763   2.004   3.021
 8572TIP3    H225594   8.614   1.981   2.993
 8573TIP3   OH225595   8.750   2.296   3.419
 8573TIP3    H125596   8.789   2.208   3.437
 8573TIP3    H225597   8.807   2.327   3.346
 8574TIP3   OH225598   8.901   2.489   3.905
 8574TIP3    H125599   8.985   2.518   3.867
 8574TIP3    H225600   8.920   2.500   4.001
 8575TIP3   OH225601   8.975   2.613   4.151
 8575TIP3    H125602   8.897   2.646   4.199
 8575TIP3    H225603   9.006   2.694   4.106
 8576TIP3   OH225604   7.594   2.341   4.946
 8576TIP3    H125605   7.693   2.336   4.945
 8576TIP3    H225606   7.574   2.254   4.985
 8577TIP3   OH225607   8.856   2.045   3.464
 8577TIP3    H125608   8.893   2.030   3.553
 8577TIP3    H225609   8.794   1.968   3.457
 8578TIP3   OH225610   7.557   2.032   4.279
 8578TIP3    H125611   7.619   1.957   4.288
 8578TIP3    H225612   7.619   2.106   4.272
 8579TIP3   OH225613   7.362   2.308   4.353
 8579TIP3    H125614   7.409   2.295   4.268
 8579TIP3    H225615   7.392   2.396   4.376
 8580TIP3   OH225616   9.289   2.334   4.527
 8580TIP3    H125617   9.210   2.386   4.552
 8580TIP3    H225618   9.250   2.279   4.456
 8581TIP3   OH225619   8.939   1.969   3.081
 8581TIP3    H125620   8.983   1.884   3.061
 8581TIP3    H225621   8.989   2.028   3.021
 8582TIP3   OH225622   7.342   1.814   3.855
 8582TIP3    H125623   7.248   1.808   3.876
 8582TIP3    H225624   7.341   1.869   3.773
 8583TIP3   OH225625   8.504   3.507   3.356
 8583TIP3    H125626   8.560   3.501   3.276
 8583TIP3    H225627   8.546   3.579   3.406
 8584TIP3   OH225628   7.563   1.894   4.668
 8584TIP3    H125629   7.510   1.882   4.748
 8584TIP3    H225630   7.496   1.928   4.606
 8585TIP3   OH225631   7.604   3.309   4.742
 8585TIP3    H125632   7.511   3.286   4.728
 8585TIP3    H225633   7.612   3.302   4.838
 8586TIP3   OH225634   7.779   3.345   4.288
 8586TIP3    H125635   7.731   3.421   4.251
 8586TIP3    H225636   7.866   3.360   4.245
 8587TIP3   OH225637   8.228   3.593   4.426
 8587TIP3    H125638   8.268   3.594   4.516
 8587TIP3    H225639   8.295   3.644   4.375
 8588TIP3   OH225640   8.408   3.742   4.284
 8588TIP3    H125641   8.483   3.694   4.248
 8588TIP3    H225642   8.455   3.802   4.346
 8589TIP3   OH225643   9.192   2.108   4.390
 8589TIP3    H125644   9.104   2.110   4.349
 8589TIP3    H225645   9.226   2.022   4.361
 8590TIP3   OH225646   7.458   3.603   4.314
 8590TIP3    H125647   7.370   3.638   4.290
 8590TIP3    H225648   7.469   3.643   4.402
 8591TIP3   OH225649   7.693   3.581   4.169
 8591TIP3    H125650   7.608   3.596   4.216
 8591TIP3    H225651   7.673   3.618   4.081
 8592TIP3   OH225652   8.121   3.615   3.965
 8592TIP3    H125653   8.050   3.638   3.903
 8592TIP3    H225654   8.134   3.700   4.012
 8593TIP3   OH225655   8.388   3.550   4.014
 8593TIP3    H125656   8.294   3.571   3.999
 8593TIP3    H225657   8.431   3.632   3.982
 8594TIP3   OH225658   8.593   3.744   3.937
 8594TIP3    H125659   8.581   3.831   3.892
 8594TIP3    H225660   8.620   3.687   3.862
 8595TIP3   OH225661   7.369   3.399   4.058
 8595TIP3    H125662   7.395   3.376   4.150
 8595TIP3    H225663   7.441   3.356   4.008
 8596TIP3   OH225664   7.562   3.270   3.913
 8596TIP3    H125665   7.578   3.187   3.962
 8596TIP3    H225666   7.652   3.309   3.910
 8597TIP3   OH225667   7.827   3.366   3.916
 8597TIP3    H125668   7.860   3.275   3.906
 8597TIP3    H225669   7.869   3.390   4.001
 8598TIP3   OH225670   8.402   2.021   4.000
 8598TIP3    H125671   8.360   1.953   4.057
 8598TIP3    H225672   8.476   1.973   3.959
 8599TIP3   OH225673   8.929   1.907   3.929
 8599TIP3    H125674   8.961   1.956   3.850
 8599TIP3    H225675   8.832   1.918   3.920
 8600TIP3   OH225676   9.016   2.001   3.690
 8600TIP3    H125677   9.101   1.957   3.670
 8600TIP3    H225678   9.041   2.096   3.680
 8601TIP3   OH225679   7.654   1.732   4.023
 8601TIP3    H125680   7.562   1.698   4.023
 8601TIP3    H225681   7.703   1.647   4.020
 8602TIP3   OH225682   7.440   1.600   3.669
 8602TIP3    H125683   7.469   1.658   3.596
 8602TIP3    H225684   7.409   1.664   3.735
 8603TIP3   OH225685   8.095   1.765   3.901
 8603TIP3    H125686   8.156   1.816   3.845
 8603TIP3    H225687   8.116   1.800   3.989
 8604TIP3   OH225688   8.643   1.910   3.888
 8604TIP3    H125689   8.649   1.872   3.800
 8604TIP3    H225690   8.631   1.829   3.943
 8605TIP3   OH225691   8.665   1.835   3.451
 8605TIP3    H125692   8.577   1.876   3.465
 8605TIP3    H225693   8.652   1.750   3.498
 8606TIP3   OH225694   7.157   3.169   3.451
 8606TIP3    H125695   7.073   3.137   3.416
 8606TIP3    H225696   7.146   3.264   3.436
 8607TIP3   OH225697   7.555   1.762   3.433
 8607TIP3    H125698   7.604   1.698   3.378
 8607TIP3    H225699   7.628   1.815   3.471
 8608TIP3   OH225700   8.070   1.935   3.531
 8608TIP3    H125701   8.128   1.887   3.593
 8608TIP3    H225702   8.091   2.027   3.558
 8609TIP3   OH225703   7.928   3.362   3.031
 8609TIP3    H125704   8.015   3.386   2.994
 8609TIP3    H225705   7.906   3.287   2.972
 8610TIP3   OH225706   8.647   3.475   3.118
 8610TIP3    H125707   8.635   3.385   3.086
 8610TIP3    H225708   8.604   3.525   3.046
 8611TIP3   OH225709   7.860   2.012   4.914
 8611TIP3    H125710   7.829   1.940   4.971
 8611TIP3    H225711   7.955   2.014   4.939
 8612TIP3   OH225712   8.109   2.009   5.031
 8612TIP3    H125713   8.195   1.985   4.992
 8612TIP3    H225714   8.098   1.939   5.099
 8613TIP3   OH225715   7.233   3.198   3.090
 8613TIP3    H125716   7.230   3.228   3.182
 8613TIP3    H225717   7.322   3.158   3.082
 8614TIP3   OH225718   8.932   2.068   4.822
 8614TIP3    H125719   8.954   2.038   4.912
 8614TIP3    H225720   9.019   2.066   4.777
 8615TIP3   OH225721   8.878   3.624   4.309
 8615TIP3    H125722   8.796   3.593   4.265
 8615TIP3    H225723   8.859   3.720   4.314
 8616TIP3   OH225724   9.094   2.509   3.352
 8616TIP3    H125725   9.027   2.579   3.349
 8616TIP3    H225726   9.048   2.437   3.305
 8617TIP3   OH225727   9.148   2.792   3.500
 8617TIP3    H125728   9.176   2.712   3.546
 8617TIP3    H225729   9.197   2.782   3.416
 8618TIP3   OH225730   9.008   3.033   3.087
 8618TIP3    H125731   9.003   3.038   2.990
 8618TIP3    H225732   9.042   3.122   3.110
 8619TIP3   OH225733   9.191   3.135   4.003
 8619TIP3    H125734   9.119   3.105   3.945
 8619TIP3    H225735   9.229   3.052   4.039
 8620TIP3   OH225736   9.047   3.350   3.648
 8620TIP3    H125737   9.142   3.370   3.646
 8620TIP3    H225738   9.011   3.429   3.691
 8621TIP3   OH225739   9.199   3.564   3.196
 8621TIP3    H125740   9.246   3.557   3.281
 8621TIP3    H225741   9.132   3.494   3.206
 8622TIP3   OH225742   9.345   3.358   4.007
 8622TIP3    H125743   9.350   3.377   4.103
 8622TIP3    H225744   9.291   3.276   4.005
 8623TIP3   OH225745   9.111   2.243   3.620
 8623TIP3    H125746   9.181   2.288   3.670
 8623TIP3    H225747   9.129   2.272   3.529
 8624TIP3   OH225748   9.303   2.929   4.146
 8624TIP3    H125749   9.324   2.909   4.238
 8624TIP3    H225750   9.231   2.866   4.128
 8625TIP3   OH225751   9.080   2.705   2.837
 8625TIP3    H125752   9.155   2.695   2.899
 8625TIP3    H225753   9.007   2.672   2.893
 8626TIP3   OH225754   9.316   3.516   3.777
 8626TIP3    H125755   9.305   3.465   3.861
 8626TIP3    H225756   9.277   3.602   3.805
 8627TIP3   OH225757   9.077   3.292   3.143
 8627TIP3    H125758   9.002   3.328   3.192
 8627TIP3    H225759   9.065   3.337   3.057
 8628TIP3   OH225760   9.230   3.833   4.218
 8628TIP3    H125761   9.320   3.829   4.257
 8628TIP3    H225762   9.208   3.739   4.209
 8629TIP3   OH225763   9.364   3.266   4.401
 8629TIP3    H125764   9.391   3.181   4.439
 8629TIP3    H225765   9.280   3.246   4.356
 8630TIP3   OH225766   8.931   3.026   2.806
 8630TIP3    H125767   9.028   3.032   2.796
 8630TIP3    H225768   8.914   2.950   2.745
 8631TIP3   OH225769   8.851   3.647   3.196
 8631TIP3    H125770   8.782   3.585   3.165
 8631TIP3    H225771   8.894   3.594   3.266
 8632TIP3   OH225772   8.985   3.500   3.386
 8632TIP3    H125773   8.966   3.432   3.453
 8632TIP3    H225774   9.037   3.563   3.440
 8633TIP3   OH225775   9.190   2.899   3.754
 8633TIP3    H125776   9.167   2.873   3.663
 8633TIP3    H225777   9.275   2.943   3.742
 8634TIP3   OH225778   9.374   2.585   4.412
 8634TIP3    H125779   9.466   2.618   4.424
 8634TIP3    H225780   9.372   2.511   4.477
 8635TIP3   OH225781   9.150   2.583   3.801
 8635TIP3    H125782   9.211   2.508   3.812
 8635TIP3    H225783   9.188   2.652   3.856
 8636TIP3   OH225784   9.102   2.118   3.322
 8636TIP3    H125785   9.007   2.101   3.337
 8636TIP3    H225786   9.106   2.127   3.226
 8637TIP3   OH225787   9.395   3.534   4.231
 8637TIP3    H125788   9.299   3.543   4.221
 8637TIP3    H225789   9.406   3.540   4.327
 8638TIP3   OH225790   9.217   3.789   3.811
 8638TIP3    H125791   9.145   3.855   3.796
 8638TIP3    H225792   9.288   3.851   3.840
 8639TIP3   OH225793   9.457   3.757   3.626
 8639TIP3    H125794   9.442   3.823   3.699
 8639TIP3    H225795   9.471   3.824   3.555
 8640TIP3   OH225796   9.167   3.655   3.537
 8640TIP3    H125797   9.193   3.682   3.628
 8640TIP3    H225798   9.252   3.621   3.503
 8641TIP3   OH225799   9.386   3.523   3.413
 8641TIP3    H125800   9.417   3.434   3.383
 8641TIP3    H225801   9.465   3.577   3.393
 8642TIP3   OH225802   8.953   3.422   2.939
 8642TIP3    H125803   8.869   3.394   2.898
 8642TIP3    H225804   8.942   3.518   2.931
 8643TIP3   OH225805   9.048   3.470   2.590
 8643TIP3    H125806   9.019   3.486   2.682
 8643TIP3    H225807   9.110   3.397   2.602
 8644TIP3   OH225808   0.797   3.525   5.283
 8644TIP3    H125809   0.770   3.617   5.265
 8644TIP3    H225810   0.718   3.477   5.252
 8645TIP3   OH225811   0.793   3.526   5.661
 8645TIP3    H125812   0.825   3.495   5.748
 8645TIP3    H225813   0.752   3.445   5.625
 8646TIP3   OH225814   0.094   3.422   6.021
 8646TIP3    H125815   0.121   3.354   6.085
 8646TIP3    H225816   0.169   3.482   6.025
 8647TIP3   OH225817   1.036   3.828   5.343
 8647TIP3    H125818   1.026   3.757   5.408
 8647TIP3    H225819   1.066   3.902   5.398
 8648TIP3   OH225820   0.072   3.830   5.752
 8648TIP3    H125821   0.057   3.733   5.758
 8648TIP3    H225822   0.169   3.833   5.753
 8649TIP3   OH225823  -0.273   3.033   5.534
 8649TIP3    H125824  -0.272   3.125   5.564
 8649TIP3    H225825  -0.281   2.985   5.618
 8650TIP3   OH225826  -0.162   3.319   5.703
 8650TIP3    H125827  -0.112   3.247   5.747
 8650TIP3    H225828  -0.100   3.349   5.635
 8651TIP3   OH225829   0.684   4.288   5.360
 8651TIP3    H125830   0.733   4.219   5.311
 8651TIP3    H225831   0.685   4.253   5.450
 8652TIP3   OH225832   0.595   3.752   5.709
 8652TIP3    H125833   0.632   3.674   5.663
 8652TIP3    H225834   0.679   3.796   5.733
 8653TIP3   OH225835   1.604   3.072   5.707
 8653TIP3    H125836   1.634   3.155   5.752
 8653TIP3    H225837   1.629   3.092   5.615
 8654TIP3   OH225838   1.006   3.255   5.745
 8654TIP3    H125839   1.049   3.169   5.765
 8654TIP3    H225840   0.976   3.239   5.653
 8655TIP3   OH225841   0.342   2.913   5.710
 8655TIP3    H125842   0.323   2.986   5.648
 8655TIP3    H225843   0.294   2.839   5.666
 8656TIP3   OH225844   1.036   3.003   5.332
 8656TIP3    H125845   1.109   2.987   5.397
 8656TIP3    H225846   1.088   3.039   5.258
 8657TIP3   OH225847  -0.021   3.113   5.810
 8657TIP3    H125848   0.055   3.097   5.869
 8657TIP3    H225849   0.000   3.053   5.735
 8658TIP3   OH225850   0.420   3.314   5.603
 8658TIP3    H125851   0.513   3.287   5.620
 8658TIP3    H225852   0.380   3.229   5.575
 8659TIP3   OH225853   1.679   3.278   5.878
 8659TIP3    H125854   1.596   3.327   5.860
 8659TIP3    H225855   1.694   3.302   5.971
 8660TIP3   OH225856   0.340   2.895   6.143
 8660TIP3    H125857   0.281   2.933   6.075
 8660TIP3    H225858   0.290   2.916   6.224
 8661TIP3   OH225859   0.690   3.747   5.154
 8661TIP3    H125860   0.646   3.723   5.071
 8661TIP3    H225861   0.647   3.832   5.174
 8662TIP3   OH225862   0.449   3.670   5.940
 8662TIP3    H125863   0.383   3.732   5.979
 8662TIP3    H225864   0.490   3.724   5.871
 8663TIP3   OH225865   1.249   3.005   5.501
 8663TIP3    H125866   1.244   2.953   5.583
 8663TIP3    H225867   1.305   3.080   5.527
 8664TIP3   OH225868   0.210   3.011   5.930
 8664TIP3    H125869   0.272   3.085   5.951
 8664TIP3    H225870   0.259   2.970   5.855
 8665TIP3   OH225871   0.276   3.861   6.033
 8665TIP3    H125872   0.251   3.948   5.997
 8665TIP3    H225873   0.199   3.846   6.092
 8666TIP3   OH225874  -0.274   3.579   5.218
 8666TIP3    H125875  -0.363   3.604   5.188
 8666TIP3    H225876  -0.266   3.631   5.300
 8667TIP3   OH225877   1.109   4.069   5.514
 8667TIP3    H125878   1.019   4.061   5.552
 8667TIP3    H225879   1.102   4.155   5.468
 8668TIP3   OH225880   1.399   2.972   5.874
 8668TIP3    H125881   1.312   3.003   5.845
 8668TIP3    H225882   1.458   3.004   5.803
 8669TIP3   OH225883   0.699   2.617   5.854
 8669TIP3    H125884   0.688   2.522   5.872
 8669TIP3    H225885   0.621   2.654   5.902
 8670TIP3   OH225886   0.813   4.119   5.188
 8670TIP3    H125887   0.862   4.036   5.166
 8670TIP3    H225888   0.873   4.184   5.145
 8671TIP3   OH225889   0.953   3.904   5.091
 8671TIP3    H125890   0.919   3.823   5.050
 8671TIP3    H225891   0.988   3.868   5.176
 8672TIP3   OH225892   1.336   3.985   5.856
 8672TIP3    H125893   1.326   3.907   5.797
 8672TIP3    H225894   1.320   4.059   5.793
 8673TIP3   OH225895   0.626   3.377   5.111
 8673TIP3    H125896   0.546   3.428   5.087
 8673TIP3    H225897   0.675   3.375   5.026
 8674TIP3   OH225898   0.585   3.162   4.830
 8674TIP3    H125899   0.654   3.211   4.880
 8674TIP3    H225900   0.642   3.097   4.783
 8675TIP3   OH225901   1.531   3.620   5.700
 8675TIP3    H125902   1.449   3.673   5.705
 8675TIP3    H225903   1.560   3.642   5.609
 8676TIP3   OH225904   0.973   3.459   5.085
 8676TIP3    H125905   0.920   3.484   5.164
 8676TIP3    H225906   1.057   3.433   5.128
 8677TIP3   OH225907   1.210   3.501   5.994
 8677TIP3    H125908   1.207   3.584   6.044
 8677TIP3    H225909   1.123   3.505   5.948
 8678TIP3   OH225910   0.209   3.459   5.499
 8678TIP3    H125911   0.166   3.400   5.433
 8678TIP3    H225912   0.286   3.405   5.528
 8679TIP3   OH225913   0.342   3.875   5.645
 8679TIP3    H125914   0.318   3.821   5.569
 8679TIP3    H225915   0.431   3.840   5.666
 8680TIP3   OH225916   0.351   3.427   5.854
 8680TIP3    H125917   0.380   3.412   5.763
 8680TIP3    H225918   0.389   3.515   5.876
 8681TIP3   OH225919   0.866   4.067   5.631
 8681TIP3    H125920   0.855   4.146   5.687
 8681TIP3    H225921   0.854   3.993   5.694
 8682TIP3   OH225922   0.480   3.986   6.179
 8682TIP3    H125923   0.421   4.050   6.225
 8682TIP3    H225924   0.413   3.933   6.130
 8683TIP3   OH225925   0.816   3.318   4.910
 8683TIP3    H125926   0.875   3.376   4.964
 8683TIP3    H225927   0.842   3.344   4.819
 8684TIP3   OH225928   0.244   3.546   6.272
 8684TIP3    H125929   0.245   3.634   6.315
 8684TIP3    H225930   0.150   3.522   6.286
 8685TIP3   OH225931   0.556   3.999   5.183
 8685TIP3    H125932   0.635   4.052   5.206
 8685TIP3    H225933   0.494   4.065   5.150
 8686TIP3   OH225934   0.279   4.158   6.266
 8686TIP3    H125935   0.242   4.150   6.176
 8686TIP3    H225936   0.207   4.121   6.322
 8687TIP3   OH225937   1.331   2.560   4.957
 8687TIP3    H125938   1.250   2.579   5.010
 8687TIP3    H225939   1.342   2.645   4.909
 8688TIP3   OH225940   0.076   3.299   5.308
 8688TIP3    H125941   0.014   3.341   5.245
 8688TIP3    H225942   0.032   3.215   5.324
 8689TIP3   OH225943   1.130   3.927   4.505
 8689TIP3    H125944   1.139   4.024   4.492
 8689TIP3    H225945   1.223   3.898   4.494
 8690TIP3   OH225946  -0.142   3.698   6.206
 8690TIP3    H125947  -0.195   3.657   6.136
 8690TIP3    H225948  -0.109   3.619   6.252
 8691TIP3   OH225949   1.574   4.328   5.898
 8691TIP3    H125950   1.573   4.232   5.912
 8691TIP3    H225951   1.491   4.353   5.945
 8692TIP3   OH225952   0.678   4.116   6.034
 8692TIP3    H125953   0.679   4.209   6.068
 8692TIP3    H225954   0.607   4.077   6.090
 8693TIP3   OH225955   0.434   4.244   4.988
 8693TIP3    H125956   0.393   4.226   4.901
 8693TIP3    H225957   0.407   4.336   5.006
 8694TIP3   OH225958  -0.085   4.084   5.343
 8694TIP3    H125959  -0.063   4.057   5.435
 8694TIP3    H225960  -0.168   4.037   5.325
 8695TIP3   OH225961   0.640   4.143   4.629
 8695TIP3    H125962   0.700   4.075   4.592
 8695TIP3    H225963   0.675   4.153   4.720
 8696TIP3   OH225964   0.689   4.193   4.900
 8696TIP3    H125965   0.602   4.200   4.945
 8696TIP3    H225966   0.743   4.152   4.969
 8697TIP3   OH225967   1.464   3.461   6.175
 8697TIP3    H125968   1.384   3.474   6.121
 8697TIP3    H225969   1.479   3.365   6.164
 8698TIP3   OH225970   0.067   3.872   6.201
 8698TIP3    H125971   0.111   3.864   6.288
 8698TIP3    H225972  -0.005   3.806   6.209
 8699TIP3   OH225973   0.460   2.691   5.984
 8699TIP3    H125974   0.370   2.659   5.961
 8699TIP3    H225975   0.435   2.775   6.028
 8700TIP3   OH225976   0.992   2.807   6.179
 8700TIP3    H125977   1.060   2.780   6.243
 8700TIP3    H225978   0.908   2.786   6.225
 8701TIP3   OH225979   1.233   3.235   6.097
 8701TIP3    H125980   1.185   3.232   6.183
 8701TIP3    H225981   1.208   3.323   6.062
 8702TIP3   OH225982   0.889   3.368   4.653
 8702TIP3    H125983   0.860   3.339   4.564
 8702TIP3    H225984   0.970   3.417   4.631
 8703TIP3   OH225985   0.604   2.743   4.955
 8703TIP3    H125986   0.573   2.741   5.048
 8703TIP3    H225987   0.568   2.658   4.924
 8704TIP3   OH225988   0.392   3.205   6.004
 8704TIP3    H125989   0.340   3.226   6.084
 8704TIP3    H225990   0.376   3.286   5.950
 8705TIP3   OH225991   0.274   3.092   5.518
 8705TIP3    H125992   0.180   3.067   5.533
 8705TIP3    H225993   0.288   3.051   5.429
 8706TIP3   OH225994   0.764   3.178   5.244
 8706TIP3    H125995   0.711   3.250   5.203
 8706TIP3    H225996   0.820   3.150   5.168
 8707TIP3   OH225997   0.939   3.460   6.333
 8707TIP3    H125998   0.917   3.386   6.394
 8707TIP3    H225999   1.034   3.472   6.354
 8708TIP3   OH226000   0.923   3.208   5.485
 8708TIP3    H126001   0.865   3.239   5.413
 8708TIP3    H226002   0.955   3.126   5.444
 8709TIP3   OH226003   0.214   3.237   6.211
 8709TIP3    H126004   0.224   3.303   6.281
 8709TIP3    H226005   0.198   3.155   6.261
 8710TIP3   OH226006   0.259   2.712   4.922
 8710TIP3    H126007   0.254   2.709   5.020
 8710TIP3    H226008   0.178   2.762   4.901
 8711TIP3   OH226009  -0.198   2.781   5.759
 8711TIP3    H126010  -0.141   2.800   5.836
 8711TIP3    H226011  -0.155   2.702   5.724
 8712TIP3   OH226012  -0.211   2.764   5.327
 8712TIP3    H126013  -0.174   2.784   5.238
 8712TIP3    H226014  -0.262   2.844   5.343
 8713TIP3   OH226015   0.932   3.456   5.908
 8713TIP3    H126016   0.965   3.383   5.851
 8713TIP3    H226017   0.904   3.404   5.987
 8714TIP3   OH226018   0.598   2.917   5.580
 8714TIP3    H126019   0.517   2.914   5.633
 8714TIP3    H226020   0.667   2.916   5.648
 8715TIP3   OH226021   0.033   2.968   5.580
 8715TIP3    H126022  -0.059   2.957   5.550
 8715TIP3    H226023   0.069   2.878   5.568
 8716TIP3   OH226024   0.307   2.967   5.275
 8716TIP3    H126025   0.402   2.982   5.256
 8716TIP3    H226026   0.263   2.992   5.191
 8717TIP3   OH226027   1.093   2.991   5.781
 8717TIP3    H126028   1.057   3.002   5.872
 8717TIP3    H226029   1.029   2.929   5.743
 8718TIP3   OH226030   0.142   3.002   5.053
 8718TIP3    H126031   0.072   2.956   5.004
 8718TIP3    H226032   0.196   3.037   4.980
 8719TIP3   OH226033   1.261   4.679   5.999
 8719TIP3    H126034   1.260   4.703   5.905
 8719TIP3    H226035   1.338   4.730   6.032
 8720TIP3   OH226036   0.228   3.784   6.421
 8720TIP3    H126037   0.306   3.820   6.467
 8720TIP3    H226038   0.160   3.795   6.490
 8721TIP3   OH226039   0.685   3.242   5.676
 8721TIP3    H126040   0.758   3.202   5.626
 8721TIP3    H226041   0.697   3.202   5.764
 8722TIP3   OH226042   0.208   2.733   5.553
 8722TIP3    H126043   0.176   2.652   5.598
 8722TIP3    H226044   0.264   2.696   5.484
 8723TIP3   OH226045   0.662   3.136   5.969
 8723TIP3    H126046   0.572   3.174   5.981
 8723TIP3    H226047   0.719   3.198   6.018
 8724TIP3   OH226048   0.398   3.532   5.060
 8724TIP3    H126049   0.326   3.466   5.051
 8724TIP3    H226050   0.382   3.565   5.152
 8725TIP3   OH226051   1.300   3.767   5.693
 8725TIP3    H126052   1.325   3.815   5.610
 8725TIP3    H226053   1.214   3.726   5.668
 8726TIP3   OH226054   0.856   2.846   4.918
 8726TIP3    H126055   0.760   2.830   4.929
 8726TIP3    H226056   0.868   2.939   4.945
 8727TIP3   OH226057   0.800   3.849   6.058
 8727TIP3    H126058   0.817   3.824   6.149
 8727TIP3    H226059   0.759   3.937   6.067
 8728TIP3   OH226060   0.927   3.089   5.024
 8728TIP3    H126061   1.023   3.094   5.042
 8728TIP3    H226062   0.911   3.170   4.972
 8729TIP3   OH226063   0.093   3.555   5.738
 8729TIP3    H126064   0.133   3.521   5.655
 8729TIP3    H226065   0.120   3.488   5.803
 8730TIP3   OH226066   0.542   3.679   4.878
 8730TIP3    H126067   0.496   3.766   4.888
 8730TIP3    H226068   0.489   3.624   4.940
 8731TIP3   OH226069  -0.006   3.472   6.351
 8731TIP3    H126070   0.002   3.463   6.448
 8731TIP3    H226071  -0.097   3.439   6.334
 8732TIP3   OH226072   0.694   3.585   6.372
 8732TIP3    H126073   0.635   3.528   6.321
 8732TIP3    H226074   0.782   3.552   6.343
 8733TIP3   OH226075   0.959   4.110   5.952
 8733TIP3    H126076   0.863   4.106   5.965
 8733TIP3    H226077   0.986   4.160   6.031
 8734TIP3   OH226078   1.369   3.178   4.863
 8734TIP3    H126079   1.306   3.133   4.802
 8734TIP3    H226080   1.366   3.267   4.822
 8735TIP3   OH226081   1.586   4.037   5.944
 8735TIP3    H126082   1.488   4.032   5.937
 8735TIP3    H226083   1.612   4.006   5.854
 8736TIP3   OH226084   1.060   3.999   4.768
 8736TIP3    H126085   1.049   3.928   4.832
 8736TIP3    H226086   1.081   3.952   4.685
 8737TIP3   OH226087   1.064   3.628   5.612
 8737TIP3    H126088   0.971   3.602   5.624
 8737TIP3    H226089   1.099   3.549   5.567
 8738TIP3   OH226090   0.192   3.854   5.357
 8738TIP3    H126091   0.197   3.936   5.305
 8738TIP3    H226092   0.098   3.846   5.375
 8739TIP3   OH226093  -0.249   3.163   5.069
 8739TIP3    H126094  -0.181   3.234   5.077
 8739TIP3    H226095  -0.317   3.202   5.127
 8740TIP3   OH226096   0.333   3.622   5.307
 8740TIP3    H126097   0.297   3.711   5.325
 8740TIP3    H226098   0.297   3.572   5.382
 8741TIP3   OH226099   0.460   4.202   5.830
 8741TIP3    H126100   0.504   4.273   5.780
 8741TIP3    H226101   0.534   4.166   5.881
 8742TIP3   OH226102   0.140   4.099   5.202
 8742TIP3    H126103   0.055   4.099   5.250
 8742TIP3    H226104   0.163   4.194   5.207
 8743TIP3   OH226105   0.851   3.835   5.789
 8743TIP3    H126106   0.843   3.833   5.887
 8743TIP3    H226107   0.931   3.781   5.776
 8744TIP3   OH226108   0.820   3.724   4.673
 8744TIP3    H126109   0.876   3.701   4.751
 8744TIP3    H226110   0.733   3.699   4.707
 8745TIP3   OH226111   1.098   4.370   5.842
 8745TIP3    H126112   1.020   4.311   5.834
 8745TIP3    H226113   1.082   4.433   5.769
 8746TIP3   OH226114   1.162   4.203   4.492
 8746TIP3    H126115   1.204   4.275   4.443
 8746TIP3    H226116   1.082   4.250   4.523
 8747TIP3   OH226117   0.191   2.976   6.366
 8747TIP3    H126118   0.098   2.985   6.387
 8747TIP3    H226119   0.220   2.911   6.432
 8748TIP3   OH226120   0.981   3.661   4.890
 8748TIP3    H126121   0.972   3.594   4.961
 8748TIP3    H226122   1.078   3.659   4.878
 8749TIP3   OH226123  -0.069   4.087   5.984
 8749TIP3    H126124  -0.043   3.994   5.994
 8749TIP3    H226125  -0.068   4.116   6.076
 8750TIP3   OH226126   0.187   3.708   4.671
 8750TIP3    H126127   0.206   3.616   4.642
 8750TIP3    H226128   0.172   3.695   4.767
 8751TIP3   OH226129   0.138   3.712   4.945
 8751TIP3    H126130   0.208   3.684   5.006
 8751TIP3    H226131   0.143   3.810   4.951
 8752TIP3   OH226132  -0.107   3.392   5.127
 8752TIP3    H126133  -0.171   3.447   5.178
 8752TIP3    H226134  -0.085   3.458   5.059
 8753TIP3   OH226135   1.017   3.044   6.039
 8753TIP3    H126136   1.098   3.081   6.078
 8753TIP3    H226137   1.003   2.963   6.093
 8754TIP3   OH226138   0.896   2.797   5.202
 8754TIP3    H126139   0.885   2.822   5.108
 8754TIP3    H226140   0.937   2.878   5.239
 8755TIP3   OH226141   0.399   3.909   4.892
 8755TIP3    H126142   0.313   3.939   4.928
 8755TIP3    H226143   0.419   3.982   4.831
 8756TIP3   OH226144   0.589   2.973   5.306
 8756TIP3    H126145   0.655   3.043   5.288
 8756TIP3    H226146   0.594   2.966   5.404
 8757TIP3   OH226147   0.858   3.293   6.115
 8757TIP3    H126148   0.876   3.347   6.195
 8757TIP3    H226149   0.914   3.215   6.130
 8758TIP3   OH226150   0.735   2.704   5.410
 8758TIP3    H126151   0.731   2.779   5.472
 8758TIP3    H226152   0.794   2.741   5.341
 8759TIP3   OH226153   0.139   3.984   4.954
 8759TIP3    H126154   0.111   4.056   4.894
 8759TIP3    H226155   0.136   4.029   5.042
 8760TIP3   OH226156   0.245   2.698   5.198
 8760TIP3    H126157   0.243   2.788   5.235
 8760TIP3    H226158   0.341   2.678   5.208
 8761TIP3   OH226159   1.500   3.194   6.094
 8761TIP3    H126160   1.402   3.191   6.101
 8761TIP3    H226161   1.511   3.153   6.007
 8762TIP3   OH226162   1.150   3.388   5.484
 8762TIP3    H126163   1.075   3.327   5.496
 8762TIP3    H226164   1.222   3.342   5.531
 8763TIP3   OH226165  -0.129   3.628   4.943
 8763TIP3    H126166  -0.054   3.689   4.959
 8763TIP3    H226167  -0.087   3.570   4.877
 8764TIP3   OH226168  -0.193   2.891   5.086
 8764TIP3    H126169  -0.196   2.989   5.087
 8764TIP3    H226170  -0.269   2.868   5.032
 8765TIP3   OH226171   1.117   4.341   5.434
 8765TIP3    H126172   1.075   4.389   5.358
 8765TIP3    H226173   1.211   4.360   5.414
 8766TIP3   OH226174   0.197   2.608   5.963
 8766TIP3    H126175   0.163   2.578   5.876
 8766TIP3    H226176   0.181   2.529   6.020
 8767TIP3   OH226177  -0.243   3.802   5.377
 8767TIP3    H126178  -0.331   3.842   5.372
 8767TIP3    H226179  -0.206   3.830   5.292
 8768TIP3   OH226180   0.370   4.345   6.455
 8768TIP3    H126181   0.464   4.322   6.466
 8768TIP3    H226182   0.345   4.284   6.383
 8769TIP3   OH226183   0.352   3.912   4.586
 8769TIP3    H126184   0.296   3.841   4.625
 8769TIP3    H226185   0.429   3.860   4.556
 8770TIP3   OH226186   1.011   4.241   6.188
 8770TIP3    H126187   1.002   4.172   6.257
 8770TIP3    H226188   1.088   4.292   6.220
 8771TIP3   OH226189   0.788   3.953   4.495
 8771TIP3    H126190   0.836   3.894   4.555
 8771TIP3    H226191   0.847   3.956   4.417
 8772TIP3   OH226192   0.039   3.760   6.621
 8772TIP3    H126193   0.070   3.668   6.614
 8772TIP3    H226194  -0.056   3.746   6.603
 8773TIP3   OH226195  -0.000   3.429   4.805
 8773TIP3    H126196   0.054   3.394   4.878
 8773TIP3    H226197   0.068   3.433   4.734
 8774TIP3   OH226198   0.630   3.860   6.385
 8774TIP3    H126199   0.586   3.874   6.299
 8774TIP3    H226200   0.660   3.767   6.379
 8775TIP3   OH226201   0.499   3.625   4.610
 8775TIP3    H126202   0.506   3.640   4.707
 8775TIP3    H226203   0.501   3.527   4.607
 8776TIP3   OH226204   1.121   3.867   5.992
 8776TIP3    H126205   1.194   3.914   5.947
 8776TIP3    H226206   1.049   3.931   5.980
 8777TIP3   OH226207   0.127   3.493   6.609
 8777TIP3    H126208   0.206   3.449   6.575
 8777TIP3    H226209   0.159   3.530   6.694
 8778TIP3   OH226210   0.206   3.331   5.028
 8778TIP3    H126211   0.180   3.290   5.112
 8778TIP3    H226212   0.241   3.255   4.978
 8779TIP3   OH226213   0.479   3.399   6.259
 8779TIP3    H126214   0.398   3.455   6.260
 8779TIP3    H226215   0.523   3.429   6.177
 8780TIP3   OH226216   0.305   3.123   4.870
 8780TIP3    H126217   0.279   3.124   4.775
 8780TIP3    H226218   0.402   3.131   4.862
 8781TIP3   OH226219   0.991   3.798   6.391
 8781TIP3    H126220   1.071   3.778   6.342
 8781TIP3    H226221   0.990   3.729   6.459
 8782TIP3   OH226222   1.127   3.457   4.529
 8782TIP3    H126223   1.106   3.410   4.447
 8782TIP3    H226224   1.097   3.548   4.504
 8783TIP3   OH226225   0.596   3.183   6.385
 8783TIP3    H126226   0.596   3.103   6.329
 8783TIP3    H226227   0.554   3.249   6.327
 8784TIP3   OH226228   0.599   2.969   6.189
 8784TIP3    H126229   0.627   3.011   6.105
 8784TIP3    H226230   0.505   2.947   6.170
 8785TIP3   OH226231   0.632   3.507   6.062
 8785TIP3    H126232   0.712   3.513   6.008
 8785TIP3    H226233   0.574   3.574   6.019
 8786TIP3   OH226234   1.212   3.474   6.446
 8786TIP3    H126235   1.259   3.390   6.454
 8786TIP3    H226236   1.280   3.533   6.411
 8787TIP3   OH226237   1.251   3.726   6.181
 8787TIP3    H126238   1.194   3.779   6.121
 8787TIP3    H226239   1.339   3.745   6.140
 8788TIP3   OH226240   0.473   3.300   6.613
 8788TIP3    H126241   0.405   3.230   6.625
 8788TIP3    H226242   0.509   3.277   6.525
 8789TIP3   OH226243   0.732   2.735   6.255
 8789TIP3    H126244   0.684   2.818   6.233
 8789TIP3    H226245   0.662   2.668   6.243
 8790TIP3   OH226246   0.858   3.241   6.472
 8790TIP3    H126247   0.848   3.229   6.568
 8790TIP3    H226248   0.768   3.215   6.444
 8791TIP3   OH226249   1.098   3.189   6.327
 8791TIP3    H126250   1.022   3.189   6.388
 8791TIP3    H226251   1.171   3.157   6.384
 8792TIP3   OH226252   1.325   3.127   6.479
 8792TIP3    H126253   1.339   3.032   6.499
 8792TIP3    H226254   1.323   3.168   6.569
 8793TIP3   OH226255   0.314   3.081   6.665
 8793TIP3    H126256   0.323   2.992   6.626
 8793TIP3    H226257   0.351   3.065   6.754
 8794TIP3   OH226258   0.826   2.743   6.513
 8794TIP3    H126259   0.896   2.675   6.507
 8794TIP3    H226260   0.787   2.737   6.423
 8795TIP3   OH226261   0.891   2.958   6.673
 8795TIP3    H126262   0.869   2.888   6.608
 8795TIP3    H226263   0.815   3.019   6.665
 8796TIP3   OH226264   0.111   4.191   4.772
 8796TIP3    H126265   0.207   4.185   4.755
 8796TIP3    H226266   0.083   4.236   4.690
 8797TIP3   OH226267  -0.397   3.588   4.929
 8797TIP3    H126268  -0.304   3.599   4.959
 8797TIP3    H226269  -0.401   3.490   4.920
 8798TIP3   OH226270   1.368   4.436   5.388
 8798TIP3    H126271   1.397   4.471   5.474
 8798TIP3    H226272   1.430   4.477   5.327
 8799TIP3   OH226273   1.401   4.455   5.671
 8799TIP3    H126274   1.357   4.367   5.665
 8799TIP3    H226275   1.474   4.433   5.730
 8800TIP3   OH226276   1.446   4.131   6.243
 8800TIP3    H126277   1.372   4.138   6.306
 8800TIP3    H226278   1.486   4.220   6.248
 8801TIP3   OH226279   1.260   3.645   4.864
 8801TIP3    H126280   1.330   3.708   4.835
 8801TIP3    H226281   1.304   3.605   4.943
 8802TIP3   OH226282   1.389   3.512   5.066
 8802TIP3    H126283   1.326   3.470   5.128
 8802TIP3    H226284   1.456   3.550   5.126
 8803TIP3   OH226285   1.441   3.901   5.500
 8803TIP3    H126286   1.496   3.838   5.448
 8803TIP3    H226287   1.436   3.977   5.439
 8804TIP3   OH226288   1.277   4.204   5.695
 8804TIP3    H126289   1.206   4.245   5.748
 8804TIP3    H226290   1.226   4.154   5.627
 8805TIP3   OH226291   1.327   3.417   4.716
 8805TIP3    H126292   1.255   3.423   4.649
 8805TIP3    H226293   1.303   3.495   4.771
 8806TIP3   OH226294   1.197   3.092   4.671
 8806TIP3    H126295   1.159   3.132   4.593
 8806TIP3    H226296   1.172   2.998   4.659
 8807TIP3   OH226297   1.203   3.366   5.215
 8807TIP3    H126298   1.214   3.270   5.212
 8807TIP3    H226299   1.191   3.382   5.311
 8808TIP3   OH226300  -0.167   3.480   5.939
 8808TIP3    H126301  -0.170   3.429   5.856
 8808TIP3    H226302  -0.077   3.460   5.971
 8809TIP3   OH226303   1.493   3.791   6.071
 8809TIP3    H126304   1.566   3.726   6.063
 8809TIP3    H226305   1.520   3.861   6.009
 8810TIP3   OH226306   1.680   3.600   6.093
 8810TIP3    H126307   1.605   3.549   6.130
 8810TIP3    H226308   1.752   3.535   6.105
 8811TIP3   OH226309   1.143   2.825   4.655
 8811TIP3    H126310   1.220   2.798   4.709
 8811TIP3    H226311   1.072   2.767   4.685
 8812TIP3   OH226312   1.199   3.082   5.110
 8812TIP3    H126313   1.240   2.994   5.126
 8812TIP3    H226314   1.259   3.116   5.042
 8813TIP3   OH226315   1.363   3.261   5.604
 8813TIP3    H126316   1.449   3.287   5.564
 8813TIP3    H226317   1.376   3.295   5.694
 8814TIP3   OH226318   1.430   3.401   5.838
 8814TIP3    H126319   1.351   3.436   5.885
 8814TIP3    H226320   1.462   3.482   5.792
 8815TIP3   OH226321   0.040   3.110   6.642
 8815TIP3    H126322   0.135   3.128   6.628
 8815TIP3    H226323   0.046   3.039   6.707
 8816TIP3   OH226324   1.880   2.990   6.394
 8816TIP3    H126325   1.939   2.924   6.351
 8816TIP3    H226326   1.856   3.047   6.318
 8817TIP3   OH226327   1.309   2.833   5.148
 8817TIP3    H126328   1.358   2.817   5.231
 8817TIP3    H226329   1.249   2.755   5.147
 8818TIP3   OH226330   0.007   2.810   5.950
 8818TIP3    H126331   0.075   2.742   5.969
 8818TIP3    H226332   0.058   2.892   5.963
 8819TIP3   OH226333  -0.152   3.104   6.063
 8819TIP3    H126334  -0.133   3.089   5.969
 8819TIP3    H226335  -0.186   3.194   6.063
 8820TIP3   OH226336   1.755   3.135   6.200
 8820TIP3    H126337   1.667   3.171   6.220
 8820TIP3    H226338   1.730   3.062   6.141
 8821TIP3   OH226339   1.391   2.771   4.777
 8821TIP3    H126340   1.433   2.697   4.730
 8821TIP3    H226341   1.459   2.841   4.772
 8822TIP3   OH226342  -0.211   2.583   5.523
 8822TIP3    H126343  -0.293   2.615   5.563
 8822TIP3    H226344  -0.198   2.649   5.452
 8823TIP3   OH226345   0.952   4.302   5.045
 8823TIP3    H126346   1.003   4.283   4.964
 8823TIP3    H226347   1.010   4.364   5.091
 8824TIP3   OH226348   0.013   2.686   6.371
 8824TIP3    H126349  -0.051   2.671   6.441
 8824TIP3    H226350  -0.044   2.720   6.300
 8825TIP3   OH226351   0.086   4.065   6.438
 8825TIP3    H126352   0.000   4.109   6.421
 8825TIP3    H226353   0.085   4.063   6.536
 8826TIP3   OH226354   0.241   4.129   5.983
 8826TIP3    H126355   0.182   4.198   5.947
 8826TIP3    H226356   0.323   4.152   5.935
 8827TIP3   OH226357   0.681   4.382   6.117
 8827TIP3    H126358   0.722   4.383   6.206
 8827TIP3    H226359   0.747   4.432   6.066
 8828TIP3   OH226360   0.859   4.532   5.973
 8828TIP3    H126361   0.931   4.480   5.935
 8828TIP3    H226362   0.909   4.590   6.035
 8829TIP3   OH226363   1.652   2.896   6.077
 8829TIP3    H126364   1.561   2.890   6.044
 8829TIP3    H226365   1.682   2.803   6.064
 8830TIP3   OH226366   0.144   4.374   5.869
 8830TIP3    H126367   0.057   4.377   5.911
 8830TIP3    H226368   0.124   4.403   5.778
 8831TIP3   OH226369   0.574   4.403   5.658
 8831TIP3    H126370   0.507   4.427   5.591
 8831TIP3    H226371   0.588   4.488   5.703
 8832TIP3   OH226372   0.841   4.341   5.708
 8832TIP3    H126373   0.747   4.358   5.689
 8832TIP3    H226374   0.884   4.419   5.669
 8833TIP3   OH226375   1.049   4.534   5.626
 8833TIP3    H126376   1.035   4.618   5.578
 8833TIP3    H226377   1.075   4.473   5.553
 8834TIP3   OH226378  -0.130   4.212   5.737
 8834TIP3    H126379  -0.110   4.172   5.825
 8834TIP3    H226380  -0.075   4.151   5.682
 8835TIP3   OH226381   0.022   4.042   5.591
 8835TIP3    H126382   0.034   3.961   5.647
 8835TIP3    H226383   0.113   4.078   5.592
 8836TIP3   OH226384   0.284   4.156   5.607
 8836TIP3    H126385   0.314   4.064   5.592
 8836TIP3    H226386   0.328   4.174   5.692
 8837TIP3   OH226387   0.855   2.810   5.691
 8837TIP3    H126388   0.813   2.741   5.746
 8837TIP3    H226389   0.929   2.761   5.649
 8838TIP3   OH226390   1.382   2.691   5.602
 8838TIP3    H126391   1.418   2.742   5.526
 8838TIP3    H226392   1.286   2.709   5.594
 8839TIP3   OH226393   1.476   2.791   5.365
 8839TIP3    H126394   1.549   2.740   5.324
 8839TIP3    H226395   1.510   2.883   5.350
 8840TIP3   OH226396   0.105   2.520   5.712
 8840TIP3    H126397   0.014   2.483   5.710
 8840TIP3    H226398   0.157   2.436   5.710
 8841TIP3   OH226399  -0.096   2.382   5.368
 8841TIP3    H126400  -0.081   2.439   5.290
 8841TIP3    H226401  -0.135   2.447   5.430
 8842TIP3   OH226402   0.546   2.554   5.591
 8842TIP3    H126403   0.607   2.603   5.534
 8842TIP3    H226404   0.569   2.589   5.679
 8843TIP3   OH226405   1.098   2.697   5.577
 8843TIP3    H126406   1.096   2.661   5.488
 8843TIP3    H226407   1.084   2.616   5.631
 8844TIP3   OH226408   1.126   2.618   5.138
 8844TIP3    H126409   1.039   2.659   5.148
 8844TIP3    H226410   1.112   2.534   5.186
 8845TIP3   OH226411   0.009   2.553   5.118
 8845TIP3    H126412   0.058   2.487   5.066
 8845TIP3    H226413   0.081   2.604   5.159
 8846TIP3   OH226414   0.522   2.722   5.222
 8846TIP3    H126415   0.582   2.675   5.282
 8846TIP3    H226416   0.544   2.815   5.247
 8847TIP3   OH226417   0.380   4.151   4.721
 8847TIP3    H126418   0.470   4.171   4.687
 8847TIP3    H226419   0.359   4.074   4.662
 8848TIP3   OH226420   1.097   4.264   4.814
 8848TIP3    H126421   1.088   4.167   4.799
 8848TIP3    H226422   1.056   4.298   4.732
 8849TIP3   OH226423   0.312   2.802   6.603
 8849TIP3    H126424   0.280   2.727   6.657
 8849TIP3    H226425   0.406   2.801   6.630
 8850TIP3   OH226426   0.562   2.796   6.724
 8850TIP3    H126427   0.647   2.774   6.682
 8850TIP3    H226428   0.551   2.723   6.787
 8851TIP3   OH226429  -0.299   3.990   4.812
 8851TIP3    H126430  -0.272   4.078   4.845
 8851TIP3    H226431  -0.214   3.951   4.781
 8852TIP3   OH226432   1.386   2.857   6.511
 8852TIP3    H126433   1.407   2.826   6.601
 8852TIP3    H226434   1.474   2.853   6.467
 8853TIP3   OH226435   1.329   4.411   6.001
 8853TIP3    H126436   1.249   4.378   5.955
 8853TIP3    H226437   1.308   4.507   6.004
 8854TIP3   OH226438   2.592   3.784   4.773
 8854TIP3    H126439   2.565   3.875   4.748
 8854TIP3    H226440   2.517   3.733   4.736
 8855TIP3   OH226441   2.589   3.786   5.152
 8855TIP3    H126442   2.619   3.743   5.233
 8855TIP3    H226443   2.549   3.711   5.104
 8856TIP3   OH226444   1.890   3.680   5.518
 8856TIP3    H126445   1.925   3.613   5.580
 8856TIP3    H226446   1.971   3.730   5.499
 8857TIP3   OH226447   2.833   4.084   4.827
 8857TIP3    H126448   2.825   4.015   4.894
 8857TIP3    H226449   2.862   4.161   4.880
 8858TIP3   OH226450   1.868   4.088   5.251
 8858TIP3    H126451   1.853   3.991   5.250
 8858TIP3    H226452   1.962   4.090   5.227
 8859TIP3   OH226453   1.568   3.291   5.028
 8859TIP3    H126454   1.522   3.376   5.039
 8859TIP3    H226455   1.496   3.237   4.990
 8860TIP3   OH226456   1.631   3.579   5.192
 8860TIP3    H126457   1.680   3.503   5.230
 8860TIP3    H226458   1.693   3.609   5.124
 8861TIP3   OH226459   2.475   4.547   4.841
 8861TIP3    H126460   2.530   4.476   4.801
 8861TIP3    H226461   2.476   4.524   4.935
 8862TIP3   OH226462   2.389   4.010   5.200
 8862TIP3    H126463   2.417   3.931   5.150
 8862TIP3    H226464   2.477   4.050   5.215
 8863TIP3   OH226465   3.405   3.326   5.190
 8863TIP3    H126466   3.430   3.411   5.231
 8863TIP3    H226467   3.442   3.338   5.101
 8864TIP3   OH226468   2.801   3.513   5.233
 8864TIP3    H126469   2.845   3.428   5.253
 8864TIP3    H226470   2.773   3.497   5.141
 8865TIP3   OH226471   2.137   3.168   5.198
 8865TIP3    H126472   2.120   3.241   5.135
 8865TIP3    H226473   2.089   3.095   5.153
 8866TIP3   OH226474   2.834   3.261   4.819
 8866TIP3    H126475   2.907   3.242   4.882
 8866TIP3    H226476   2.887   3.290   4.742
 8867TIP3   OH226477   1.773   3.372   5.304
 8867TIP3    H126478   1.857   3.352   5.349
 8867TIP3    H226479   1.786   3.318   5.223
 8868TIP3   OH226480   2.222   3.571   5.101
 8868TIP3    H126481   2.314   3.540   5.110
 8868TIP3    H226482   2.178   3.493   5.063
 8869TIP3   OH226483   3.480   3.537   5.363
 8869TIP3    H126484   3.395   3.581   5.342
 8869TIP3    H226485   3.483   3.551   5.459
 8870TIP3   OH226486   2.137   3.152   5.630
 8870TIP3    H126487   2.077   3.189   5.562
 8870TIP3    H226488   2.085   3.171   5.711
 8871TIP3   OH226489   2.490   4.005   4.638
 8871TIP3    H126490   2.438   3.977   4.562
 8871TIP3    H226491   2.446   4.091   4.659
 8872TIP3   OH226492   2.246   3.928   5.428
 8872TIP3    H126493   2.183   3.993   5.467
 8872TIP3    H226494   2.283   3.978   5.353
 8873TIP3   OH226495   3.046   3.253   4.992
 8873TIP3    H126496   3.030   3.220   5.082
 8873TIP3    H226497   3.104   3.330   5.009
 8874TIP3   OH226498   2.007   3.268   5.416
 8874TIP3    H126499   2.070   3.340   5.437
 8874TIP3    H226500   2.054   3.226   5.340
 8875TIP3   OH226501   2.077   4.121   5.528
 8875TIP3    H126502   2.038   4.194   5.479
 8875TIP3    H226503   2.001   4.102   5.588
 8876TIP3   OH226504   1.464   3.811   4.763
 8876TIP3    H126505   1.431   3.840   4.676
 8876TIP3    H226506   1.499   3.894   4.801
 8877TIP3   OH226507   2.894   4.309   4.985
 8877TIP3    H126508   2.808   4.317   5.030
 8877TIP3    H226509   2.910   4.402   4.960
 8878TIP3   OH226510   3.212   3.251   5.381
 8878TIP3    H126511   3.120   3.248   5.351
 8878TIP3    H226512   3.262   3.264   5.298
 8879TIP3   OH226513   2.493   2.874   5.339
 8879TIP3    H126514   2.485   2.779   5.359
 8879TIP3    H226515   2.415   2.910   5.388
 8880TIP3   OH226516   2.617   4.377   4.682
 8880TIP3    H126517   2.663   4.294   4.657
 8880TIP3    H226518   2.673   4.442   4.634
 8881TIP3   OH226519   2.751   4.160   4.575
 8881TIP3    H126520   2.706   4.083   4.541
 8881TIP3    H226521   2.786   4.126   4.661
 8882TIP3   OH226522   2.428   3.633   4.601
 8882TIP3    H126523   2.344   3.681   4.583
 8882TIP3    H226524   2.470   3.633   4.514
 8883TIP3   OH226525   2.382   3.419   4.315
 8883TIP3    H126526   2.449   3.467   4.367
 8883TIP3    H226527   2.440   3.354   4.269
 8884TIP3   OH226528   3.325   3.878   5.188
 8884TIP3    H126529   3.243   3.932   5.193
 8884TIP3    H226530   3.355   3.900   5.097
 8885TIP3   OH226531   2.769   3.717   4.572
 8885TIP3    H126532   2.716   3.742   4.651
 8885TIP3    H226533   2.852   3.688   4.615
 8886TIP3   OH226534   3.007   3.756   5.481
 8886TIP3    H126535   3.002   3.839   5.532
 8886TIP3    H226536   2.921   3.758   5.435
 8887TIP3   OH226537   1.976   3.688   5.014
 8887TIP3    H126538   1.959   3.687   4.918
 8887TIP3    H226539   2.071   3.668   5.015
 8888TIP3   OH226540   2.132   4.124   5.132
 8888TIP3    H126541   2.108   4.072   5.053
 8888TIP3    H226542   2.222   4.089   5.150
 8889TIP3   OH226543   2.140   3.684   5.345
 8889TIP3    H126544   2.167   3.662   5.253
 8889TIP3    H226545   2.183   3.771   5.359
 8890TIP3   OH226546   2.658   4.326   5.125
 8890TIP3    H126547   2.598   4.374   5.183
 8890TIP3    H226548   2.660   4.238   5.168
 8891TIP3   OH226549   2.615   3.572   4.396
 8891TIP3    H126550   2.672   3.631   4.450
 8891TIP3    H226551   2.640   3.600   4.305
 8892TIP3   OH226552   2.032   3.802   5.766
 8892TIP3    H126553   2.032   3.887   5.814
 8892TIP3    H226554   1.936   3.781   5.769
 8893TIP3   OH226555   2.361   4.253   4.669
 8893TIP3    H126556   2.427   4.319   4.694
 8893TIP3    H226557   2.287   4.305   4.637
 8894TIP3   OH226558   3.128   2.819   4.445
 8894TIP3    H126559   3.048   2.840   4.500
 8894TIP3    H226560   3.141   2.905   4.400
 8895TIP3   OH226561   1.877   3.544   4.772
 8895TIP3    H126562   1.817   3.607   4.730
 8895TIP3    H226563   1.816   3.476   4.801
 8896TIP3   OH226564   2.924   4.184   3.991
 8896TIP3    H126565   2.933   4.281   3.979
 8896TIP3    H226566   3.017   4.155   3.980
 8897TIP3   OH226567   1.651   3.942   5.698
 8897TIP3    H126568   1.587   3.918   5.629
 8897TIP3    H226569   1.688   3.855   5.725
 8898TIP3   OH226570   1.504   4.130   5.339
 8898TIP3    H126571   1.599   4.126   5.321
 8898TIP3    H226572   1.495   4.215   5.384
 8899TIP3   OH226573   2.235   4.506   4.471
 8899TIP3    H126574   2.185   4.481   4.392
 8899TIP3    H226575   2.201   4.594   4.493
 8900TIP3   OH226576   1.669   4.351   4.859
 8900TIP3    H126577   1.722   4.338   4.941
 8900TIP3    H226578   1.617   4.269   4.860
 8901TIP3   OH226579   2.437   4.402   4.115
 8901TIP3    H126580   2.496   4.332   4.080
 8901TIP3    H226581   2.470   4.410   4.208
 8902TIP3   OH226582   2.487   4.449   4.386
 8902TIP3    H126583   2.398   4.459   4.427
 8902TIP3    H226584   2.534   4.402   4.456
 8903TIP3   OH226585   3.255   3.716   5.661
 8903TIP3    H126586   3.177   3.725   5.605
 8903TIP3    H226587   3.275   3.621   5.650
 8904TIP3   OH226588   1.857   4.124   5.691
 8904TIP3    H126589   1.905   4.106   5.774
 8904TIP3    H226590   1.783   4.060   5.695
 8905TIP3   OH226591   2.254   2.947   5.471
 8905TIP3    H126592   2.164   2.917   5.447
 8905TIP3    H226593   2.231   3.031   5.515
 8906TIP3   OH226594   2.787   3.065   5.664
 8906TIP3    H126595   2.857   3.034   5.726
 8906TIP3    H226596   2.704   3.041   5.711
 8907TIP3   OH226597   3.031   3.492   5.587
 8907TIP3    H126598   2.981   3.489   5.672
 8907TIP3    H226599   3.004   3.578   5.550
 8908TIP3   OH226600   2.684   3.624   4.138
 8908TIP3    H126601   2.656   3.596   4.049
 8908TIP3    H226602   2.765   3.674   4.117
 8909TIP3   OH226603   2.399   3.000   4.442
 8909TIP3    H126604   2.370   2.999   4.535
 8909TIP3    H226605   2.363   2.914   4.412
 8910TIP3   OH226606   2.188   3.462   5.492
 8910TIP3    H126607   2.135   3.484   5.572
 8910TIP3    H226608   2.172   3.542   5.436
 8911TIP3   OH226609   2.076   3.347   5.006
 8911TIP3    H126610   1.980   3.332   5.020
 8911TIP3    H226611   2.086   3.310   4.916
 8912TIP3   OH226612   2.562   3.433   4.732
 8912TIP3    H126613   2.509   3.505   4.692
 8912TIP3    H226614   2.618   3.406   4.657
 8913TIP3   OH226615   2.736   3.718   5.822
 8913TIP3    H126616   2.713   3.643   5.881
 8913TIP3    H226617   2.831   3.727   5.841
 8914TIP3   OH226618   2.720   3.465   4.972
 8914TIP3    H126619   2.661   3.494   4.900
 8914TIP3    H226620   2.753   3.383   4.930
 8915TIP3   OH226621   2.006   3.493   5.701
 8915TIP3    H126622   2.033   3.554   5.771
 8915TIP3    H226623   1.994   3.410   5.750
 8916TIP3   OH226624   2.052   2.966   4.409
 8916TIP3    H126625   2.050   2.966   4.507
 8916TIP3    H226626   1.976   3.024   4.389
 8917TIP3   OH226627   1.599   3.015   5.280
 8917TIP3    H126628   1.674   3.048   5.333
 8917TIP3    H226629   1.641   2.984   5.199
 8918TIP3   OH226630   1.574   2.996   4.798
 8918TIP3    H126631   1.621   3.035   4.722
 8918TIP3    H226632   1.515   3.070   4.821
 8919TIP3   OH226633   2.732   3.714   5.398
 8919TIP3    H126634   2.763   3.642   5.338
 8919TIP3    H226635   2.702   3.660   5.475
 8920TIP3   OH226636   2.394   3.173   5.066
 8920TIP3    H126637   2.313   3.171   5.120
 8920TIP3    H226638   2.464   3.170   5.134
 8921TIP3   OH226639   1.831   3.226   5.079
 8921TIP3    H126640   1.737   3.232   5.049
 8921TIP3    H226641   1.858   3.137   5.050
 8922TIP3   OH226642   2.104   3.220   4.762
 8922TIP3    H126643   2.198   3.241   4.743
 8922TIP3    H226644   2.057   3.249   4.681
 8923TIP3   OH226645   2.889   3.249   5.268
 8923TIP3    H126646   2.852   3.258   5.359
 8923TIP3    H226647   2.827   3.184   5.229
 8924TIP3   OH226648   1.941   3.248   4.540
 8924TIP3    H126649   1.866   3.213   4.489
 8924TIP3    H226650   1.993   3.290   4.468
 8925TIP3   OH226651   3.045   4.960   5.482
 8925TIP3    H126652   3.047   4.938   5.388
 8925TIP3    H226653   3.125   5.012   5.494
 8926TIP3   OH226654   2.018   4.049   5.910
 8926TIP3    H126655   2.096   4.074   5.963
 8926TIP3    H226656   1.950   4.045   5.981
 8927TIP3   OH226657   2.487   3.498   5.165
 8927TIP3    H126658   2.556   3.458   5.112
 8927TIP3    H226659   2.497   3.453   5.251
 8928TIP3   OH226660   2.004   2.989   5.039
 8928TIP3    H126661   1.975   2.906   5.083
 8928TIP3    H226662   2.061   2.955   4.968
 8929TIP3   OH226663   2.458   3.392   5.455
 8929TIP3    H126664   2.369   3.429   5.467
 8929TIP3    H226665   2.516   3.453   5.505
 8930TIP3   OH226666   2.202   3.775   4.540
 8930TIP3    H126667   2.124   3.719   4.520
 8930TIP3    H226668   2.161   3.830   4.610
 8931TIP3   OH226669   3.090   4.024   5.192
 8931TIP3    H126670   3.121   4.080   5.117
 8931TIP3    H226671   3.010   3.983   5.154
 8932TIP3   OH226672   2.651   3.105   4.399
 8932TIP3    H126673   2.556   3.089   4.415
 8932TIP3    H226674   2.666   3.196   4.432
 8933TIP3   OH226675   2.610   4.110   5.547
 8933TIP3    H126676   2.621   4.072   5.635
 8933TIP3    H226677   2.574   4.198   5.566
 8934TIP3   OH226678   2.727   3.343   4.512
 8934TIP3    H126679   2.824   3.346   4.527
 8934TIP3    H226680   2.711   3.424   4.460
 8935TIP3   OH226681   1.884   3.813   5.235
 8935TIP3    H126682   1.911   3.781   5.145
 8935TIP3    H226683   1.922   3.742   5.289
 8936TIP3   OH226684   2.338   3.936   4.364
 8936TIP3    H126685   2.292   4.022   4.375
 8936TIP3    H226686   2.286   3.879   4.424
 8937TIP3   OH226687   1.764   3.732   5.838
 8937TIP3    H126688   1.787   3.716   5.932
 8937TIP3    H226689   1.698   3.663   5.822
 8938TIP3   OH226690   2.493   3.840   5.859
 8938TIP3    H126691   2.434   3.782   5.808
 8938TIP3    H226692   2.581   3.807   5.831
 8939TIP3   OH226693   3.160   3.440   4.349
 8939TIP3    H126694   3.104   3.388   4.288
 8939TIP3    H226695   3.160   3.526   4.303
 8940TIP3   OH226696   2.865   4.256   4.257
 8940TIP3    H126697   2.840   4.187   4.321
 8940TIP3    H226698   2.876   4.206   4.174
 8941TIP3   OH226699   2.856   3.884   5.104
 8941TIP3    H126700   2.763   3.853   5.109
 8941TIP3    H226701   2.896   3.808   5.056
 8942TIP3   OH226702   1.547   3.417   4.548
 8942TIP3    H126703   1.597   3.499   4.569
 8942TIP3    H226704   1.473   3.425   4.612
 8943TIP3   OH226705   1.895   4.366   4.678
 8943TIP3    H126706   1.823   4.352   4.741
 8943TIP3    H226707   1.925   4.457   4.699
 8944TIP3   OH226708   2.661   4.096   5.276
 8944TIP3    H126709   2.642   4.082   5.372
 8944TIP3    H226710   2.721   4.022   5.255
 8945TIP3   OH226711   2.617   3.982   4.159
 8945TIP3    H126712   2.670   3.957   4.238
 8945TIP3    H226713   2.528   3.958   4.192
 8946TIP3   OH226714   2.959   4.459   3.980
 8946TIP3    H126715   2.997   4.531   3.927
 8946TIP3    H226716   2.879   4.505   4.013
 8947TIP3   OH226717   1.980   3.237   5.847
 8947TIP3    H126718   1.884   3.240   5.861
 8947TIP3    H226719   2.008   3.174   5.916
 8948TIP3   OH226720   2.777   3.915   4.374
 8948TIP3    H126721   2.767   3.851   4.447
 8948TIP3    H226722   2.875   3.915   4.364
 8949TIP3   OH226723   1.702   4.323   5.478
 8949TIP3    H126724   1.742   4.240   5.508
 8949TIP3    H226725   1.722   4.381   5.552
 8950TIP3   OH226726   1.986   3.964   4.159
 8950TIP3    H126727   2.002   3.871   4.133
 8950TIP3    H226728   1.972   3.955   4.255
 8951TIP3   OH226729   1.933   3.967   4.429
 8951TIP3    H126730   1.962   3.940   4.520
 8951TIP3    H226731   1.939   4.064   4.439
 8952TIP3   OH226732   1.663   3.659   4.633
 8952TIP3    H126733   1.604   3.709   4.693
 8952TIP3    H226734   1.700   3.730   4.579
 8953TIP3   OH226735   2.810   3.304   5.530
 8953TIP3    H126736   2.896   3.335   5.563
 8953TIP3    H226737   2.797   3.221   5.580
 8954TIP3   OH226738   2.694   3.054   4.689
 8954TIP3    H126739   2.685   3.079   4.595
 8954TIP3    H226740   2.735   3.135   4.727
 8955TIP3   OH226741   2.201   4.170   4.377
 8955TIP3    H126742   2.114   4.186   4.419
 8955TIP3    H226743   2.206   4.246   4.318
 8956TIP3   OH226744   2.386   3.228   4.792
 8956TIP3    H126745   2.451   3.299   4.774
 8956TIP3    H226746   2.390   3.222   4.890
 8957TIP3   OH226747   2.653   3.550   5.602
 8957TIP3    H126748   2.674   3.600   5.683
 8957TIP3    H226749   2.709   3.470   5.611
 8958TIP3   OH226750   2.531   2.959   4.896
 8958TIP3    H126751   2.529   3.033   4.959
 8958TIP3    H226752   2.590   2.997   4.827
 8959TIP3   OH226753   1.939   4.241   4.440
 8959TIP3    H126754   1.908   4.315   4.384
 8959TIP3    H226755   1.924   4.278   4.530
 8960TIP3   OH226756   2.042   2.954   4.686
 8960TIP3    H126757   2.039   3.046   4.719
 8960TIP3    H226758   2.138   2.936   4.696
 8961TIP3   OH226759   3.298   3.451   5.577
 8961TIP3    H126760   3.200   3.450   5.590
 8961TIP3    H226761   3.301   3.398   5.496
 8962TIP3   OH226762   2.945   3.647   4.973
 8962TIP3    H126763   2.871   3.584   4.981
 8962TIP3    H226764   3.018   3.600   5.017
 8963TIP3   OH226765   1.655   3.883   4.436
 8963TIP3    H126766   1.724   3.949   4.458
 8963TIP3    H226767   1.706   3.828   4.374
 8964TIP3   OH226768   1.604   3.148   4.571
 8964TIP3    H126769   1.605   3.245   4.567
 8964TIP3    H226770   1.516   3.128   4.538
 8965TIP3   OH226771   2.913   4.593   4.922
 8965TIP3    H126772   2.872   4.642   4.848
 8965TIP3    H226773   3.007   4.609   4.905
 8966TIP3   OH226774   1.989   2.869   5.449
 8966TIP3    H126775   1.958   2.835   5.362
 8966TIP3    H226776   1.979   2.789   5.506
 8967TIP3   OH226777   1.529   4.091   4.843
 8967TIP3    H126778   1.441   4.128   4.859
 8967TIP3    H226779   1.540   4.115   4.749
 8968TIP3   OH226780   1.684   4.623   5.897
 8968TIP3    H126781   1.768   4.620   5.947
 8968TIP3    H226782   1.660   4.529   5.897
 8969TIP3   OH226783   2.178   4.621   5.960
 8969TIP3    H126784   2.262   4.585   5.993
 8969TIP3    H226785   2.144   4.553   5.903
 8970TIP3   OH226786   2.147   4.169   4.072
 8970TIP3    H126787   2.090   4.100   4.113
 8970TIP3    H226788   2.224   4.115   4.046
 8971TIP3   OH226789   2.586   4.211   3.983
 8971TIP3    H126790   2.630   4.147   4.041
 8971TIP3    H226791   2.643   4.211   3.904
 8972TIP3   OH226792   1.817   4.033   6.098
 8972TIP3    H126793   1.833   3.937   6.104
 8972TIP3    H226794   1.728   4.035   6.056
 8973TIP3   OH226795   1.794   3.684   4.292
 8973TIP3    H126796   1.848   3.654   4.368
 8973TIP3    H226797   1.863   3.691   4.224
 8974TIP3   OH226798   2.416   4.105   5.852
 8974TIP3    H126799   2.377   4.070   5.772
 8974TIP3    H226800   2.468   4.027   5.880
 8975TIP3   OH226801   2.299   3.882   4.097
 8975TIP3    H126802   2.302   3.898   4.194
 8975TIP3    H226803   2.296   3.784   4.095
 8976TIP3   OH226804   2.933   4.127   5.479
 8976TIP3    H126805   2.967   4.129   5.388
 8976TIP3    H226806   2.839   4.147   5.469
 8977TIP3   OH226807   1.936   3.767   6.079
 8977TIP3    H126808   2.008   3.705   6.063
 8977TIP3    H226809   1.959   3.799   6.169
 8978TIP3   OH226810   1.990   3.586   4.502
 8978TIP3    H126811   1.975   3.562   4.596
 8978TIP3    H226812   2.031   3.505   4.466
 8979TIP3   OH226813   2.270   3.654   5.745
 8979TIP3    H126814   2.192   3.713   5.748
 8979TIP3    H226815   2.317   3.686   5.664
 8980TIP3   OH226816   2.102   3.373   4.357
 8980TIP3    H126817   2.075   3.381   4.263
 8980TIP3    H226818   2.199   3.387   4.349
 8981TIP3   OH226819   2.787   4.054   5.875
 8981TIP3    H126820   2.873   4.037   5.834
 8981TIP3    H226821   2.785   3.987   5.946
 8982TIP3   OH226822   2.924   3.715   4.015
 8982TIP3    H126823   2.901   3.667   3.933
 8982TIP3    H226824   2.892   3.805   3.990
 8983TIP3   OH226825   2.392   3.439   5.872
 8983TIP3    H126826   2.393   3.358   5.816
 8983TIP3    H226827   2.350   3.504   5.812
 8984TIP3   OH226828   2.395   3.227   5.677
 8984TIP3    H126829   2.423   3.266   5.592
 8984TIP3    H226830   2.302   3.203   5.658
 8985TIP3   OH226831   2.429   3.769   5.554
 8985TIP3    H126832   2.505   3.762   5.495
 8985TIP3    H226833   2.370   3.831   5.504
 8986TIP3   OH226834   3.008   3.732   5.933
 8986TIP3    H126835   3.051   3.645   5.941
 8986TIP3    H226836   3.079   3.786   5.897
 8987TIP3   OH226837   3.056   3.983   5.668
 8987TIP3    H126838   3.001   4.040   5.610
 8987TIP3    H226839   3.144   3.999   5.628
 8988TIP3   OH226840   2.268   3.557   6.097
 8988TIP3    H126841   2.200   3.488   6.112
 8988TIP3    H226842   2.306   3.529   6.011
 8989TIP3   OH226843   2.528   2.992   5.743
 8989TIP3    H126844   2.479   3.074   5.720
 8989TIP3    H226845   2.458   2.924   5.730
 8990TIP3   OH226846   2.652   3.499   5.959
 8990TIP3    H126847   2.644   3.485   6.055
 8990TIP3    H226848   2.563   3.471   5.931
 8991TIP3   OH226849   2.895   3.450   5.817
 8991TIP3    H126850   2.818   3.445   5.876
 8991TIP3    H226851   2.968   3.414   5.872
 8992TIP3   OH226852   3.125   3.385   5.966
 8992TIP3    H126853   3.136   3.289   5.985
 8992TIP3    H226854   3.120   3.424   6.056
 8993TIP3   OH226855   2.111   3.336   6.151
 8993TIP3    H126856   2.119   3.245   6.114
 8993TIP3    H226857   2.147   3.321   6.241
 8994TIP3   OH226858   2.623   3.001   6.000
 8994TIP3    H126859   2.691   2.931   5.995
 8994TIP3    H226860   2.584   2.994   5.910
 8995TIP3   OH226861   2.689   3.216   6.158
 8995TIP3    H126862   2.667   3.144   6.094
 8995TIP3    H226863   2.611   3.275   6.151
 8996TIP3   OH226864   1.907   4.451   4.258
 8996TIP3    H126865   2.003   4.442   4.241
 8996TIP3    H226866   1.880   4.496   4.176
 8997TIP3   OH226867   1.389   3.827   4.476
 8997TIP3    H126868   1.484   3.851   4.463
 8997TIP3    H226869   1.388   3.737   4.436
 8998TIP3   OH226870   1.298   4.440   4.888
 8998TIP3    H126871   1.233   4.374   4.855
 8998TIP3    H226872   1.345   4.385   4.956
 8999TIP3   OH226873   1.431   4.300   5.079
 8999TIP3    H126874   1.431   4.216   5.126
 8999TIP3    H226875   1.488   4.354   5.137
 9000TIP3   OH226876   3.170   4.686   4.879
 9000TIP3    H126877   3.183   4.749   4.951
 9000TIP3    H226878   3.211   4.731   4.804
 9001TIP3   OH226879   3.057   3.902   4.351
 9001TIP3    H126880   3.129   3.963   4.325
 9001TIP3    H226881   3.097   3.861   4.431
 9002TIP3   OH226882   3.182   3.773   4.555
 9002TIP3    H126883   3.119   3.725   4.614
 9002TIP3    H226884   3.249   3.805   4.618
 9003TIP3   OH226885   3.232   4.151   4.989
 9003TIP3    H126886   3.290   4.091   4.938
 9003TIP3    H226887   3.215   4.222   4.925
 9004TIP3   OH226888   3.125   3.680   4.198
 9004TIP3    H126889   3.051   3.682   4.133
 9004TIP3    H226890   3.097   3.752   4.258
 9005TIP3   OH226891   2.991   3.349   4.154
 9005TIP3    H126892   2.951   3.387   4.076
 9005TIP3    H226893   2.968   3.254   4.145
 9006TIP3   OH226894   2.999   3.622   4.701
 9006TIP3    H126895   3.017   3.526   4.696
 9006TIP3    H226896   2.988   3.636   4.798
 9007TIP3   OH226897   1.627   3.697   5.446
 9007TIP3    H126898   1.626   3.669   5.353
 9007TIP3    H226899   1.724   3.700   5.464
 9008TIP3   OH226900   3.298   4.063   5.549
 9008TIP3    H126901   3.363   3.989   5.554
 9008TIP3    H226902   3.310   4.093   5.458
 9009TIP3   OH226903   3.469   3.859   5.585
 9009TIP3    H126904   3.397   3.802   5.618
 9009TIP3    H226905   3.545   3.797   5.594
 9010TIP3   OH226906   2.942   3.080   4.137
 9010TIP3    H126907   3.021   3.059   4.192
 9010TIP3    H226908   2.872   3.026   4.178
 9011TIP3   OH226909   3.003   3.334   4.598
 9011TIP3    H126910   3.075   3.274   4.630
 9011TIP3    H226911   3.056   3.371   4.525
 9012TIP3   OH226912   3.158   3.519   5.091
 9012TIP3    H126913   3.245   3.544   5.051
 9012TIP3    H226914   3.174   3.550   5.182
 9013TIP3   OH226915   3.228   3.658   5.326
 9013TIP3    H126916   3.149   3.692   5.371
 9013TIP3    H226917   3.260   3.738   5.278
 9014TIP3   OH226918   1.844   3.387   6.123
 9014TIP3    H126919   1.942   3.379   6.123
 9014TIP3    H226920   1.819   3.301   6.165
 9015TIP3   OH226921   3.680   3.250   5.881
 9015TIP3    H126922   3.736   3.183   5.836
 9015TIP3    H226923   3.651   3.305   5.805
 9016TIP3   OH226924   1.805   3.077   5.456
 9016TIP3    H126925   1.867   3.002   5.465
 9016TIP3    H226926   1.866   3.152   5.448
 9017TIP3   OH226927   1.609   3.352   5.528
 9017TIP3    H126928   1.658   3.342   5.443
 9017TIP3    H226929   1.640   3.438   5.556
 9018TIP3   OH226930   3.551   3.390   5.687
 9018TIP3    H126931   3.463   3.429   5.707
 9018TIP3    H226932   3.524   3.319   5.626
 9019TIP3   OH226933   3.183   3.027   4.261
 9019TIP3    H126934   3.238   2.959   4.218
 9019TIP3    H226935   3.247   3.102   4.270
 9020TIP3   OH226936   1.590   2.853   5.027
 9020TIP3    H126937   1.497   2.853   5.053
 9020TIP3    H226938   1.590   2.912   4.948
 9021TIP3   OH226939   2.750   4.559   4.532
 9021TIP3    H126940   2.800   4.540   4.450
 9021TIP3    H226941   2.807   4.622   4.577
 9022TIP3   OH226942   1.811   2.936   5.843
 9022TIP3    H126943   1.760   2.929   5.926
 9022TIP3    H226944   1.744   2.972   5.783
 9023TIP3   OH226945   1.855   4.364   5.934
 9023TIP3    H126946   1.769   4.332   5.903
 9023TIP3    H226947   1.853   4.337   6.027
 9024TIP3   OH226948   2.055   4.407   5.474
 9024TIP3    H126949   1.987   4.471   5.443
 9024TIP3    H226950   2.099   4.389   5.390
 9025TIP3   OH226951   3.441   3.157   5.559
 9025TIP3    H126952   3.355   3.161   5.514
 9025TIP3    H226953   3.467   3.062   5.547
 9026TIP3   OH226954   1.710   4.653   5.490
 9026TIP3    H126955   1.622   4.685   5.462
 9026TIP3    H226956   1.710   4.683   5.582
 9027TIP3   OH226957   1.943   4.624   5.345
 9027TIP3    H126958   1.857   4.640   5.391
 9027TIP3    H226959   1.923   4.661   5.257
 9028TIP3   OH226960   2.374   4.663   5.126
 9028TIP3    H126961   2.300   4.683   5.066
 9028TIP3    H226962   2.366   4.731   5.193
 9029TIP3   OH226963   2.872   4.805   5.110
 9029TIP3    H126964   2.836   4.878   5.056
 9029TIP3    H226965   2.869   4.729   5.048
 9030TIP3   OH226966   1.616   4.445   5.238
 9030TIP3    H126967   1.647   4.419   5.328
 9030TIP3    H226968   1.686   4.402   5.184
 9031TIP3   OH226969   1.807   4.317   5.094
 9031TIP3    H126970   1.825   4.229   5.132
 9031TIP3    H226971   1.897   4.352   5.079
 9032TIP3   OH226972   2.070   4.413   5.079
 9032TIP3    H126973   2.105   4.324   5.062
 9032TIP3    H226974   2.120   4.439   5.158
 9033TIP3   OH226975   2.648   3.067   5.177
 9033TIP3    H126976   2.608   2.996   5.231
 9033TIP3    H226977   2.725   3.022   5.137
 9034TIP3   OH226978   3.184   2.954   5.024
 9034TIP3    H126979   3.206   3.044   4.996
 9034TIP3    H226980   3.111   2.967   5.086
 9035TIP3   OH226981   1.903   2.775   5.200
 9035TIP3    H126982   1.811   2.742   5.200
 9035TIP3    H226983   1.953   2.691   5.197
 9036TIP3   OH226984   1.684   2.645   4.843
 9036TIP3    H126985   1.717   2.704   4.774
 9036TIP3    H226986   1.657   2.709   4.912
 9037TIP3   OH226987   2.344   2.809   5.079
 9037TIP3    H126988   2.402   2.860   5.021
 9037TIP3    H226989   2.367   2.845   5.166
 9038TIP3   OH226990   2.882   2.957   5.072
 9038TIP3    H126991   2.899   2.927   4.982
 9038TIP3    H226992   2.876   2.872   5.121
 9039TIP3   OH226993   2.913   2.860   4.611
 9039TIP3    H126994   2.842   2.921   4.636
 9039TIP3    H226995   2.897   2.785   4.671
 9040TIP3   OH226996   1.401   4.212   4.631
 9040TIP3    H126997   1.317   4.182   4.592
 9040TIP3    H226998   1.393   4.307   4.616
 9041TIP3   OH226999   1.804   2.807   4.610
 9041TIP3    H127000   1.855   2.745   4.554
 9041TIP3    H227001   1.876   2.862   4.647
 9042TIP3   OH227002   2.319   2.977   4.709
 9042TIP3    H127003   2.381   2.935   4.771
 9042TIP3    H227004   2.337   3.071   4.733
 9043TIP3   OH227005   2.175   4.407   4.206
 9043TIP3    H127006   2.265   4.428   4.172
 9043TIP3    H227007   2.154   4.331   4.148
 9044TIP3   OH227008   2.897   4.522   4.300
 9044TIP3    H127009   2.888   4.424   4.287
 9044TIP3    H227010   2.851   4.555   4.220
 9045TIP3   OH227011   2.110   3.057   6.090
 9045TIP3    H127012   2.078   2.986   6.148
 9045TIP3    H227013   2.205   3.058   6.115
 9046TIP3   OH227014   2.358   3.054   6.209
 9046TIP3    H127015   2.443   3.028   6.169
 9046TIP3    H227016   2.347   2.983   6.276
 9047TIP3   OH227017   1.481   4.242   4.268
 9047TIP3    H127018   1.484   4.268   4.361
 9047TIP3    H227019   1.570   4.201   4.255
 9048TIP3   OH227020   3.184   3.115   5.998
 9048TIP3    H127021   3.204   3.083   6.089
 9048TIP3    H227022   3.272   3.108   5.955
 9049TIP3   OH227023   4.389   4.039   4.257
 9049TIP3    H127024   4.362   4.131   4.237
 9049TIP3    H227025   4.311   3.991   4.224
 9050TIP3   OH227026   4.386   4.039   4.636
 9050TIP3    H127027   4.416   4.006   4.722
 9050TIP3    H227028   4.344   3.961   4.598
 9051TIP3   OH227029   3.689   3.933   4.997
 9051TIP3    H127030   3.719   3.867   5.062
 9051TIP3    H227031   3.763   3.995   4.999
 9052TIP3   OH227032   4.630   4.339   4.315
 9052TIP3    H127033   4.620   4.273   4.385
 9052TIP3    H227034   4.658   4.418   4.366
 9053TIP3   OH227035   3.663   4.347   4.729
 9053TIP3    H127036   3.649   4.250   4.733
 9053TIP3    H227037   3.759   4.350   4.715
 9054TIP3   OH227038   3.372   3.560   4.516
 9054TIP3    H127039   3.301   3.626   4.515
 9054TIP3    H227040   3.320   3.477   4.517
 9055TIP3   OH227041   3.428   3.838   4.682
 9055TIP3    H127042   3.472   3.758   4.720
 9055TIP3    H227043   3.477   3.849   4.600
 9056TIP3   OH227044   4.271   4.805   4.326
 9056TIP3    H127045   4.324   4.730   4.292
 9056TIP3    H227046   4.268   4.788   4.422
 9057TIP3   OH227047   4.188   4.268   4.684
 9057TIP3    H127048   4.219   4.188   4.637
 9057TIP3    H227049   4.275   4.308   4.703
 9058TIP3   OH227050   5.199   3.586   4.682
 9058TIP3    H127051   5.226   3.668   4.726
 9058TIP3    H227052   5.217   3.608   4.589
 9059TIP3   OH227053   4.600   3.768   4.718
 9059TIP3    H127054   4.641   3.682   4.738
 9059TIP3    H227055   4.568   3.753   4.627
 9060TIP3   OH227056   3.939   3.427   4.682
 9060TIP3    H127057   3.913   3.499   4.621
 9060TIP3    H227058   3.891   3.352   4.638
 9061TIP3   OH227059   4.629   3.516   4.307
 9061TIP3    H127060   4.703   3.500   4.371
 9061TIP3    H227061   4.679   3.553   4.232
 9062TIP3   OH227062   3.569   3.628   4.790
 9062TIP3    H127063   3.652   3.605   4.834
 9062TIP3    H227064   3.573   3.569   4.712
 9063TIP3   OH227065   4.012   3.826   4.576
 9063TIP3    H127066   4.104   3.798   4.594
 9063TIP3    H227067   3.970   3.742   4.548
 9064TIP3   OH227068   5.272   3.793   4.851
 9064TIP3    H127069   5.189   3.841   4.831
 9064TIP3    H227070   5.282   3.813   4.945
 9065TIP3   OH227071   3.932   3.409   5.117
 9065TIP3    H127072   3.869   3.442   5.050
 9065TIP3    H227073   3.880   3.428   5.198
 9066TIP3   OH227074   4.284   4.261   4.126
 9066TIP3    H127075   4.238   4.237   4.044
 9066TIP3    H227076   4.240   4.346   4.147
 9067TIP3   OH227077   4.034   4.180   4.911
 9067TIP3    H127078   3.998   4.239   4.979
 9067TIP3    H227079   4.073   4.241   4.846
 9068TIP3   OH227080   4.844   3.516   4.475
 9068TIP3    H127081   4.831   3.469   4.558
 9068TIP3    H227082   4.896   3.594   4.503
 9069TIP3   OH227083   3.804   3.524   4.899
 9069TIP3    H127084   3.866   3.597   4.923
 9069TIP3    H227085   3.853   3.484   4.824
 9070TIP3   OH227086   3.266   4.067   4.246
 9070TIP3    H127087   3.221   4.093   4.163
 9070TIP3    H227088   3.293   4.153   4.283
 9071TIP3   OH227089   4.693   4.564   4.471
 9071TIP3    H127090   4.612   4.574   4.525
 9071TIP3    H227091   4.707   4.657   4.443
 9072TIP3   OH227092   4.992   3.485   4.848
 9072TIP3    H127093   4.904   3.516   4.820
 9072TIP3    H227094   5.049   3.517   4.775
 9073TIP3   OH227095   4.294   3.133   4.832
 9073TIP3    H127096   4.279   3.038   4.843
 9073TIP3    H227097   4.215   3.169   4.877
 9074TIP3   OH227098   4.407   4.629   4.163
 9074TIP3    H127099   4.458   4.548   4.139
 9074TIP3    H227100   4.465   4.697   4.121
 9075TIP3   OH227101   4.549   4.415   4.063
 9075TIP3    H127102   4.506   4.337   4.027
 9075TIP3    H227103   4.583   4.381   4.149
 9076TIP3   OH227104   4.219   3.891   4.085
 9076TIP3    H127105   4.138   3.940   4.063
 9076TIP3    H227106   4.265   3.889   3.999
 9077TIP3   OH227107   4.179   3.675   3.804
 9077TIP3    H127108   4.247   3.724   3.853
 9077TIP3    H227109   4.234   3.610   3.757
 9078TIP3   OH227110   5.124   4.131   4.672
 9078TIP3    H127111   5.042   4.184   4.682
 9078TIP3    H227112   5.152   4.158   4.582
 9079TIP3   OH227113   4.566   3.973   4.059
 9079TIP3    H127114   4.511   3.998   4.137
 9079TIP3    H227115   4.649   3.947   4.104
 9080TIP3   OH227116   4.803   4.013   4.968
 9080TIP3    H127117   4.800   4.095   5.019
 9080TIP3    H227118   4.716   4.017   4.922
 9081TIP3   OH227119   3.799   3.973   4.472
 9081TIP3    H127120   3.756   3.914   4.406
 9081TIP3    H227121   3.875   3.918   4.501
 9082TIP3   OH227122   3.930   4.382   4.625
 9082TIP3    H127123   3.905   4.339   4.542
 9082TIP3    H227124   4.021   4.347   4.640
 9083TIP3   OH227125   3.943   3.935   4.827
 9083TIP3    H127126   3.969   3.920   4.734
 9083TIP3    H227127   3.977   4.025   4.846
 9084TIP3   OH227128   4.472   4.593   4.630
 9084TIP3    H127129   4.406   4.645   4.677
 9084TIP3    H227130   4.456   4.504   4.666
 9085TIP3   OH227131   4.410   3.829   3.884
 9085TIP3    H127132   4.468   3.890   3.937
 9085TIP3    H227133   4.435   3.855   3.792
 9086TIP3   OH227134   3.824   4.058   5.247
 9086TIP3    H127135   3.831   4.144   5.295
 9086TIP3    H227136   3.727   4.044   5.255
 9087TIP3   OH227137   4.149   4.513   4.161
 9087TIP3    H127138   4.227   4.569   4.181
 9087TIP3    H227139   4.088   4.577   4.122
 9088TIP3   OH227140   4.923   3.071   3.931
 9088TIP3    H127141   4.842   3.090   3.982
 9088TIP3    H227142   4.935   3.156   3.883
 9089TIP3   OH227143   3.666   3.813   4.279
 9089TIP3    H127144   3.599   3.857   4.222
 9089TIP3    H227145   3.623   3.729   4.298
 9090TIP3   OH227146   4.721   4.440   3.479
 9090TIP3    H127147   4.729   4.538   3.466
 9090TIP3    H227148   4.814   4.412   3.467
 9091TIP3   OH227149   3.443   4.200   5.183
 9091TIP3    H127150   3.377   4.169   5.119
 9091TIP3    H227151   3.485   4.118   5.215
 9092TIP3   OH227152   3.301   4.397   4.806
 9092TIP3    H127153   3.393   4.375   4.824
 9092TIP3    H227154   3.278   4.459   4.877
 9093TIP3   OH227155   4.029   4.758   3.961
 9093TIP3    H127156   3.984   4.739   3.876
 9093TIP3    H227157   3.998   4.848   3.982
 9094TIP3   OH227158   3.469   4.608   4.343
 9094TIP3    H127159   3.516   4.596   4.428
 9094TIP3    H227160   3.410   4.530   4.345
 9095TIP3   OH227161   4.233   4.658   3.602
 9095TIP3    H127162   4.292   4.588   3.566
 9095TIP3    H227163   4.267   4.667   3.694
 9096TIP3   OH227164   4.282   4.706   3.873
 9096TIP3    H127165   4.194   4.715   3.916
 9096TIP3    H227166   4.334   4.666   3.945
 9097TIP3   OH227167   5.060   3.976   5.145
 9097TIP3    H127168   4.977   3.990   5.098
 9097TIP3    H227169   5.071   3.879   5.137
 9098TIP3   OH227170   4.052   3.203   4.960
 9098TIP3    H127171   3.962   3.174   4.933
 9098TIP3    H227172   4.028   3.289   5.000
 9099TIP3   OH227173   4.584   3.319   5.152
 9099TIP3    H127174   4.651   3.294   5.218
 9099TIP3    H227175   4.499   3.300   5.198
 9100TIP3   OH227176   4.828   3.750   5.073
 9100TIP3    H127177   4.777   3.745   5.157
 9100TIP3    H227178   4.800   3.836   5.037
 9101TIP3   OH227179   4.484   3.879   3.628
 9101TIP3    H127180   4.451   3.853   3.539
 9101TIP3    H227181   4.562   3.932   3.603
 9102TIP3   OH227182   4.199   3.254   3.929
 9102TIP3    H127183   4.166   3.253   4.021
 9102TIP3    H227184   4.158   3.171   3.896
 9103TIP3   OH227185   3.985   3.717   4.979
 9103TIP3    H127186   3.932   3.738   5.059
 9103TIP3    H227187   3.968   3.797   4.924
 9104TIP3   OH227188   3.865   3.606   4.491
 9104TIP3    H127189   3.772   3.577   4.509
 9104TIP3    H227190   3.878   3.564   4.403
 9105TIP3   OH227191   4.358   3.693   4.218
 9105TIP3    H127192   4.303   3.764   4.178
 9105TIP3    H227193   4.411   3.664   4.141
 9106TIP3   OH227194   4.533   3.972   5.303
 9106TIP3    H127195   4.508   3.901   5.366
 9106TIP3    H227196   4.626   3.986   5.329
 9107TIP3   OH227197   4.516   3.722   4.459
 9107TIP3    H127198   4.456   3.753   4.388
 9107TIP3    H227199   4.547   3.639   4.417
 9108TIP3   OH227200   3.802   3.749   5.185
 9108TIP3    H127201   3.826   3.814   5.254
 9108TIP3    H227202   3.787   3.668   5.237
 9109TIP3   OH227203   3.853   3.226   3.896
 9109TIP3    H127204   3.844   3.222   3.994
 9109TIP3    H227205   3.773   3.277   3.873
 9110TIP3   OH227206   3.364   3.233   4.262
 9110TIP3    H127207   3.415   3.299   4.212
 9110TIP3    H227208   3.331   3.285   4.338
 9111TIP3   OH227209   4.526   3.970   4.882
 9111TIP3    H127210   4.558   3.897   4.825
 9111TIP3    H227211   4.497   3.918   4.961
 9112TIP3   OH227212   4.192   3.427   4.553
 9112TIP3    H127213   4.107   3.426   4.601
 9112TIP3    H227214   4.255   3.432   4.627
 9113TIP3   OH227215   3.629   3.481   4.560
 9113TIP3    H127216   3.533   3.492   4.539
 9113TIP3    H227217   3.640   3.385   4.550
 9114TIP3   OH227218   3.902   3.481   4.248
 9114TIP3    H127219   3.994   3.498   4.224
 9114TIP3    H227220   3.852   3.504   4.166
 9115TIP3   OH227221   4.685   3.503   4.752
 9115TIP3    H127222   4.652   3.515   4.844
 9115TIP3    H227223   4.618   3.441   4.717
 9116TIP3   OH227224   3.737   3.513   4.031
 9116TIP3    H127225   3.660   3.471   3.988
 9116TIP3    H227226   3.786   3.546   3.952
 9117TIP3   OH227227   4.852   5.256   4.966
 9117TIP3    H127228   4.873   5.194   4.894
 9117TIP3    H227229   4.929   5.250   5.024
 9118TIP3   OH227230   3.828   4.289   5.402
 9118TIP3    H127231   3.897   4.328   5.458
 9118TIP3    H227232   3.748   4.318   5.448
 9119TIP3   OH227233   4.278   3.756   4.651
 9119TIP3    H127234   4.349   3.714   4.601
 9119TIP3    H227235   4.288   3.715   4.739
 9120TIP3   OH227236   3.815   3.240   4.530
 9120TIP3    H127237   3.770   3.165   4.574
 9120TIP3    H227238   3.848   3.200   4.449
 9121TIP3   OH227239   4.254   3.651   4.941
 9121TIP3    H127240   4.164   3.686   4.955
 9121TIP3    H227241   4.311   3.712   4.992
 9122TIP3   OH227242   3.991   4.044   4.035
 9122TIP3    H127243   3.919   3.978   4.025
 9122TIP3    H227244   3.973   4.078   4.127
 9123TIP3   OH227245   4.893   4.275   4.673
 9123TIP3    H127246   4.918   4.335   4.599
 9123TIP3    H227247   4.806   4.240   4.644
 9124TIP3   OH227248   4.449   3.358   3.893
 9124TIP3    H127249   4.353   3.341   3.903
 9124TIP3    H227250   4.459   3.452   3.918
 9125TIP3   OH227251   4.431   4.362   5.026
 9125TIP3    H127252   4.423   4.314   5.110
 9125TIP3    H227253   4.401   4.451   5.050
 9126TIP3   OH227254   4.520   3.602   3.999
 9126TIP3    H127255   4.616   3.610   4.015
 9126TIP3    H227256   4.500   3.682   3.946
 9127TIP3   OH227257   3.689   4.071   4.714
 9127TIP3    H127258   3.721   4.037   4.628
 9127TIP3    H227259   3.711   3.999   4.775
 9128TIP3   OH227260   4.136   4.193   3.855
 9128TIP3    H127261   4.089   4.280   3.862
 9128TIP3    H227262   4.081   4.138   3.915
 9129TIP3   OH227263   3.558   3.988   5.327
 9129TIP3    H127264   3.582   3.970   5.420
 9129TIP3    H227265   3.492   3.920   5.308
 9130TIP3   OH227266   4.284   4.088   5.356
 9130TIP3    H127267   4.224   4.045   5.294
 9130TIP3    H227268   4.372   4.067   5.319
 9131TIP3   OH227269   4.963   3.691   3.836
 9131TIP3    H127270   4.900   3.646   3.775
 9131TIP3    H227271   4.959   3.780   3.795
 9132TIP3   OH227272   5.171   4.521   4.917
 9132TIP3    H127273   5.079   4.532   4.889
 9132TIP3    H227274   5.214   4.511   4.828
 9133TIP3   OH227275   4.661   4.512   3.744
 9133TIP3    H127276   4.635   4.442   3.806
 9133TIP3    H227277   4.672   4.465   3.660
 9134TIP3   OH227278   4.652   4.142   4.588
 9134TIP3    H127279   4.559   4.112   4.597
 9134TIP3    H227280   4.691   4.065   4.542
 9135TIP3   OH227281   3.782   4.369   4.339
 9135TIP3    H127282   3.785   4.450   4.284
 9135TIP3    H227283   3.688   4.351   4.342
 9136TIP3   OH227284   3.343   3.677   4.036
 9136TIP3    H127285   3.392   3.759   4.059
 9136TIP3    H227286   3.267   3.682   4.099
 9137TIP3   OH227287   3.926   4.137   4.282
 9137TIP3    H127288   3.889   4.226   4.301
 9137TIP3    H227289   3.887   4.085   4.355
 9138TIP3   OH227290   3.704   4.607   4.190
 9138TIP3    H127291   3.617   4.615   4.234
 9138TIP3    H227292   3.735   4.700   4.192
 9139TIP3   OH227293   4.449   4.347   4.756
 9139TIP3    H127294   4.443   4.341   4.854
 9139TIP3    H227295   4.521   4.286   4.736
 9140TIP3   OH227296   4.413   4.237   3.646
 9140TIP3    H127297   4.466   4.213   3.725
 9140TIP3    H227298   4.324   4.213   3.676
 9141TIP3   OH227299   4.755   4.715   3.467
 9141TIP3    H127300   4.794   4.787   3.413
 9141TIP3    H227301   4.676   4.762   3.499
 9142TIP3   OH227302   3.776   3.493   5.335
 9142TIP3    H127303   3.679   3.498   5.344
 9142TIP3    H227304   3.799   3.429   5.405
 9143TIP3   OH227305   4.573   4.173   3.863
 9143TIP3    H127306   4.564   4.107   3.935
 9143TIP3    H227307   4.671   4.172   3.851
 9144TIP3   OH227308   3.783   4.221   3.645
 9144TIP3    H127309   3.796   4.129   3.615
 9144TIP3    H227310   3.764   4.207   3.740
 9145TIP3   OH227311   3.728   4.225   3.917
 9145TIP3    H127312   3.797   4.197   3.979
 9145TIP3    H227313   3.733   4.323   3.925
 9146TIP3   OH227314   3.466   3.920   4.120
 9146TIP3    H127315   3.399   3.963   4.178
 9146TIP3    H227316   3.479   3.991   4.054
 9147TIP3   OH227317   4.613   3.554   5.010
 9147TIP3    H127318   4.689   3.594   5.055
 9147TIP3    H227319   4.595   3.475   5.065
 9148TIP3   OH227320   4.493   3.308   4.175
 9148TIP3    H127321   4.476   3.333   4.082
 9148TIP3    H227322   4.530   3.391   4.212
 9149TIP3   OH227323   3.993   4.424   3.867
 9149TIP3    H127324   3.906   4.452   3.902
 9149TIP3    H227325   4.010   4.494   3.803
 9150TIP3   OH227326   4.186   3.484   4.279
 9150TIP3    H127327   4.249   3.557   4.263
 9150TIP3    H227328   4.187   3.479   4.377
 9151TIP3   OH227329   4.451   3.807   5.088
 9151TIP3    H127330   4.466   3.863   5.167
 9151TIP3    H227331   4.506   3.730   5.107
 9152TIP3   OH227332   4.329   3.218   4.386
 9152TIP3    H127333   4.316   3.296   4.443
 9152TIP3    H227334   4.387   3.255   4.316
 9153TIP3   OH227335   3.735   4.499   3.933
 9153TIP3    H127336   3.705   4.568   3.870
 9153TIP3    H227337   3.719   4.543   4.019
 9154TIP3   OH227338   3.838   3.210   4.173
 9154TIP3    H127339   3.832   3.300   4.209
 9154TIP3    H227340   3.935   3.195   4.182
 9155TIP3   OH227341   5.093   3.705   5.066
 9155TIP3    H127342   4.995   3.705   5.077
 9155TIP3    H227343   5.100   3.665   4.978
 9156TIP3   OH227344   4.743   3.901   4.457
 9156TIP3    H127345   4.666   3.842   4.469
 9156TIP3    H227346   4.814   3.853   4.505
 9157TIP3   OH227347   3.453   4.132   3.928
 9157TIP3    H127348   3.517   4.205   3.936
 9157TIP3    H227349   3.500   4.078   3.860
 9158TIP3   OH227350   3.409   3.411   4.041
 9158TIP3    H127351   3.395   3.507   4.047
 9158TIP3    H227352   3.320   3.376   4.047
 9159TIP3   OH227353   4.715   4.838   4.410
 9159TIP3    H127354   4.666   4.896   4.349
 9159TIP3    H227355   4.807   4.867   4.390
 9160TIP3   OH227356   3.790   3.122   4.930
 9160TIP3    H127357   3.756   3.100   4.840
 9160TIP3    H227358   3.761   3.045   4.981
 9161TIP3   OH227359   3.330   4.349   4.319
 9161TIP3    H127360   3.252   4.375   4.369
 9161TIP3    H227361   3.307   4.384   4.230
 9162TIP3   OH227362   3.946   4.426   3.560
 9162TIP3    H127363   3.889   4.354   3.598
 9162TIP3    H227364   4.020   4.373   3.527
 9163TIP3   OH227365   4.382   4.467   3.469
 9163TIP3    H127366   4.429   4.405   3.527
 9163TIP3    H227367   4.438   4.469   3.389
 9164TIP3   OH227368   3.604   4.282   5.589
 9164TIP3    H127369   3.640   4.191   5.581
 9164TIP3    H227370   3.545   4.287   5.513
 9165TIP3   OH227371   3.589   3.944   3.777
 9165TIP3    H127372   3.641   3.907   3.850
 9165TIP3    H227373   3.657   3.948   3.707
 9166TIP3   OH227374   4.096   4.139   3.585
 9166TIP3    H127375   4.099   4.153   3.682
 9166TIP3    H227376   4.095   4.041   3.581
 9167TIP3   OH227377   4.724   4.382   4.967
 9167TIP3    H127378   4.754   4.420   4.884
 9167TIP3    H227379   4.632   4.411   4.973
 9168TIP3   OH227380   3.728   4.020   5.570
 9168TIP3    H127381   3.805   3.967   5.547
 9168TIP3    H227382   3.754   4.054   5.658
 9169TIP3   OH227383   3.801   3.844   4.004
 9169TIP3    H127384   3.770   3.803   4.086
 9169TIP3    H227385   3.833   3.766   3.953
 9170TIP3   OH227386   4.064   3.908   5.230
 9170TIP3    H127387   3.988   3.969   5.235
 9170TIP3    H227388   4.112   3.942   5.151
 9171TIP3   OH227389   3.897   3.636   3.843
 9171TIP3    H127390   3.869   3.638   3.749
 9171TIP3    H227391   3.994   3.645   3.834
 9172TIP3   OH227392   4.583   4.309   5.361
 9172TIP3    H127393   4.671   4.296   5.323
 9172TIP3    H227394   4.582   4.244   5.433
 9173TIP3   OH227395   4.723   3.970   3.503
 9173TIP3    H127396   4.699   3.923   3.420
 9173TIP3    H227397   4.691   4.061   3.479
 9174TIP3   OH227398   4.191   3.697   5.357
 9174TIP3    H127399   4.188   3.616   5.302
 9174TIP3    H227400   4.146   3.763   5.300
 9175TIP3   OH227401   4.192   3.480   5.161
 9175TIP3    H127402   4.218   3.524   5.077
 9175TIP3    H227403   4.097   3.461   5.144
 9176TIP3   OH227404   4.223   4.023   5.037
 9176TIP3    H127405   4.301   4.023   4.980
 9176TIP3    H227406   4.164   4.087   4.993
 9177TIP3   OH227407   4.803   3.988   5.419
 9177TIP3    H127408   4.854   3.906   5.428
 9177TIP3    H227409   4.869   4.051   5.389
 9178TIP3   OH227410   4.845   4.234   5.154
 9178TIP3    H127411   4.790   4.291   5.096
 9178TIP3    H227412   4.933   4.252   5.114
 9179TIP3   OH227413   4.067   3.812   5.587
 9179TIP3    H127414   3.998   3.744   5.599
 9179TIP3    H227415   4.102   3.789   5.498
 9180TIP3   OH227416   4.324   3.247   5.228
 9180TIP3    H127417   4.277   3.331   5.206
 9180TIP3    H227418   4.253   3.182   5.215
 9181TIP3   OH227419   4.452   3.754   5.445
 9181TIP3    H127420   4.440   3.744   5.541
 9181TIP3    H227421   4.361   3.730   5.416
 9182TIP3   OH227422   4.690   3.697   5.299
 9182TIP3    H127423   4.613   3.704   5.360
 9182TIP3    H227424   4.762   3.669   5.359
 9183TIP3   OH227425   4.923   3.641   5.453
 9183TIP3    H127426   4.932   3.546   5.473
 9183TIP3    H227427   4.915   3.682   5.542
 9184TIP3   OH227428   3.907   3.591   5.636
 9184TIP3    H127429   3.914   3.502   5.599
 9184TIP3    H227430   3.941   3.577   5.727
 9185TIP3   OH227431   4.420   3.257   5.486
 9185TIP3    H127432   4.488   3.187   5.480
 9185TIP3    H227433   4.380   3.251   5.396
 9186TIP3   OH227434   4.484   3.472   5.645
 9186TIP3    H127435   4.461   3.402   5.581
 9186TIP3    H227436   4.407   3.532   5.639
 9187TIP3   OH227437   3.704   4.701   3.746
 9187TIP3    H127438   3.800   4.699   3.727
 9187TIP3    H227439   3.673   4.748   3.667
 9188TIP3   OH227440   3.185   4.083   3.962
 9188TIP3    H127441   3.280   4.105   3.950
 9188TIP3    H227442   3.180   3.994   3.922
 9189TIP3   OH227443   3.098   4.695   4.375
 9189TIP3    H127444   3.030   4.633   4.340
 9189TIP3    H227445   3.142   4.638   4.442
 9190TIP3   OH227446   3.232   4.550   4.564
 9190TIP3    H127447   3.226   4.472   4.621
 9190TIP3    H227448   3.286   4.608   4.621
 9191TIP3   OH227449   4.967   4.944   4.366
 9191TIP3    H127450   4.987   5.008   4.435
 9191TIP3    H227451   5.013   4.982   4.290
 9192TIP3   OH227452   5.028   4.649   5.221
 9192TIP3    H127453   4.951   4.636   5.281
 9192TIP3    H227454   5.041   4.744   5.236
 9193TIP3   OH227455   4.855   4.157   3.838
 9193TIP3    H127456   4.923   4.221   3.811
 9193TIP3    H227457   4.897   4.117   3.917
 9194TIP3   OH227458   4.983   4.024   4.041
 9194TIP3    H127459   4.916   3.982   4.100
 9194TIP3    H227460   5.044   4.066   4.105
 9195TIP3   OH227461   5.034   4.414   4.478
 9195TIP3    H127462   5.086   4.352   4.424
 9195TIP3    H227463   5.019   4.488   4.416
 9196TIP3   OH227464   4.920   3.931   3.689
 9196TIP3    H127465   4.849   3.935   3.621
 9196TIP3    H227466   4.894   4.008   3.744
 9197TIP3   OH227467   4.793   3.604   3.643
 9197TIP3    H127468   4.750   3.647   3.569
 9197TIP3    H227469   4.765   3.511   3.630
 9198TIP3   OH227470   4.798   3.880   4.188
 9198TIP3    H127471   4.804   3.783   4.185
 9198TIP3    H227472   4.784   3.896   4.284
 9199TIP3   OH227473   3.423   3.954   4.934
 9199TIP3    H127474   3.422   3.923   4.841
 9199TIP3    H227475   3.520   3.956   4.951
 9200TIP3   OH227476   5.083   4.298   5.045
 9200TIP3    H127477   5.157   4.234   5.039
 9200TIP3    H227478   5.119   4.372   4.992
 9201TIP3   OH227479   5.278   4.115   5.068
 9201TIP3    H127480   5.201   4.065   5.104
 9201TIP3    H227481   5.347   4.046   5.079
 9202TIP3   OH227482   4.736   3.337   3.628
 9202TIP3    H127483   4.810   3.309   3.686
 9202TIP3    H227484   4.661   3.282   3.657
 9203TIP3   OH227485   4.792   3.596   4.085
 9203TIP3    H127486   4.833   3.507   4.100
 9203TIP3    H227487   4.851   3.630   4.015
 9204TIP3   OH227488   4.956   3.771   4.578
 9204TIP3    H127489   5.042   3.799   4.539
 9204TIP3    H227490   4.967   3.809   4.668
 9205TIP3   OH227491   5.022   3.914   4.811
 9205TIP3    H127492   4.944   3.948   4.860
 9205TIP3    H227493   5.053   3.995   4.766
 9206TIP3   OH227494   3.639   3.647   5.615
 9206TIP3    H127495   3.736   3.637   5.611
 9206TIP3    H227496   3.614   3.560   5.653
 9207TIP3   OH227497   5.476   3.505   5.368
 9207TIP3    H127498   5.532   3.438   5.324
 9207TIP3    H227499   5.448   3.561   5.292
 9208TIP3   OH227500   4.903   3.345   4.120
 9208TIP3    H127501   4.949   3.330   4.205
 9208TIP3    H227502   4.841   3.269   4.119
 9209TIP3   OH227503   3.610   3.339   4.988
 9209TIP3    H127504   3.662   3.261   4.961
 9209TIP3    H227505   3.662   3.410   4.948
 9210TIP3   OH227506   3.404   3.611   5.016
 9210TIP3    H127507   3.451   3.591   4.932
 9210TIP3    H227508   3.439   3.698   5.036
 9211TIP3   OH227509   5.348   3.648   5.174
 9211TIP3    H127510   5.261   3.686   5.198
 9211TIP3    H227511   5.319   3.576   5.114
 9212TIP3   OH227512   4.985   3.282   3.752
 9212TIP3    H127513   5.031   3.211   3.703
 9212TIP3    H227514   5.049   3.356   3.746
 9213TIP3   OH227515   4.545   4.813   4.020
 9213TIP3    H127516   4.597   4.798   3.938
 9213TIP3    H227517   4.600   4.877   4.067
 9214TIP3   OH227518   3.609   3.194   5.330
 9214TIP3    H127519   3.556   3.186   5.411
 9214TIP3    H227520   3.545   3.235   5.269
 9215TIP3   OH227521   5.245   3.409   5.050
 9215TIP3    H127522   5.153   3.406   5.018
 9215TIP3    H227523   5.273   3.316   5.037
 9216TIP3   OH227524   3.498   4.917   4.972
 9216TIP3    H127525   3.408   4.944   4.943
 9216TIP3    H227526   3.502   4.963   5.056
 9217TIP3   OH227527   3.743   4.896   4.829
 9217TIP3    H127528   3.658   4.901   4.876
 9217TIP3    H227529   3.719   4.926   4.739
 9218TIP3   OH227530   4.181   4.920   4.602
 9218TIP3    H127531   4.098   4.942   4.556
 9218TIP3    H227532   4.194   4.998   4.658
 9219TIP3   OH227533   3.415   4.707   4.716
 9219TIP3    H127534   3.447   4.695   4.807
 9219TIP3    H227535   3.484   4.657   4.665
 9220TIP3   OH227536   3.605   4.572   4.578
 9220TIP3    H127537   3.622   4.486   4.624
 9220TIP3    H227538   3.696   4.607   4.569
 9221TIP3   OH227539   3.867   4.669   4.574
 9221TIP3    H127540   3.906   4.580   4.567
 9221TIP3    H227541   3.901   4.698   4.660
 9222TIP3   OH227542   4.453   3.325   4.671
 9222TIP3    H127543   4.405   3.258   4.723
 9222TIP3    H227544   4.519   3.273   4.623
 9223TIP3   OH227545   4.976   3.202   4.574
 9223TIP3    H127546   5.011   3.256   4.500
 9223TIP3    H227547   4.880   3.220   4.569
 9224TIP3   OH227548   5.069   3.304   4.338
 9224TIP3    H127549   5.143   3.254   4.296
 9224TIP3    H227550   5.101   3.397   4.323
 9225TIP3   OH227551   3.704   3.036   4.684
 9225TIP3    H127552   3.609   3.012   4.683
 9225TIP3    H227553   3.745   2.948   4.677
 9226TIP3   OH227554   3.479   2.904   4.324
 9226TIP3    H127555   3.508   2.966   4.255
 9226TIP3    H227556   3.445   2.965   4.391
 9227TIP3   OH227557   4.146   3.060   4.564
 9227TIP3    H127558   4.202   3.116   4.508
 9227TIP3    H227559   4.151   3.106   4.649
 9228TIP3   OH227560   4.695   3.210   4.550
 9228TIP3    H127561   4.682   3.176   4.460
 9228TIP3    H227562   4.677   3.129   4.604
 9229TIP3   OH227563   4.719   3.132   4.111
 9229TIP3    H127564   4.633   3.176   4.121
 9229TIP3    H227565   4.703   3.048   4.159
 9230TIP3   OH227566   3.202   4.469   4.114
 9230TIP3    H127567   3.117   4.436   4.079
 9230TIP3    H227568   3.189   4.564   4.099
 9231TIP3   OH227569   3.601   3.061   4.093
 9231TIP3    H127570   3.654   3.000   4.038
 9231TIP3    H227571   3.670   3.117   4.133
 9232TIP3   OH227572   4.116   3.235   4.195
 9232TIP3    H127573   4.174   3.189   4.257
 9232TIP3    H227574   4.135   3.328   4.220
 9233TIP3   OH227575   3.973   4.664   3.695
 9233TIP3    H127576   4.062   4.685   3.659
 9233TIP3    H227577   3.951   4.588   3.636
 9234TIP3   OH227578   4.692   4.779   3.788
 9234TIP3    H127579   4.683   4.681   3.774
 9234TIP3    H227580   4.648   4.812   3.707
 9235TIP3   OH227581   3.907   3.312   5.575
 9235TIP3    H127582   3.872   3.242   5.632
 9235TIP3    H227583   4.001   3.313   5.603
 9236TIP3   OH227584   4.154   3.310   5.696
 9236TIP3    H127585   4.240   3.285   5.658
 9236TIP3    H227586   4.141   3.240   5.763
 9237TIP3   OH227587   3.278   4.501   3.753
 9237TIP3    H127588   3.276   4.526   3.847
 9237TIP3    H227589   3.367   4.459   3.745
 9238TIP3   OH227590   4.978   3.369   5.484
 9238TIP3    H127591   4.998   3.339   5.575
 9238TIP3    H227592   5.066   3.365   5.442
 9239TIP3   OH227593   6.183   4.294   3.747
 9239TIP3    H127594   6.158   4.386   3.725
 9239TIP3    H227595   6.107   4.247   3.708
 9240TIP3   OH227596   6.176   4.297   4.124
 9240TIP3    H127597   6.211   4.261   4.208
 9240TIP3    H227598   6.142   4.218   4.081
 9241TIP3   OH227599   5.487   4.192   4.484
 9241TIP3    H127600   5.512   4.129   4.555
 9241TIP3    H227601   5.573   4.228   4.459
 9242TIP3   OH227602   6.423   4.596   3.803
 9242TIP3    H127603   6.421   4.530   3.873
 9242TIP3    H227604   6.454   4.675   3.852
 9243TIP3   OH227605   5.460   4.602   4.224
 9243TIP3    H127606   5.448   4.504   4.223
 9243TIP3    H227607   5.554   4.607   4.198
 9244TIP3   OH227608   5.162   3.807   4.001
 9244TIP3    H127609   5.111   3.889   4.014
 9244TIP3    H227610   5.092   3.750   3.965
 9245TIP3   OH227611   5.225   4.094   4.168
 9245TIP3    H127612   5.272   4.016   4.206
 9245TIP3    H227613   5.278   4.112   4.089
 9246TIP3   OH227614   6.066   5.060   3.815
 9246TIP3    H127615   6.119   4.987   3.777
 9246TIP3    H227616   6.070   5.042   3.910
 9247TIP3   OH227617   5.982   4.517   4.178
 9247TIP3    H127618   6.018   4.441   4.128
 9247TIP3    H227619   6.067   4.562   4.197
 9248TIP3   OH227620   6.993   3.842   4.168
 9248TIP3    H127621   7.022   3.923   4.214
 9248TIP3    H227622   7.016   3.864   4.076
 9249TIP3   OH227623   6.392   4.026   4.207
 9249TIP3    H127624   6.437   3.941   4.227
 9249TIP3    H227625   6.365   4.010   4.114
 9250TIP3   OH227626   5.730   3.683   4.170
 9250TIP3    H127627   5.710   3.755   4.107
 9250TIP3    H227628   5.682   3.609   4.126
 9251TIP3   OH227629   6.425   3.773   3.794
 9251TIP3    H127630   6.498   3.757   3.858
 9251TIP3    H227631   6.475   3.809   3.719
 9252TIP3   OH227632   5.367   3.886   4.276
 9252TIP3    H127633   5.449   3.863   4.324
 9252TIP3    H227634   5.377   3.829   4.197
 9253TIP3   OH227635   5.806   4.082   4.074
 9253TIP3    H127636   5.900   4.057   4.084
 9253TIP3    H227637   5.767   3.999   4.039
 9254TIP3   OH227638   7.066   4.045   4.342
 9254TIP3    H127639   6.985   4.097   4.322
 9254TIP3    H227640   7.089   4.079   4.429
 9255TIP3   OH227641   5.730   3.665   4.603
 9255TIP3    H127642   5.669   3.701   4.536
 9255TIP3    H227643   5.678   3.682   4.685
 9256TIP3   OH227644   6.075   4.514   3.615
 9256TIP3    H127645   6.037   4.496   3.528
 9256TIP3    H227646   6.036   4.601   3.636
 9257TIP3   OH227647   5.834   4.455   4.402
 9257TIP3    H127648   5.750   4.502   4.399
 9257TIP3    H227649   5.881   4.492   4.324
 9258TIP3   OH227650   6.638   3.774   3.962
 9258TIP3    H127651   6.633   3.725   4.045
 9258TIP3    H227652   6.694   3.850   3.987
 9259TIP3   OH227653   5.599   3.780   4.389
 9259TIP3    H127654   5.662   3.853   4.411
 9259TIP3    H227655   5.647   3.739   4.314
 9260TIP3   OH227656   5.061   4.323   3.733
 9260TIP3    H127657   5.018   4.348   3.649
 9260TIP3    H227658   5.088   4.410   3.769
 9261TIP3   OH227659   6.488   4.818   3.960
 9261TIP3    H127660   6.404   4.833   4.009
 9261TIP3    H227661   6.504   4.908   3.926
 9262TIP3   OH227662   6.788   3.740   4.333
 9262TIP3    H127663   6.701   3.774   4.306
 9262TIP3    H227664   6.848   3.773   4.263
 9263TIP3   OH227665   6.088   3.387   4.316
 9263TIP3    H127666   6.076   3.292   4.334
 9263TIP3    H227667   6.010   3.423   4.363
 9264TIP3   OH227668   6.200   4.886   3.647
 9264TIP3    H127669   6.252   4.805   3.625
 9264TIP3    H227670   6.259   4.954   3.607
 9265TIP3   OH227671   6.342   4.671   3.550
 9265TIP3    H127672   6.310   4.590   3.509
 9265TIP3    H227673   6.376   4.638   3.636
 9266TIP3   OH227674   6.016   4.147   3.572
 9266TIP3    H127675   5.935   4.199   3.549
 9266TIP3    H227676   6.063   4.145   3.487
 9267TIP3   OH227677   5.975   3.929   3.293
 9267TIP3    H127678   6.043   3.981   3.340
 9267TIP3    H227679   6.032   3.867   3.244
 9268TIP3   OH227680   6.917   4.383   4.157
 9268TIP3    H127681   6.838   4.441   4.165
 9268TIP3    H227682   6.951   4.412   4.070
 9269TIP3   OH227683   6.361   4.228   3.547
 9269TIP3    H127684   6.308   4.255   3.626
 9269TIP3    H227685   6.445   4.203   3.590
 9270TIP3   OH227686   6.599   4.269   4.456
 9270TIP3    H127687   6.598   4.351   4.507
 9270TIP3    H227688   6.515   4.276   4.407
 9271TIP3   OH227689   5.594   4.228   3.962
 9271TIP3    H127690   5.552   4.171   3.894
 9271TIP3    H227691   5.671   4.174   3.989
 9272TIP3   OH227692   5.721   4.625   4.118
 9272TIP3    H127693   5.699   4.598   4.027
 9272TIP3    H227694   5.815   4.598   4.125
 9273TIP3   OH227695   5.736   4.201   4.321
 9273TIP3    H127696   5.762   4.175   4.230
 9273TIP3    H227697   5.786   4.284   4.334
 9274TIP3   OH227698   6.259   4.845   4.109
 9274TIP3    H127699   6.216   4.911   4.166
 9274TIP3    H227700   6.242   4.762   4.156
 9275TIP3   OH227701   6.205   4.087   3.371
 9275TIP3    H127702   6.263   4.146   3.424
 9275TIP3    H227703   6.231   4.112   3.279
 9276TIP3   OH227704   5.943   4.772   3.652
 9276TIP3    H127705   6.024   4.824   3.666
 9276TIP3    H227706   5.885   4.835   3.607
 9277TIP3   OH227707   6.720   3.330   3.418
 9277TIP3    H127708   6.639   3.350   3.470
 9277TIP3    H227709   6.732   3.413   3.369
 9278TIP3   OH227710   5.460   4.071   3.769
 9278TIP3    H127711   5.398   4.117   3.710
 9278TIP3    H227712   5.417   3.985   3.778
 9279TIP3   OH227713   6.517   4.697   2.966
 9279TIP3    H127714   6.525   4.794   2.953
 9279TIP3    H227715   6.610   4.669   2.954
 9280TIP3   OH227716   5.245   4.457   4.668
 9280TIP3    H127717   5.180   4.429   4.602
 9280TIP3    H227718   5.288   4.373   4.695
 9281TIP3   OH227719   5.095   4.647   4.307
 9281TIP3    H127720   5.191   4.646   4.295
 9281TIP3    H227721   5.079   4.730   4.354
 9282TIP3   OH227722   5.824   5.012   3.449
 9282TIP3    H127723   5.783   4.995   3.363
 9282TIP3    H227724   5.796   5.104   3.468
 9283TIP3   OH227725   5.264   4.865   3.829
 9283TIP3    H127726   5.312   4.854   3.914
 9283TIP3    H227727   5.203   4.789   3.834
 9284TIP3   OH227728   6.029   4.914   3.089
 9284TIP3    H127729   6.089   4.845   3.052
 9284TIP3    H227730   6.064   4.923   3.180
 9285TIP3   OH227731   6.078   4.962   3.360
 9285TIP3    H127732   5.990   4.971   3.404
 9285TIP3    H227733   6.131   4.926   3.432
 9286TIP3   OH227734   6.847   4.227   4.638
 9286TIP3    H127735   6.771   4.239   4.580
 9286TIP3    H227736   6.866   4.131   4.628
 9287TIP3   OH227737   5.847   3.461   4.444
 9287TIP3    H127738   5.757   3.431   4.420
 9287TIP3    H227739   5.824   3.545   4.489
 9288TIP3   OH227740   6.380   3.577   4.639
 9288TIP3    H127741   6.448   3.550   4.704
 9288TIP3    H227742   6.296   3.556   4.685
 9289TIP3   OH227743   6.619   4.003   4.555
 9289TIP3    H127744   6.573   4.000   4.643
 9289TIP3    H227745   6.598   4.092   4.523
 9290TIP3   OH227746   6.279   4.135   3.115
 9290TIP3    H127747   6.248   4.109   3.026
 9290TIP3    H227748   6.358   4.188   3.091
 9291TIP3   OH227749   5.992   3.512   3.416
 9291TIP3    H127750   5.962   3.511   3.508
 9291TIP3    H227751   5.956   3.427   3.384
 9292TIP3   OH227752   5.778   3.974   4.464
 9292TIP3    H127753   5.733   3.998   4.548
 9292TIP3    H227754   5.764   4.056   4.411
 9293TIP3   OH227755   5.663   3.863   3.978
 9293TIP3    H127756   5.570   3.837   3.994
 9293TIP3    H227757   5.677   3.823   3.889
 9294TIP3   OH227758   6.152   3.948   3.704
 9294TIP3    H127759   6.099   4.020   3.664
 9294TIP3    H227760   6.208   3.920   3.628
 9295TIP3   OH227761   6.331   4.232   4.793
 9295TIP3    H127762   6.305   4.159   4.854
 9295TIP3    H227763   6.426   4.241   4.815
 9296TIP3   OH227764   6.310   3.978   3.946
 9296TIP3    H127765   6.253   4.010   3.873
 9296TIP3    H227766   6.343   3.896   3.904
 9297TIP3   OH227767   5.594   4.006   4.675
 9297TIP3    H127768   5.615   4.059   4.754
 9297TIP3    H227769   5.579   3.918   4.715
 9298TIP3   OH227770   5.646   3.479   3.383
 9298TIP3    H127771   5.639   3.481   3.480
 9298TIP3    H227772   5.569   3.535   3.358
 9299TIP3   OH227773   5.191   3.529   4.252
 9299TIP3    H127774   5.266   3.560   4.306
 9299TIP3    H227775   5.233   3.495   4.172
 9300TIP3   OH227776   5.168   3.510   3.773
 9300TIP3    H127777   5.211   3.550   3.695
 9300TIP3    H227778   5.106   3.582   3.796
 9301TIP3   OH227779   6.316   4.226   4.370
 9301TIP3    H127780   6.351   4.155   4.312
 9301TIP3    H227781   6.293   4.173   4.449
 9302TIP3   OH227782   5.987   3.685   4.040
 9302TIP3    H127783   5.905   3.683   4.094
 9302TIP3    H227784   6.056   3.686   4.109
 9303TIP3   OH227785   5.424   3.740   4.049
 9303TIP3    H127786   5.330   3.747   4.022
 9303TIP3    H227787   5.448   3.649   4.024
 9304TIP3   OH227788   5.697   3.737   3.736
 9304TIP3    H127789   5.791   3.754   3.715
 9304TIP3    H227790   5.650   3.761   3.652
 9305TIP3   OH227791   6.481   3.762   4.242
 9305TIP3    H127792   6.445   3.773   4.332
 9305TIP3    H227793   6.417   3.700   4.203
 9306TIP3   OH227794   5.534   3.768   3.516
 9306TIP3    H127795   5.461   3.726   3.466
 9306TIP3    H227796   5.585   3.806   3.441
 9307TIP3   OH227797   6.074   4.011   4.136
 9307TIP3    H127798   6.146   3.973   4.084
 9307TIP3    H227799   6.088   3.969   4.223
 9308TIP3   OH227800   5.598   3.501   4.013
 9308TIP3    H127801   5.566   3.420   4.058
 9308TIP3    H227802   5.652   3.466   3.941
 9309TIP3   OH227803   6.051   3.906   4.429
 9309TIP3    H127804   5.961   3.943   4.442
 9309TIP3    H227805   6.109   3.965   4.479
 9310TIP3   OH227806   5.787   4.301   3.522
 9310TIP3    H127807   5.714   4.236   3.511
 9310TIP3    H227808   5.770   4.334   3.614
 9311TIP3   OH227809   6.688   4.534   4.162
 9311TIP3    H127810   6.717   4.592   4.088
 9311TIP3    H227811   6.603   4.500   4.129
 9312TIP3   OH227812   6.246   3.613   3.383
 9312TIP3    H127813   6.149   3.600   3.389
 9312TIP3    H227814   6.258   3.708   3.404
 9313TIP3   OH227815   6.316   3.859   3.485
 9313TIP3    H127816   6.412   3.866   3.501
 9313TIP3    H227817   6.297   3.939   3.432
 9314TIP3   OH227818   5.485   4.327   4.199
 9314TIP3    H127819   5.517   4.296   4.112
 9314TIP3    H227820   5.507   4.252   4.256
 9315TIP3   OH227821   5.932   4.450   3.342
 9315TIP3    H127822   5.886   4.537   3.348
 9315TIP3    H227823   5.878   4.395   3.402
 9316TIP3   OH227824   5.352   4.243   4.813
 9316TIP3    H127825   5.373   4.220   4.905
 9316TIP3    H227826   5.284   4.178   4.791
 9317TIP3   OH227827   6.077   4.334   4.843
 9317TIP3    H127828   6.035   4.297   4.764
 9317TIP3    H227829   6.170   4.332   4.815
 9318TIP3   OH227830   6.758   3.948   3.323
 9318TIP3    H127831   6.695   3.903   3.262
 9318TIP3    H227832   6.755   4.037   3.282
 9319TIP3   OH227833   6.455   4.769   3.230
 9319TIP3    H127834   6.433   4.698   3.292
 9319TIP3    H227835   6.469   4.722   3.146
 9320TIP3   OH227836   6.445   4.399   4.077
 9320TIP3    H127837   6.353   4.367   4.082
 9320TIP3    H227838   6.488   4.324   4.030
 9321TIP3   OH227839   5.580   4.627   3.830
 9321TIP3    H127840   5.585   4.707   3.774
 9321TIP3    H227841   5.485   4.610   3.827
 9322TIP3   OH227842   5.143   3.930   3.525
 9322TIP3    H127843   5.189   4.014   3.544
 9322TIP3    H227844   5.065   3.937   3.585
 9323TIP3   OH227845   5.720   4.393   3.770
 9323TIP3    H127846   5.687   4.483   3.787
 9323TIP3    H227847   5.681   4.344   3.844
 9324TIP3   OH227848   5.502   4.863   3.678
 9324TIP3    H127849   5.414   4.873   3.720
 9324TIP3    H227850   5.534   4.956   3.679
 9325TIP3   OH227851   6.243   4.602   4.253
 9325TIP3    H127852   6.268   4.589   4.346
 9325TIP3    H227853   6.315   4.554   4.208
 9326TIP3   OH227854   6.210   4.492   3.133
 9326TIP3    H127855   6.263   4.469   3.213
 9326TIP3    H227856   6.121   4.471   3.164
 9327TIP3   OH227857   6.551   4.972   2.953
 9327TIP3    H127858   6.589   5.044   2.900
 9327TIP3    H227859   6.471   5.019   2.987
 9328TIP3   OH227860   5.571   3.748   4.819
 9328TIP3    H127861   5.475   3.755   4.835
 9328TIP3    H227862   5.599   3.688   4.890
 9329TIP3   OH227863   6.370   4.430   3.352
 9329TIP3    H127864   6.362   4.363   3.423
 9329TIP3    H227865   6.467   4.430   3.338
 9330TIP3   OH227866   5.290   4.846   4.460
 9330TIP3    H127867   5.323   4.755   4.465
 9330TIP3    H227868   5.280   4.865   4.555
 9331TIP3   OH227869   5.579   4.477   3.132
 9331TIP3    H127870   5.593   4.386   3.102
 9331TIP3    H227871   5.560   4.463   3.227
 9332TIP3   OH227872   5.525   4.481   3.406
 9332TIP3    H127873   5.598   4.457   3.464
 9332TIP3    H227874   5.528   4.579   3.410
 9333TIP3   OH227875   5.261   4.177   3.607
 9333TIP3    H127876   5.195   4.221   3.664
 9333TIP3    H227877   5.276   4.246   3.540
 9334TIP3   OH227878   6.403   3.815   4.500
 9334TIP3    H127879   6.485   3.853   4.537
 9334TIP3    H227880   6.392   3.733   4.554
 9335TIP3   OH227881   6.286   3.566   3.662
 9335TIP3    H127882   6.273   3.590   3.569
 9335TIP3    H227883   6.326   3.648   3.699
 9336TIP3   OH227884   5.788   4.679   3.355
 9336TIP3    H127885   5.702   4.710   3.389
 9336TIP3    H227886   5.808   4.750   3.291
 9337TIP3   OH227887   5.978   3.741   3.766
 9337TIP3    H127888   6.043   3.812   3.747
 9337TIP3    H227889   5.984   3.736   3.863
 9338TIP3   OH227890   6.245   4.064   4.578
 9338TIP3    H127891   6.267   4.117   4.658
 9338TIP3    H227892   6.302   3.986   4.589
 9339TIP3   OH227893   6.124   3.473   3.870
 9339TIP3    H127894   6.119   3.548   3.932
 9339TIP3    H227895   6.183   3.510   3.801
 9340TIP3   OH227896   5.529   4.754   3.420
 9340TIP3    H127897   5.501   4.823   3.355
 9340TIP3    H227898   5.515   4.800   3.505
 9341TIP3   OH227899   5.634   3.467   3.660
 9341TIP3    H127900   5.629   3.559   3.695
 9341TIP3    H227901   5.730   3.451   3.669
 9342TIP3   OH227902   6.887   3.962   4.558
 9342TIP3    H127903   6.789   3.957   4.561
 9342TIP3    H227904   6.904   3.931   4.468
 9343TIP3   OH227905   6.538   4.159   3.946
 9343TIP3    H127906   6.464   4.096   3.956
 9343TIP3    H227907   6.611   4.113   3.992
 9344TIP3   OH227908   5.249   4.388   3.415
 9344TIP3    H127909   5.311   4.463   3.422
 9344TIP3    H227910   5.296   4.336   3.347
 9345TIP3   OH227911   5.196   3.660   3.546
 9345TIP3    H127912   5.195   3.758   3.542
 9345TIP3    H227913   5.110   3.639   3.507
 9346TIP3   OH227914   6.514   5.081   3.873
 9346TIP3    H127915   6.464   5.145   3.819
 9346TIP3    H227916   6.603   5.121   3.865
 9347TIP3   OH227917   5.583   3.382   4.422
 9347TIP3    H127918   5.551   3.349   4.336
 9347TIP3    H227919   5.572   3.303   4.480
 9348TIP3   OH227920   5.125   4.601   3.806
 9348TIP3    H127921   5.047   4.632   3.854
 9348TIP3    H227922   5.107   4.638   3.717
 9349TIP3   OH227923   5.742   4.683   3.047
 9349TIP3    H127924   5.686   4.610   3.084
 9349TIP3    H227925   5.816   4.631   3.012
 9350TIP3   OH227926   6.178   4.723   2.955
 9350TIP3    H127927   6.228   4.663   3.013
 9350TIP3    H227928   6.233   4.727   2.875
 9351TIP3   OH227929   5.461   4.524   5.019
 9351TIP3    H127930   5.462   4.427   5.037
 9351TIP3    H227931   5.365   4.542   5.021
 9352TIP3   OH227932   5.384   4.200   3.265
 9352TIP3    H127933   5.440   4.166   3.337
 9352TIP3    H227934   5.451   4.204   3.193
 9353TIP3   OH227935   5.892   4.395   3.072
 9353TIP3    H127936   5.895   4.410   3.169
 9353TIP3    H227937   5.891   4.297   3.069
 9354TIP3   OH227938   6.506   4.641   4.448
 9354TIP3    H127939   6.571   4.663   4.380
 9354TIP3    H227940   6.456   4.723   4.457
 9355TIP3   OH227941   5.552   4.269   5.052
 9355TIP3    H127942   5.607   4.190   5.054
 9355TIP3    H227943   5.560   4.301   5.144
 9356TIP3   OH227944   5.596   4.100   3.490
 9356TIP3    H127945   5.568   4.057   3.572
 9356TIP3    H227946   5.630   4.025   3.437
 9357TIP3   OH227947   5.862   4.150   4.706
 9357TIP3    H127948   5.821   4.231   4.739
 9357TIP3    H227949   5.915   4.185   4.630
 9358TIP3   OH227950   5.693   3.892   3.330
 9358TIP3    H127951   5.666   3.895   3.236
 9358TIP3    H227952   5.790   3.901   3.322
 9359TIP3   OH227953   6.384   4.575   4.862
 9359TIP3    H127954   6.461   4.553   4.808
 9359TIP3    H227955   6.383   4.501   4.926
 9360TIP3   OH227956   6.518   4.227   2.990
 9360TIP3    H127957   6.496   4.180   2.907
 9360TIP3    H227958   6.487   4.317   2.966
 9361TIP3   OH227959   5.984   3.949   4.847
 9361TIP3    H127960   5.987   3.868   4.793
 9361TIP3    H227961   5.942   4.013   4.785
 9362TIP3   OH227962   5.988   3.739   4.650
 9362TIP3    H127963   6.016   3.779   4.566
 9362TIP3    H227964   5.894   3.716   4.632
 9363TIP3   OH227965   6.014   4.277   4.524
 9363TIP3    H127966   6.097   4.272   4.473
 9363TIP3    H227967   5.968   4.353   4.482
 9364TIP3   OH227968   6.600   4.244   4.906
 9364TIP3    H127969   6.648   4.160   4.915
 9364TIP3    H227970   6.670   4.302   4.872
 9365TIP3   OH227971   6.643   4.496   4.636
 9365TIP3    H127972   6.586   4.550   4.577
 9365TIP3    H227973   6.731   4.517   4.599
 9366TIP3   OH227974   5.855   4.073   5.066
 9366TIP3    H127975   5.792   4.000   5.083
 9366TIP3    H227976   5.898   4.041   4.984
 9367TIP3   OH227977   6.121   3.504   4.715
 9367TIP3    H127978   6.072   3.587   4.693
 9367TIP3    H227979   6.050   3.437   4.704
 9368TIP3   OH227980   6.247   4.013   4.932
 9368TIP3    H127981   6.240   4.001   5.028
 9368TIP3    H227982   6.156   3.986   4.905
 9369TIP3   OH227983   6.486   3.958   4.787
 9369TIP3    H127984   6.411   3.960   4.849
 9369TIP3    H227985   6.560   3.927   4.844
 9370TIP3   OH227986   6.711   3.897   4.940
 9370TIP3    H127987   6.726   3.802   4.960
 9370TIP3    H227988   6.710   3.937   5.029
 9371TIP3   OH227989   5.705   3.848   5.124
 9371TIP3    H127990   5.712   3.758   5.088
 9371TIP3    H227991   5.740   3.834   5.215
 9372TIP3   OH227992   6.216   3.514   4.972
 9372TIP3    H127993   6.284   3.444   4.967
 9372TIP3    H227994   6.176   3.507   4.883
 9373TIP3   OH227995   6.280   3.728   5.133
 9373TIP3    H127996   6.258   3.657   5.068
 9373TIP3    H227997   6.203   3.788   5.125
 9374TIP3   OH227998   5.500   4.954   3.233
 9374TIP3    H127999   5.596   4.955   3.214
 9374TIP3    H228000   5.468   5.004   3.155
 9375TIP3   OH228001   4.981   4.338   3.453
 9375TIP3    H128002   5.076   4.361   3.438
 9375TIP3    H228003   4.976   4.250   3.409
 9376TIP3   OH228004   4.894   4.952   3.862
 9376TIP3    H128005   4.826   4.890   3.827
 9376TIP3    H228006   4.938   4.895   3.928
 9377TIP3   OH228007   5.031   4.807   4.049
 9377TIP3    H128008   5.017   4.731   4.107
 9377TIP3    H228009   5.084   4.865   4.107
 9378TIP3   OH228010   6.757   5.215   3.852
 9378TIP3    H128011   6.809   5.244   3.927
 9378TIP3    H228012   6.816   5.235   3.778
 9379TIP3   OH228013   6.838   4.902   4.704
 9379TIP3    H128014   6.763   4.906   4.767
 9379TIP3    H228015   6.875   4.992   4.713
 9380TIP3   OH228016   6.650   4.414   3.324
 9380TIP3    H128017   6.719   4.478   3.297
 9380TIP3    H228018   6.693   4.374   3.403
 9381TIP3   OH228019   6.777   4.280   3.526
 9381TIP3    H128020   6.713   4.240   3.588
 9381TIP3    H228021   6.844   4.320   3.587
 9382TIP3   OH228022   6.822   4.665   3.958
 9382TIP3    H128023   6.882   4.608   3.907
 9382TIP3    H228024   6.816   4.744   3.901
 9383TIP3   OH228025   6.716   4.188   3.176
 9383TIP3    H128026   6.645   4.192   3.108
 9383TIP3    H228027   6.691   4.265   3.231
 9384TIP3   OH228028   6.587   3.862   3.131
 9384TIP3    H128029   6.547   3.904   3.055
 9384TIP3    H228030   6.560   3.768   3.118
 9385TIP3   OH228031   6.592   4.136   3.676
 9385TIP3    H128032   6.602   4.040   3.672
 9385TIP3    H228033   6.580   4.153   3.772
 9386TIP3   OH228034   5.220   4.209   4.421
 9386TIP3    H128035   5.219   4.181   4.327
 9386TIP3    H228036   5.316   4.213   4.438
 9387TIP3   OH228037   6.885   4.572   4.523
 9387TIP3    H128038   6.953   4.500   4.525
 9387TIP3    H228039   6.901   4.610   4.436
 9388TIP3   OH228040   7.059   4.370   4.556
 9388TIP3    H128041   6.990   4.313   4.594
 9388TIP3    H228042   7.138   4.312   4.565
 9389TIP3   OH228043   6.532   3.595   3.117
 9389TIP3    H128044   6.608   3.566   3.171
 9389TIP3    H228045   6.460   3.536   3.145
 9390TIP3   OH228046   6.588   3.852   3.572
 9390TIP3    H128047   6.629   3.764   3.586
 9390TIP3    H228048   6.646   3.887   3.502
 9391TIP3   OH228049   6.751   4.030   4.064
 9391TIP3    H128050   6.837   4.056   4.024
 9391TIP3    H228051   6.765   4.066   4.154
 9392TIP3   OH228052   6.818   4.170   4.299
 9392TIP3    H128053   6.740   4.207   4.345
 9392TIP3    H228054   6.851   4.249   4.251
 9393TIP3   OH228055   5.438   3.899   5.097
 9393TIP3    H128056   5.536   3.890   5.098
 9393TIP3    H228057   5.412   3.815   5.138
 9394TIP3   OH228058   7.268   3.758   4.854
 9394TIP3    H128059   7.328   3.694   4.810
 9394TIP3    H228060   7.243   3.817   4.781
 9395TIP3   OH228061   6.698   3.602   3.608
 9395TIP3    H128062   6.747   3.587   3.692
 9395TIP3    H228063   6.638   3.525   3.607
 9396TIP3   OH228064   5.398   3.589   4.425
 9396TIP3    H128065   5.461   3.515   4.438
 9396TIP3    H228066   5.459   3.664   4.422
 9397TIP3   OH228067   5.203   3.863   4.502
 9397TIP3    H128068   5.251   3.858   4.417
 9397TIP3    H228069   5.226   3.952   4.531
 9398TIP3   OH228070   7.143   3.904   4.662
 9398TIP3    H128071   7.056   3.942   4.683
 9398TIP3    H228072   7.117   3.832   4.601
 9399TIP3   OH228073   6.780   3.539   3.240
 9399TIP3    H128074   6.821   3.467   3.188
 9399TIP3    H228075   6.847   3.611   3.232
 9400TIP3   OH228076   5.183   3.366   4.001
 9400TIP3    H128077   5.090   3.366   4.028
 9400TIP3    H228078   5.182   3.425   3.923
 9401TIP3   OH228079   6.341   5.069   3.507
 9401TIP3    H128080   6.393   5.054   3.426
 9401TIP3    H228081   6.396   5.133   3.555
 9402TIP3   OH228082   5.403   3.447   4.816
 9402TIP3    H128083   5.354   3.441   4.899
 9402TIP3    H228084   5.336   3.486   4.757
 9403TIP3   OH228085   7.040   3.666   4.537
 9403TIP3    H128086   6.949   3.663   4.504
 9403TIP3    H228087   7.069   3.573   4.523
 9404TIP3   OH228088   5.299   5.192   4.444
 9404TIP3    H128089   5.209   5.216   4.412
 9404TIP3    H228090   5.279   5.178   4.536
 9405TIP3   OH228091   5.539   5.147   4.320
 9405TIP3    H128092   5.450   5.163   4.359
 9405TIP3    H228093   5.522   5.175   4.228
 9406TIP3   OH228094   5.967   5.172   4.096
 9406TIP3    H128095   5.894   5.206   4.043
 9406TIP3    H228096   5.993   5.248   4.150
 9407TIP3   OH228097   5.211   4.958   4.210
 9407TIP3    H128098   5.242   4.936   4.301
 9407TIP3    H228099   5.282   4.915   4.157
 9408TIP3   OH228100   5.399   4.827   4.064
 9408TIP3    H128101   5.419   4.744   4.112
 9408TIP3    H228102   5.489   4.867   4.056
 9409TIP3   OH228103   5.659   4.927   4.061
 9409TIP3    H128104   5.705   4.843   4.045
 9409TIP3    H228105   5.701   4.958   4.142
 9410TIP3   OH228106   6.243   3.580   4.152
 9410TIP3    H128107   6.202   3.511   4.207
 9410TIP3    H228108   6.317   3.532   4.110
 9411TIP3   OH228109   6.770   3.458   4.062
 9411TIP3    H128110   6.808   3.511   3.988
 9411TIP3    H228111   6.675   3.479   4.056
 9412TIP3   OH228112   6.864   3.561   3.826
 9412TIP3    H128113   6.937   3.510   3.784
 9412TIP3    H228114   6.898   3.652   3.811
 9413TIP3   OH228115   5.496   3.289   4.173
 9413TIP3    H128116   5.403   3.256   4.173
 9413TIP3    H228117   5.545   3.204   4.170
 9414TIP3   OH228118   5.270   3.157   3.817
 9414TIP3    H128119   5.307   3.215   3.748
 9414TIP3    H228120   5.245   3.221   3.886
 9415TIP3   OH228121   5.936   3.322   4.052
 9415TIP3    H128122   5.996   3.373   3.995
 9415TIP3    H228123   5.957   3.358   4.139
 9416TIP3   OH228124   6.486   3.467   4.038
 9416TIP3    H128125   6.484   3.433   3.948
 9416TIP3    H228126   6.471   3.385   4.091
 9417TIP3   OH228127   6.515   3.388   3.598
 9417TIP3    H128128   6.428   3.431   3.607
 9417TIP3    H228129   6.499   3.304   3.646
 9418TIP3   OH228130   4.997   4.727   3.604
 9418TIP3    H128131   4.913   4.694   3.567
 9418TIP3    H228132   4.986   4.821   3.585
 9419TIP3   OH228133   5.397   3.317   3.586
 9419TIP3    H128134   5.449   3.260   3.526
 9419TIP3    H228135   5.466   3.375   3.623
 9420TIP3   OH228136   5.911   3.490   3.684
 9420TIP3    H128137   5.973   3.447   3.745
 9420TIP3    H228138   5.930   3.584   3.706
 9421TIP3   OH228139   5.770   4.920   3.184
 9421TIP3    H128140   5.858   4.943   3.147
 9421TIP3    H228141   5.748   4.845   3.124
 9422TIP3   OH228142   6.488   5.035   3.275
 9422TIP3    H128143   6.478   4.938   3.260
 9422TIP3    H228144   6.443   5.070   3.194
 9423TIP3   OH228145   5.702   3.571   5.064
 9423TIP3    H128146   5.669   3.500   5.121
 9423TIP3    H228147   5.797   3.571   5.090
 9424TIP3   OH228148   5.951   3.567   5.183
 9424TIP3    H128149   6.036   3.541   5.144
 9424TIP3    H228150   5.938   3.497   5.250
 9425TIP3   OH228151   5.073   4.752   3.241
 9425TIP3    H128152   5.075   4.786   3.331
 9425TIP3    H228153   5.163   4.713   3.230
 9426TIP3   OH228154   6.775   3.627   4.971
 9426TIP3    H128155   6.796   3.596   5.062
 9426TIP3    H228156   6.863   3.623   4.928
 9427TIP3   OH228157   7.982   4.550   3.228
 9427TIP3    H128158   7.958   4.644   3.214
 9427TIP3    H228159   7.900   4.506   3.200
 9428TIP3   OH228160   7.981   4.548   3.605
 9428TIP3    H128161   8.010   4.527   3.695
 9428TIP3    H228162   7.934   4.467   3.579
 9429TIP3   OH228163   7.281   4.448   3.973
 9429TIP3    H128164   7.315   4.384   4.038
 9429TIP3    H228165   7.352   4.514   3.974
 9430TIP3   OH228166   8.221   4.854   3.290
 9430TIP3    H128167   8.211   4.788   3.360
 9430TIP3    H228168   8.250   4.932   3.342
 9431TIP3   OH228169   7.245   4.855   3.695
 9431TIP3    H128170   7.238   4.758   3.703
 9431TIP3    H228171   7.341   4.867   3.709
 9432TIP3   OH228172   6.958   4.060   3.487
 9432TIP3    H128173   6.912   4.145   3.501
 9432TIP3    H228174   6.885   4.007   3.449
 9433TIP3   OH228175   7.016   4.347   3.652
 9433TIP3    H128176   7.066   4.273   3.693
 9433TIP3    H228177   7.080   4.382   3.589
 9434TIP3   OH228178   7.866   5.316   3.301
 9434TIP3    H128179   7.919   5.241   3.266
 9434TIP3    H228180   7.863   5.297   3.396
 9435TIP3   OH228181   7.779   4.775   3.655
 9435TIP3    H128182   7.821   4.701   3.608
 9435TIP3    H228183   7.861   4.823   3.683
 9436TIP3   OH228184   8.785   4.102   3.653
 9436TIP3    H128185   8.813   4.181   3.704
 9436TIP3    H228186   8.809   4.130   3.563
 9437TIP3   OH228187   8.191   4.280   3.692
 9437TIP3    H128188   8.233   4.195   3.713
 9437TIP3    H228189   8.161   4.265   3.601
 9438TIP3   OH228190   7.528   3.938   3.657
 9438TIP3    H128191   7.507   4.012   3.595
 9438TIP3    H228192   7.478   3.866   3.612
 9439TIP3   OH228193   8.222   4.026   3.282
 9439TIP3    H128194   8.295   4.012   3.346
 9439TIP3    H228195   8.272   4.067   3.208
 9440TIP3   OH228196   7.161   4.141   3.763
 9440TIP3    H128197   7.245   4.123   3.811
 9440TIP3    H228198   7.175   4.086   3.684
 9441TIP3   OH228199   7.605   4.339   3.550
 9441TIP3    H128200   7.698   4.313   3.568
 9441TIP3    H228201   7.565   4.255   3.522
 9442TIP3   OH228202   8.856   4.299   3.831
 9442TIP3    H128203   8.778   4.355   3.813
 9442TIP3    H228204   8.888   4.338   3.914
 9443TIP3   OH228205   7.525   3.921   4.090
 9443TIP3    H128206   7.466   3.960   4.023
 9443TIP3    H228207   7.474   3.941   4.171
 9444TIP3   OH228208   7.880   4.776   3.095
 9444TIP3    H128209   7.828   4.751   3.018
 9444TIP3    H228210   7.836   4.860   3.121
 9445TIP3   OH228211   7.625   4.699   3.891
 9445TIP3    H128212   7.558   4.760   3.929
 9445TIP3    H228213   7.670   4.756   3.826
 9446TIP3   OH228214   8.439   4.028   3.450
 9446TIP3    H128215   8.418   3.989   3.536
 9446TIP3    H228216   8.489   4.108   3.476
 9447TIP3   OH228217   7.395   4.037   3.875
 9447TIP3    H128218   7.455   4.112   3.898
 9447TIP3    H228219   7.445   3.997   3.801
 9448TIP3   OH228220   7.435   4.883   3.983
 9448TIP3    H128221   7.458   4.976   3.968
 9448TIP3    H228222   7.397   4.888   4.072
 9449TIP3   OH228223   6.856   4.580   3.220
 9449TIP3    H128224   6.814   4.608   3.137
 9449TIP3    H228225   6.885   4.666   3.257
 9450TIP3   OH228226   8.291   5.091   3.452
 9450TIP3    H128227   8.203   5.086   3.496
 9450TIP3    H228228   8.286   5.181   3.414
 9451TIP3   OH228229   8.584   3.991   3.816
 9451TIP3    H128230   8.499   4.033   3.796
 9451TIP3    H228231   8.643   4.030   3.749
 9452TIP3   OH228232   7.884   3.644   3.803
 9452TIP3    H128233   7.871   3.549   3.821
 9452TIP3    H228234   7.807   3.682   3.849
 9453TIP3   OH228235   8.000   5.141   3.133
 9453TIP3    H128236   8.053   5.062   3.111
 9453TIP3    H228237   8.057   5.210   3.092
 9454TIP3   OH228238   8.144   4.926   3.035
 9454TIP3    H128239   8.089   4.851   3.009
 9454TIP3    H228240   8.178   4.895   3.122
 9455TIP3   OH228241   8.515   5.014   3.805
 9455TIP3    H128242   8.513   4.938   3.743
 9455TIP3    H228243   8.509   5.090   3.744
 9456TIP3   OH228244   7.809   4.400   3.057
 9456TIP3    H128245   7.729   4.453   3.038
 9456TIP3    H228246   7.856   4.404   2.972
 9457TIP3   OH228247   7.770   4.187   2.778
 9457TIP3    H128248   7.837   4.237   2.828
 9457TIP3    H228249   7.828   4.124   2.731
 9458TIP3   OH228250   8.714   4.638   3.642
 9458TIP3    H128251   8.635   4.695   3.653
 9458TIP3    H228252   8.747   4.670   3.555
 9459TIP3   OH228253   8.159   4.485   3.032
 9459TIP3    H128254   8.103   4.511   3.109
 9459TIP3    H228255   8.242   4.461   3.078
 9460TIP3   OH228256   8.394   4.527   3.942
 9460TIP3    H128257   8.396   4.610   3.994
 9460TIP3    H228258   8.309   4.537   3.896
 9461TIP3   OH228259   7.392   4.485   3.447
 9461TIP3    H128260   7.351   4.427   3.379
 9461TIP3    H228261   7.470   4.432   3.475
 9462TIP3   OH228262   7.526   4.901   3.594
 9462TIP3    H128263   7.503   4.848   3.517
 9462TIP3    H228264   7.615   4.867   3.616
 9463TIP3   OH228265   7.532   4.456   3.800
 9463TIP3    H128266   7.566   4.442   3.710
 9463TIP3    H228267   7.571   4.543   3.825
 9464TIP3   OH228268   8.053   5.091   3.579
 9464TIP3    H128269   8.038   5.174   3.629
 9464TIP3    H228270   8.037   5.022   3.646
 9465TIP3   OH228271   8.004   4.341   2.858
 9465TIP3    H128272   8.060   4.403   2.912
 9465TIP3    H228273   8.029   4.368   2.767
 9466TIP3   OH228274   7.416   4.565   4.224
 9466TIP3    H128275   7.427   4.651   4.272
 9466TIP3    H228276   7.319   4.558   4.229
 9467TIP3   OH228277   7.742   5.025   3.130
 9467TIP3    H128278   7.819   5.079   3.156
 9467TIP3    H228279   7.679   5.091   3.099
 9468TIP3   OH228280   8.513   3.589   2.908
 9468TIP3    H128281   8.431   3.607   2.959
 9468TIP3    H228282   8.525   3.674   2.860
 9469TIP3   OH228283   7.259   4.325   3.250
 9469TIP3    H128284   7.194   4.373   3.195
 9469TIP3    H228285   7.212   4.243   3.267
 9470TIP3   OH228286   8.313   4.953   2.449
 9470TIP3    H128287   8.321   5.051   2.440
 9470TIP3    H228288   8.406   4.926   2.440
 9471TIP3   OH228289   7.028   4.710   4.159
 9471TIP3    H128290   6.975   4.676   4.086
 9471TIP3    H228291   7.079   4.632   4.190
 9472TIP3   OH228292   6.894   4.902   3.796
 9472TIP3    H128293   6.990   4.894   3.783
 9472TIP3    H228294   6.890   4.983   3.849
 9473TIP3   OH228295   7.861   5.139   4.001
 9473TIP3    H128296   7.874   5.234   4.018
 9473TIP3    H228297   7.764   5.139   4.011
 9474TIP3   OH228298   7.622   5.272   2.933
 9474TIP3    H128299   7.575   5.254   2.850
 9474TIP3    H228300   7.590   5.361   2.957
 9475TIP3   OH228301   7.061   5.120   3.317
 9475TIP3    H128302   7.110   5.111   3.401
 9475TIP3    H228303   6.999   5.047   3.325
 9476TIP3   OH228304   7.826   5.171   2.576
 9476TIP3    H128305   7.885   5.101   2.541
 9476TIP3    H228306   7.858   5.181   2.668
 9477TIP3   OH228307   7.874   5.218   2.846
 9477TIP3    H128308   7.786   5.228   2.889
 9477TIP3    H228309   7.926   5.181   2.919
 9478TIP3   OH228310   8.650   4.485   4.125
 9478TIP3    H128311   8.571   4.503   4.073
 9478TIP3    H228312   8.661   4.389   4.114
 9479TIP3   OH228313   7.644   3.717   3.931
 9479TIP3    H128314   7.553   3.688   3.908
 9479TIP3    H228315   7.622   3.801   3.975
 9480TIP3   OH228316   8.177   3.831   4.126
 9480TIP3    H128317   8.244   3.809   4.193
 9480TIP3    H228318   8.092   3.814   4.172
 9481TIP3   OH228319   8.414   4.261   4.041
 9481TIP3    H128320   8.370   4.258   4.128
 9481TIP3    H228321   8.394   4.351   4.010
 9482TIP3   OH228322   8.078   4.388   2.601
 9482TIP3    H128323   8.044   4.365   2.513
 9482TIP3    H228324   8.150   4.449   2.579
 9483TIP3   OH228325   7.792   3.766   2.903
 9483TIP3    H128326   7.759   3.766   2.995
 9483TIP3    H228327   7.750   3.684   2.871
 9484TIP3   OH228328   7.573   4.232   3.949
 9484TIP3    H128329   7.526   4.256   4.031
 9484TIP3    H228330   7.559   4.314   3.896
 9485TIP3   OH228331   7.460   4.117   3.465
 9485TIP3    H128332   7.366   4.093   3.482
 9485TIP3    H228333   7.472   4.077   3.376
 9486TIP3   OH228334   7.949   4.204   3.190
 9486TIP3    H128335   7.894   4.276   3.152
 9486TIP3    H228336   8.002   4.179   3.113
 9487TIP3   OH228337   8.124   4.483   4.276
 9487TIP3    H128338   8.103   4.412   4.340
 9487TIP3    H228339   8.216   4.503   4.300
 9488TIP3   OH228340   8.107   4.233   3.434
 9488TIP3    H128341   8.049   4.269   3.364
 9488TIP3    H228342   8.136   4.151   3.390
 9489TIP3   OH228343   7.393   4.263   4.161
 9489TIP3    H128344   7.421   4.330   4.224
 9489TIP3    H228345   7.385   4.183   4.216
 9490TIP3   OH228346   7.445   3.739   2.870
 9490TIP3    H128347   7.436   3.737   2.967
 9490TIP3    H228348   7.366   3.790   2.845
 9491TIP3   OH228349   6.987   3.785   3.741
 9491TIP3    H128350   7.062   3.817   3.794
 9491TIP3    H228351   7.028   3.754   3.659
 9492TIP3   OH228352   6.964   3.766   3.260
 9492TIP3    H128353   7.008   3.806   3.182
 9492TIP3    H228354   6.902   3.839   3.282
 9493TIP3   OH228355   8.111   4.481   3.854
 9493TIP3    H128356   8.148   4.409   3.798
 9493TIP3    H228357   8.087   4.431   3.934
 9494TIP3   OH228358   7.783   3.937   3.527
 9494TIP3    H128359   7.700   3.939   3.579
 9494TIP3    H228360   7.850   3.947   3.596
 9495TIP3   OH228361   7.220   3.997   3.535
 9495TIP3    H128362   7.126   4.004   3.509
 9495TIP3    H228363   7.243   3.905   3.511
 9496TIP3   OH228364   7.493   3.992   3.222
 9496TIP3    H128365   7.586   4.011   3.201
 9496TIP3    H228366   7.445   4.018   3.140
 9497TIP3   OH228367   8.276   4.015   3.721
 9497TIP3    H128368   8.248   4.028   3.815
 9497TIP3    H228369   8.206   3.955   3.690
 9498TIP3   OH228370   7.330   4.024   3.003
 9498TIP3    H128371   7.256   3.982   2.955
 9498TIP3    H228372   7.381   4.061   2.928
 9499TIP3   OH228373   8.443   5.713   3.944
 9499TIP3    H128374   8.448   5.731   3.849
 9499TIP3    H228375   8.525   5.755   3.977
 9500TIP3   OH228376   7.417   4.792   4.378
 9500TIP3    H128377   7.490   4.844   4.417
 9500TIP3    H228378   7.341   4.828   4.426
 9501TIP3   OH228379   7.869   4.265   3.622
 9501TIP3    H128380   7.946   4.230   3.574
 9501TIP3    H228381   7.882   4.231   3.712
 9502TIP3   OH228382   7.394   3.758   3.500
 9502TIP3    H128383   7.362   3.677   3.545
 9502TIP3    H228384   7.446   3.722   3.427
 9503TIP3   OH228385   7.846   4.163   3.918
 9503TIP3    H128386   7.758   4.203   3.929
 9503TIP3    H228387   7.905   4.224   3.967
 9504TIP3   OH228388   7.585   4.557   3.009
 9504TIP3    H128389   7.511   4.493   2.998
 9504TIP3    H228390   7.566   4.591   3.100
 9505TIP3   OH228391   8.488   4.791   3.639
 9505TIP3    H128392   8.511   4.841   3.558
 9505TIP3    H228393   8.399   4.756   3.617
 9506TIP3   OH228394   8.041   3.872   2.863
 9506TIP3    H128395   7.945   3.855   2.875
 9506TIP3    H228396   8.052   3.965   2.891
 9507TIP3   OH228397   7.973   4.877   4.009
 9507TIP3    H128398   8.008   4.863   4.098
 9507TIP3    H228399   7.938   4.968   4.014
 9508TIP3   OH228400   8.112   4.114   2.970
 9508TIP3    H128401   8.207   4.124   2.990
 9508TIP3    H228402   8.092   4.196   2.921
 9509TIP3   OH228403   7.269   4.571   3.686
 9509TIP3    H128404   7.313   4.548   3.602
 9509TIP3    H228405   7.315   4.514   3.750
 9510TIP3   OH228406   7.727   4.706   2.827
 9510TIP3    H128407   7.681   4.793   2.835
 9510TIP3    H228408   7.673   4.651   2.888
 9511TIP3   OH228409   7.149   4.504   4.302
 9511TIP3    H128410   7.181   4.489   4.393
 9511TIP3    H228411   7.086   4.431   4.288
 9512TIP3   OH228412   7.881   4.609   4.321
 9512TIP3    H128413   7.824   4.554   4.265
 9512TIP3    H228414   7.970   4.581   4.291
 9513TIP3   OH228415   8.140   5.127   3.906
 9513TIP3    H128416   8.044   5.132   3.920
 9513TIP3    H228417   8.172   5.184   3.979
 9514TIP3   OH228418   8.558   4.200   2.804
 9514TIP3    H128419   8.492   4.159   2.744
 9514TIP3    H228420   8.551   4.292   2.771
 9515TIP3   OH228421   8.778   5.035   3.897
 9515TIP3    H128422   8.685   5.066   3.890
 9515TIP3    H228423   8.810   5.055   3.807
 9516TIP3   OH228424   8.250   5.026   2.716
 9516TIP3    H128425   8.227   4.960   2.783
 9516TIP3    H228426   8.263   4.973   2.635
 9517TIP3   OH228427   8.248   4.656   3.557
 9517TIP3    H128428   8.155   4.630   3.571
 9517TIP3    H228429   8.282   4.576   3.512
 9518TIP3   OH228430   7.374   4.878   3.303
 9518TIP3    H128431   7.377   4.963   3.255
 9518TIP3    H228432   7.279   4.870   3.321
 9519TIP3   OH228433   6.939   4.187   3.012
 9519TIP3    H128434   6.985   4.271   3.031
 9519TIP3    H228435   6.861   4.194   3.072
 9520TIP3   OH228436   7.518   4.648   3.254
 9520TIP3    H128437   7.481   4.738   3.270
 9520TIP3    H228438   7.481   4.599   3.330
 9521TIP3   OH228439   7.296   5.121   3.162
 9521TIP3    H128440   7.210   5.128   3.207
 9521TIP3    H228441   7.327   5.214   3.166
 9522TIP3   OH228442   8.033   4.857   3.739
 9522TIP3    H128443   8.023   4.861   3.836
 9522TIP3    H228444   8.120   4.816   3.730
 9523TIP3   OH228445   8.005   4.749   2.618
 9523TIP3    H128446   8.058   4.726   2.698
 9523TIP3    H228447   7.916   4.728   2.650
 9524TIP3   OH228448   8.282   5.394   3.787
 9524TIP3    H128449   8.203   5.339   3.777
 9524TIP3    H228450   8.268   5.460   3.716
 9525TIP3   OH228451   8.348   5.230   2.440
 9525TIP3    H128452   8.389   5.305   2.394
 9525TIP3    H228453   8.267   5.274   2.473
 9526TIP3   OH228454   7.370   4.003   4.308
 9526TIP3    H128455   7.274   4.010   4.324
 9526TIP3    H228456   7.398   3.944   4.380
 9527TIP3   OH228457   8.166   4.680   2.831
 9527TIP3    H128458   8.156   4.620   2.908
 9527TIP3    H228459   8.263   4.685   2.825
 9528TIP3   OH228460   7.082   5.090   3.944
 9528TIP3    H128461   7.129   5.008   3.968
 9528TIP3    H228462   7.108   5.146   4.018
 9529TIP3   OH228463   7.376   4.734   2.618
 9529TIP3    H128464   7.388   4.642   2.589
 9529TIP3    H228465   7.358   4.722   2.714
 9530TIP3   OH228466   7.322   4.738   2.891
 9530TIP3    H128467   7.388   4.712   2.956
 9530TIP3    H228468   7.324   4.836   2.897
 9531TIP3   OH228469   7.057   4.433   3.094
 9531TIP3    H128470   6.991   4.478   3.152
 9531TIP3    H228471   7.071   4.503   3.028
 9532TIP3   OH228472   8.207   4.064   3.980
 9532TIP3    H128473   8.280   4.111   4.025
 9532TIP3    H228474   8.191   3.988   4.039
 9533TIP3   OH228475   8.089   3.820   3.147
 9533TIP3    H128476   8.069   3.849   3.056
 9533TIP3    H228477   8.124   3.903   3.187
 9534TIP3   OH228478   7.584   4.936   2.838
 9534TIP3    H128479   7.499   4.964   2.876
 9534TIP3    H228480   7.603   5.011   2.780
 9535TIP3   OH228481   7.777   3.997   3.253
 9535TIP3    H128482   7.840   4.071   3.236
 9535TIP3    H228483   7.779   3.992   3.351
 9536TIP3   OH228484   8.042   4.318   4.064
 9536TIP3    H128485   8.059   4.377   4.140
 9536TIP3    H228486   8.102   4.244   4.084
 9537TIP3   OH228487   7.921   3.730   3.358
 9537TIP3    H128488   7.911   3.806   3.419
 9537TIP3    H228489   7.980   3.769   3.290
 9538TIP3   OH228490   7.326   5.011   2.907
 9538TIP3    H128491   7.297   5.081   2.844
 9538TIP3    H228492   7.311   5.055   2.993
 9539TIP3   OH228493   7.430   3.723   3.147
 9539TIP3    H128494   7.426   3.815   3.181
 9539TIP3    H228495   7.526   3.706   3.155
 9540TIP3   OH228496   8.682   4.216   4.048
 9540TIP3    H128497   8.583   4.213   4.047
 9540TIP3    H228498   8.701   4.196   3.955
 9541TIP3   OH228499   8.335   4.412   3.428
 9541TIP3    H128500   8.259   4.355   3.447
 9541TIP3    H228501   8.407   4.369   3.478
 9542TIP3   OH228502   7.045   4.645   2.902
 9542TIP3    H128503   7.107   4.719   2.911
 9542TIP3    H228504   7.093   4.593   2.834
 9543TIP3   OH228505   6.993   3.917   3.033
 9543TIP3    H128506   6.991   4.015   3.029
 9543TIP3    H228507   6.907   3.895   2.994
 9544TIP3   OH228508   8.302   5.364   3.379
 9544TIP3    H128509   8.261   5.412   3.304
 9544TIP3    H228510   8.397   5.386   3.363
 9545TIP3   OH228511   7.379   3.638   3.909
 9545TIP3    H128512   7.347   3.605   3.822
 9545TIP3    H228513   7.368   3.559   3.966
 9546TIP3   OH228514   6.919   4.854   3.291
 9546TIP3    H128515   6.844   4.888   3.342
 9546TIP3    H228516   6.901   4.894   3.204
 9547TIP3   OH228517   7.538   4.939   2.532
 9547TIP3    H128518   7.480   4.869   2.572
 9547TIP3    H228519   7.612   4.885   2.502
 9548TIP3   OH228520   8.196   5.270   4.136
 9548TIP3    H128521   8.189   5.199   4.203
 9548TIP3    H228522   8.275   5.319   4.167
 9549TIP3   OH228523   7.975   4.980   2.443
 9549TIP3    H128524   8.020   4.918   2.503
 9549TIP3    H228525   8.035   4.982   2.366
 9550TIP3   OH228526   7.191   4.798   4.549
 9550TIP3    H128527   7.239   4.714   4.557
 9550TIP3    H228528   7.108   4.770   4.510
 9551TIP3   OH228529   7.181   4.456   2.751
 9551TIP3    H128530   7.236   4.423   2.824
 9551TIP3    H228531   7.249   4.461   2.680
 9552TIP3   OH228532   7.806   4.881   4.330
 9552TIP3    H128533   7.772   4.884   4.240
 9552TIP3    H228534   7.847   4.792   4.334
 9553TIP3   OH228535   7.690   4.653   2.558
 9553TIP3    H128536   7.691   4.667   2.655
 9553TIP3    H228537   7.686   4.555   2.554
 9554TIP3   OH228538   8.302   4.893   3.936
 9554TIP3    H128539   8.379   4.938   3.894
 9554TIP3    H228540   8.235   4.963   3.928
 9555TIP3   OH228541   7.319   4.523   4.545
 9555TIP3    H128542   7.404   4.487   4.516
 9555TIP3    H228543   7.345   4.564   4.630
 9556TIP3   OH228544   7.392   4.357   2.976
 9556TIP3    H128545   7.363   4.318   3.060
 9556TIP3    H228546   7.425   4.280   2.926
 9557TIP3   OH228547   7.657   4.419   4.200
 9557TIP3    H128548   7.582   4.482   4.208
 9557TIP3    H228549   7.705   4.454   4.122
 9558TIP3   OH228550   7.489   4.148   2.817
 9558TIP3    H128551   7.461   4.151   2.723
 9558TIP3    H228552   7.586   4.159   2.808
 9559TIP3   OH228553   8.168   4.816   4.335
 9559TIP3    H128554   8.255   4.811   4.293
 9559TIP3    H228555   8.177   4.754   4.409
 9560TIP3   OH228556   8.320   4.484   2.473
 9560TIP3    H128557   8.289   4.438   2.393
 9560TIP3    H228558   8.286   4.575   2.453
 9561TIP3   OH228559   7.780   4.209   4.332
 9561TIP3    H128560   7.782   4.130   4.275
 9561TIP3    H228561   7.738   4.276   4.273
 9562TIP3   OH228562   7.784   3.993   4.135
 9562TIP3    H128563   7.811   4.039   4.053
 9562TIP3    H228564   7.690   3.973   4.117
 9563TIP3   OH228565   7.813   4.531   4.006
 9563TIP3    H128566   7.897   4.544   3.960
 9563TIP3    H228567   7.757   4.602   3.967
 9564TIP3   OH228568   8.395   4.500   4.392
 9564TIP3    H128569   8.449   4.420   4.404
 9564TIP3    H228570   8.461   4.563   4.359
 9565TIP3   OH228571   8.433   4.749   4.125
 9565TIP3    H128572   8.376   4.804   4.066
 9565TIP3    H228573   8.521   4.771   4.086
 9566TIP3   OH228574   7.657   4.325   4.559
 9566TIP3    H128575   7.588   4.257   4.571
 9566TIP3    H228576   7.694   4.300   4.472
 9567TIP3   OH228577   7.917   3.760   4.201
 9567TIP3    H128578   7.869   3.843   4.180
 9567TIP3    H228579   7.845   3.694   4.191
 9568TIP3   OH228580   8.044   4.266   4.419
 9568TIP3    H128581   8.037   4.258   4.516
 9568TIP3    H228582   7.953   4.241   4.394
 9569TIP3   OH228583   8.281   4.208   4.271
 9569TIP3    H128584   8.207   4.216   4.334
 9569TIP3    H228585   8.355   4.182   4.330
 9570TIP3   OH228586   8.507   4.152   4.426
 9570TIP3    H128587   8.521   4.058   4.448
 9570TIP3    H228588   8.505   4.195   4.514
 9571TIP3   OH228589   7.496   4.105   4.611
 9571TIP3    H128590   7.509   4.016   4.575
 9571TIP3    H228591   7.533   4.094   4.701
 9572TIP3   OH228592   8.011   3.769   4.459
 9572TIP3    H128593   8.080   3.700   4.454
 9572TIP3    H228594   7.972   3.763   4.370
 9573TIP3   OH228595   8.075   3.984   4.621
 9573TIP3    H128596   8.052   3.915   4.555
 9573TIP3    H228597   7.999   4.045   4.614
 9574TIP3   OH228598   7.296   5.214   2.719
 9574TIP3    H128599   7.392   5.212   2.700
 9574TIP3    H228600   7.265   5.262   2.640
 9575TIP3   OH228601   6.777   4.595   2.937
 9575TIP3    H128602   6.872   4.618   2.924
 9575TIP3    H228603   6.773   4.507   2.895
 9576TIP3   OH228604   6.690   5.208   3.349
 9576TIP3    H128605   6.622   5.146   3.315
 9576TIP3    H228606   6.734   5.152   3.416
 9577TIP3   OH228607   6.827   5.061   3.534
 9577TIP3    H128608   6.816   4.987   3.595
 9577TIP3    H228609   6.882   5.120   3.589
 9578TIP3   OH228610   8.552   5.463   3.335
 9578TIP3    H128611   8.578   5.488   3.426
 9578TIP3    H228612   8.618   5.510   3.282
 9579TIP3   OH228613   8.592   5.480   3.615
 9579TIP3    H128614   8.552   5.391   3.622
 9579TIP3    H228615   8.679   5.462   3.656
 9580TIP3   OH228616   8.632   5.153   4.195
 9580TIP3    H128617   8.557   5.166   4.256
 9580TIP3    H228618   8.670   5.243   4.190
 9581TIP3   OH228619   8.450   4.668   2.809
 9581TIP3    H128620   8.517   4.735   2.786
 9581TIP3    H228621   8.489   4.630   2.891
 9582TIP3   OH228622   8.574   4.534   3.013
 9582TIP3    H128623   8.509   4.496   3.075
 9582TIP3    H228624   8.639   4.577   3.073
 9583TIP3   OH228625   8.618   4.923   3.440
 9583TIP3    H128626   8.683   4.870   3.391
 9583TIP3    H228627   8.612   5.004   3.387
 9584TIP3   OH228628   8.460   5.229   3.639
 9584TIP3    H128629   8.394   5.272   3.697
 9584TIP3    H228630   8.405   5.180   3.576
 9585TIP3   OH228631   8.514   4.442   2.661
 9585TIP3    H128632   8.442   4.450   2.594
 9585TIP3    H228633   8.490   4.519   2.718
 9586TIP3   OH228634   8.391   4.114   2.610
 9586TIP3    H128635   8.337   4.162   2.546
 9586TIP3    H228636   8.359   4.022   2.598
 9587TIP3   OH228637   8.390   4.392   3.162
 9587TIP3    H128638   8.397   4.295   3.164
 9587TIP3    H228639   8.375   4.413   3.257
 9588TIP3   OH228640   7.017   4.465   3.909
 9588TIP3    H128641   7.016   4.440   3.814
 9588TIP3    H228642   7.114   4.469   3.925
 9589TIP3   OH228643   8.673   4.811   4.017
 9589TIP3    H128644   8.751   4.752   4.009
 9589TIP3    H228645   8.702   4.888   3.962
 9590TIP3   OH228646   8.864   4.624   4.037
 9590TIP3    H128647   8.791   4.574   4.080
 9590TIP3    H228648   8.938   4.561   4.050
 9591TIP3   OH228649   8.329   3.847   2.598
 9591TIP3    H128650   8.399   3.822   2.662
 9591TIP3    H228651   8.251   3.796   2.628
 9592TIP3   OH228652   8.383   4.107   3.059
 9592TIP3    H128653   8.425   4.019   3.073
 9592TIP3    H228654   8.442   4.144   2.993
 9593TIP3   OH228655   8.546   4.285   3.551
 9593TIP3    H128656   8.633   4.312   3.512
 9593TIP3    H228657   8.557   4.323   3.640
 9594TIP3   OH228658   8.611   4.427   3.785
 9594TIP3    H128659   8.534   4.463   3.834
 9594TIP3    H228660   8.644   4.507   3.739
 9595TIP3   OH228661   7.228   4.154   4.578
 9595TIP3    H128662   7.326   4.152   4.581
 9595TIP3    H228663   7.207   4.071   4.625
 9596TIP3   OH228664   9.066   4.017   4.342
 9596TIP3    H128665   9.125   3.952   4.298
 9596TIP3    H228666   9.042   4.076   4.268
 9597TIP3   OH228667   8.498   3.857   3.091
 9597TIP3    H128668   8.543   3.845   3.178
 9597TIP3    H228669   8.433   3.784   3.094
 9598TIP3   OH228670   7.194   3.845   3.914
 9598TIP3    H128671   7.258   3.772   3.925
 9598TIP3    H228672   7.254   3.922   3.909
 9599TIP3   OH228673   6.998   4.120   3.988
 9599TIP3    H128674   7.047   4.114   3.904
 9599TIP3    H228675   7.023   4.208   4.018
 9600TIP3   OH228676   8.936   4.164   4.155
 9600TIP3    H128677   8.846   4.198   4.168
 9600TIP3    H228678   8.919   4.093   4.091
 9601TIP3   OH228679   8.573   3.796   2.728
 9601TIP3    H128680   8.615   3.723   2.677
 9601TIP3    H228681   8.640   3.867   2.722
 9602TIP3   OH228682   6.979   3.623   3.487
 9602TIP3    H128683   6.886   3.623   3.513
 9602TIP3    H228684   6.979   3.682   3.409
 9603TIP3   OH228685   8.136   5.326   2.991
 9603TIP3    H128686   8.194   5.313   2.913
 9603TIP3    H228687   8.186   5.390   3.044
 9604TIP3   OH228688   7.198   3.701   4.302
 9604TIP3    H128689   7.150   3.699   4.386
 9604TIP3    H228690   7.132   3.742   4.243
 9605TIP3   OH228691   7.881   5.407   4.064
 9605TIP3    H128692   7.916   5.408   4.155
 9605TIP3    H228693   7.945   5.461   4.015
 9606TIP3   OH228694   8.050   5.562   3.917
 9606TIP3    H128695   8.123   5.507   3.883
 9606TIP3    H228696   8.098   5.619   3.980
 9607TIP3   OH228697   8.838   3.923   4.025
 9607TIP3    H128698   8.746   3.923   3.992
 9607TIP3    H228699   8.865   3.830   4.008
 9608TIP3   OH228700   7.061   5.406   3.919
 9608TIP3    H128701   6.981   5.460   3.931
 9608TIP3    H228702   7.102   5.405   4.006
 9609TIP3   OH228703   7.774   5.446   3.577
 9609TIP3    H128704   7.688   5.461   3.536
 9609TIP3    H228705   7.778   5.519   3.642
 9610TIP3   OH228706   8.028   5.365   3.651
 9610TIP3    H128707   7.933   5.382   3.633
 9610TIP3    H228708   8.068   5.447   3.620
 9611TIP3   OH228709   8.236   5.562   3.573
 9611TIP3    H128710   8.220   5.645   3.524
 9611TIP3    H228711   8.260   5.500   3.501
 9612TIP3   OH228712   7.001   5.209   3.693
 9612TIP3    H128713   7.035   5.204   3.785
 9612TIP3    H228714   7.076   5.168   3.646
 9613TIP3   OH228715   7.198   5.085   3.549
 9613TIP3    H128716   7.214   5.000   3.597
 9613TIP3    H228717   7.289   5.122   3.545
 9614TIP3   OH228718   7.463   5.179   3.550
 9614TIP3    H128719   7.497   5.088   3.543
 9614TIP3    H228720   7.498   5.205   3.636
 9615TIP3   OH228721   8.042   3.837   3.640
 9615TIP3    H128722   7.997   3.771   3.695
 9615TIP3    H228723   8.114   3.786   3.599
 9616TIP3   OH228724   8.568   3.706   3.542
 9616TIP3    H128725   8.603   3.768   3.474
 9616TIP3    H228726   8.474   3.734   3.546
 9617TIP3   OH228727   8.662   3.818   3.309
 9617TIP3    H128728   8.737   3.770   3.270
 9617TIP3    H228729   8.693   3.911   3.298
 9618TIP3   OH228730   7.291   3.545   3.660
 9618TIP3    H128731   7.199   3.513   3.659
 9618TIP3    H228732   7.341   3.461   3.656
 9619TIP3   OH228733   7.077   3.414   3.306
 9619TIP3    H128734   7.106   3.473   3.234
 9619TIP3    H228735   7.046   3.478   3.372
 9620TIP3   OH228736   7.734   3.577   3.539
 9620TIP3    H128737   7.792   3.632   3.483
 9620TIP3    H228738   7.749   3.615   3.626
 9621TIP3   OH228739   8.285   3.723   3.525
 9621TIP3    H128740   8.271   3.692   3.435
 9621TIP3    H228741   8.268   3.641   3.578
 9622TIP3   OH228742   8.310   3.645   3.086
 9622TIP3    H128743   8.225   3.692   3.097
 9622TIP3    H228744   8.292   3.562   3.134
 9623TIP3   OH228745   6.794   4.983   3.088
 9623TIP3    H128746   6.709   4.951   3.053
 9623TIP3    H228747   6.783   5.078   3.073
 9624TIP3   OH228748   7.192   3.574   3.072
 9624TIP3    H128749   7.242   3.513   3.014
 9624TIP3    H228750   7.264   3.630   3.108
 9625TIP3   OH228751   7.708   3.747   3.169
 9625TIP3    H128752   7.767   3.703   3.232
 9625TIP3    H228753   7.726   3.841   3.194
 9626TIP3   OH228754   7.565   5.177   2.668
 9626TIP3    H128755   7.654   5.198   2.633
 9626TIP3    H228756   7.543   5.101   2.609
 9627TIP3   OH228757   8.286   5.292   2.760
 9627TIP3    H128758   8.275   5.195   2.747
 9627TIP3    H228759   8.240   5.326   2.680
 9628TIP3   OH228760   7.498   3.823   4.547
 9628TIP3    H128761   7.466   3.755   4.608
 9628TIP3    H228762   7.593   3.826   4.574
 9629TIP3   OH228763   7.745   3.822   4.668
 9629TIP3    H128764   7.832   3.802   4.630
 9629TIP3    H228765   7.736   3.751   4.735
 9630TIP3   OH228766   6.870   5.013   2.727
 9630TIP3    H128767   6.867   5.041   2.820
 9630TIP3    H228768   6.959   4.973   2.719
 9631TIP3   OH228769   8.571   3.881   4.457
 9631TIP3    H128770   8.592   3.852   4.549
 9631TIP3    H228771   8.660   3.881   4.415
 9632TIP3   OH228772   8.496   5.440   3.968
 9632TIP3    H128773   8.431   5.406   3.905
 9632TIP3    H228774   8.490   5.536   3.952
 9633TIP3   OH228775   9.086   4.703   3.450
 9633TIP3    H128776   9.110   4.636   3.518
 9633TIP3    H228777   9.141   4.777   3.479
 9634TIP3   OH228778   9.038   5.112   3.187
 9634TIP3    H128779   9.035   5.014   3.193
 9634TIP3    H228780   9.134   5.127   3.182
 9635TIP3   OH228781   8.755   4.317   2.969
 9635TIP3    H128782   8.713   4.403   2.990
 9635TIP3    H228783   8.677   4.266   2.943
 9636TIP3   OH228784   8.812   4.605   3.135
 9636TIP3    H128785   8.859   4.531   3.179
 9636TIP3    H228786   8.880   4.641   3.077
 9637TIP3   OH228787   9.554   5.517   2.817
 9637TIP3    H128788   9.639   5.536   2.771
 9637TIP3    H228789   9.585   5.522   2.909
 9638TIP3   OH228790   9.525   5.046   3.143
 9638TIP3    H128791   9.539   4.984   3.070
 9638TIP3    H228792   9.619   5.055   3.172
 9639TIP3   OH228793   9.306   4.195   3.152
 9639TIP3    H128794   9.310   4.264   3.082
 9639TIP3    H228795   9.269   4.121   3.102
 9640TIP3   OH228796   8.953   4.402   3.245
 9640TIP3    H128797   9.034   4.384   3.297
 9640TIP3    H228798   8.970   4.344   3.168
 9641TIP3   OH228799   9.362   4.614   3.022
 9641TIP3    H128800   9.456   4.594   3.045
 9641TIP3    H228801   9.330   4.524   3.000
 9642TIP3   OH228802   9.316   4.173   3.563
 9642TIP3    H128803   9.252   4.226   3.513
 9642TIP3    H228804   9.285   4.185   3.654
 9643TIP3   OH228805   9.398   4.964   3.372
 9643TIP3    H128806   9.340   5.030   3.417
 9643TIP3    H228807   9.444   5.020   3.306
 9644TIP3   OH228808   9.178   4.304   3.361
 9644TIP3    H128809   9.244   4.372   3.385
 9644TIP3    H228810   9.229   4.256   3.291
 9645TIP3   OH228811   9.236   5.147   3.488
 9645TIP3    H128812   9.213   5.236   3.453
 9645TIP3    H228813   9.163   5.130   3.548
 9646TIP3   OH228814   8.655   4.837   2.706
 9646TIP3    H128815   8.609   4.868   2.626
 9646TIP3    H228816   8.684   4.922   2.746
 9647TIP3   OH228817   9.162   4.756   2.918
 9647TIP3    H128818   9.129   4.694   2.850
 9647TIP3    H228819   9.240   4.706   2.954
 9648TIP3   OH228820   9.292   5.168   3.072
 9648TIP3    H128821   9.277   5.116   2.992
 9648TIP3    H228822   9.378   5.132   3.104
 9649TIP3   OH228823   9.352   4.710   3.288
 9649TIP3    H128824   9.353   4.707   3.190
 9649TIP3    H228825   9.357   4.806   3.308
 9650TIP3   OH228826   9.455   5.271   3.615
 9650TIP3    H128827   9.396   5.333   3.664
 9650TIP3    H228828   9.389   5.217   3.569
 9651TIP3   OH228829   9.207   4.830   3.702
 9651TIP3    H128830   9.217   4.915   3.752
 9651TIP3    H228831   9.114   4.811   3.722
 9652TIP3   OH228832   9.514   5.311   2.640
 9652TIP3    H128833   9.528   5.372   2.715
 9652TIP3    H228834   9.451   5.361   2.587
 9653TIP3   OH228835   9.245   5.438   3.698
 9653TIP3    H128836   9.223   5.439   3.603
 9653TIP3    H228837   9.155   5.423   3.734
 9654TIP3   OH228838   9.057   4.576   2.724
 9654TIP3    H128839   8.989   4.626   2.674
 9654TIP3    H228840   9.004   4.507   2.765
 9655TIP3   OH228841   8.844   4.965   3.629
 9655TIP3    H128842   8.768   4.934   3.578
 9655TIP3    H228843   8.876   4.886   3.675
 9656TIP3   OH228844   8.689   5.160   3.278
 9656TIP3    H128845   8.786   5.158   3.274
 9656TIP3    H228846   8.674   5.237   3.335
 9657TIP3   OH228847   9.649   5.398   3.467
 9657TIP3    H128848   9.652   5.490   3.501
 9657TIP3    H228849   9.579   5.359   3.525
 9658TIP3   OH228850   9.402   5.522   2.429
 9658TIP3    H128851   9.374   5.516   2.337
 9658TIP3    H228852   9.387   5.616   2.449
 9659TIP3   OH228853   8.856   5.377   2.804
 9659TIP3    H128854   8.908   5.369   2.887
 9659TIP3    H228855   8.790   5.308   2.820
 9660TIP3   OH228856   9.433   3.966   3.428
 9660TIP3    H128857   9.341   3.947   3.403
 9660TIP3    H228858   9.417   4.052   3.472
 9661TIP3   OH228859   9.372   4.480   3.428
 9661TIP3    H128860   9.329   4.500   3.514
 9661TIP3    H228861   9.360   4.565   3.380
 9662TIP3   OH228862   9.253   4.373   2.949
 9662TIP3    H128863   9.163   4.345   2.977
 9662TIP3    H228864   9.255   4.336   2.858
 9663TIP3   OH228865   9.192   4.515   3.644
 9663TIP3    H128866   9.209   4.579   3.715
 9663TIP3    H228867   9.181   4.432   3.695
 9664TIP3   OH228868   9.241   4.041   2.353
 9664TIP3    H128869   9.210   3.984   2.425
 9664TIP3    H228870   9.183   4.021   2.279
 9665TIP3   OH228871   8.786   4.041   3.221
 9665TIP3    H128872   8.853   4.076   3.284
 9665TIP3    H228873   8.840   4.010   3.148
 9666TIP3   OH228874   8.759   4.023   2.739
 9666TIP3    H128875   8.809   4.079   2.677
 9666TIP3    H228876   8.693   4.089   2.772
 9667TIP3   OH228877   9.016   4.255   3.017
 9667TIP3    H128878   8.920   4.261   2.995
 9667TIP3    H228879   9.039   4.162   3.001
 9668TIP3   OH228880   9.260   4.269   2.695
 9668TIP3    H128881   9.339   4.302   2.651
 9668TIP3    H228882   9.193   4.280   2.624
 9669TIP3   OH228883   9.101   4.278   2.478
 9669TIP3    H128884   9.032   4.277   2.410
 9669TIP3    H228885   9.177   4.306   2.423
 9670TIP3   OH228886   9.214   5.059   3.857
 9670TIP3    H128887   9.282   5.100   3.913
 9670TIP3    H228888   9.134   5.078   3.909
 9671TIP3   OH228889   9.180   4.014   2.977
 9671TIP3    H128890   9.151   3.938   3.031
 9671TIP3    H228891   9.259   3.980   2.933
 9672TIP3   OH228892   9.359   4.810   2.490
 9672TIP3    H128893   9.285   4.749   2.498
 9672TIP3    H228894   9.368   4.847   2.581
 9673TIP3   OH228895   9.726   5.127   3.507
 9673TIP3    H128896   9.762   5.111   3.596
 9673TIP3    H228897   9.707   5.222   3.509
 9674TIP3   OH228898   9.068   4.833   3.177
 9674TIP3    H128899   9.104   4.804   3.091
 9674TIP3    H228900   9.101   4.768   3.240
 9675TIP3   OH228901   8.954   4.751   3.781
 9675TIP3    H128902   8.976   4.748   3.877
 9675TIP3    H228903   8.879   4.690   3.776
 9676TIP3   OH228904   9.640   4.832   3.829
 9676TIP3    H128905   9.558   4.788   3.798
 9676TIP3    H228906   9.706   4.766   3.800
 9677TIP3   OH228907   9.170   5.132   2.788
 9677TIP3    H128908   9.175   5.217   2.740
 9677TIP3    H228909   9.076   5.129   2.808
 9678TIP3   OH228910   8.741   4.434   2.504
 9678TIP3    H128911   8.783   4.521   2.519
 9678TIP3    H228912   8.660   4.444   2.560
 9679TIP3   OH228913   9.335   4.914   2.757
 9679TIP3    H128914   9.286   4.999   2.758
 9679TIP3    H228915   9.279   4.862   2.818
 9680TIP3   OH228916   9.443   5.482   3.262
 9680TIP3    H128917   9.483   5.555   3.212
 9680TIP3    H228918   9.518   5.452   3.316
 9681TIP3   OH228919   9.092   5.377   2.649
 9681TIP3    H128920   9.007   5.386   2.695
 9681TIP3    H228921   9.125   5.470   2.653
 9682TIP3   OH228922   9.167   4.268   3.787
 9682TIP3    H128923   9.074   4.268   3.816
 9682TIP3    H228924   9.207   4.205   3.849
 9683TIP3   OH228925   8.879   5.350   3.411
 9683TIP3    H128926   8.916   5.267   3.443
 9683TIP3    H228927   8.884   5.398   3.497
 9684TIP3   OH228928   9.173   4.987   2.104
 9684TIP3    H128929   9.193   4.895   2.082
 9684TIP3    H228930   9.159   4.982   2.201
 9685TIP3   OH228931   9.120   4.992   2.377
 9685TIP3    H128932   9.202   4.967   2.423
 9685TIP3    H228933   9.120   5.090   2.388
 9686TIP3   OH228934   8.850   4.688   2.580
 9686TIP3    H128935   8.786   4.734   2.638
 9686TIP3    H228936   8.868   4.759   2.516
 9687TIP3   OH228937   9.365   5.212   2.319
 9687TIP3    H128938   9.281   5.234   2.363
 9687TIP3    H228939   9.392   5.299   2.287
 9688TIP3   OH228940   9.105   5.268   2.394
 9688TIP3    H128941   9.082   5.341   2.332
 9688TIP3    H228942   9.098   5.313   2.481
 9689TIP3   OH228943   9.233   3.995   2.643
 9689TIP3    H128944   9.215   4.078   2.692
 9689TIP3    H228945   9.315   4.022   2.598
 9690TIP3   OH228946   8.841   4.903   2.390
 9690TIP3    H128947   8.903   4.977   2.404
 9690TIP3    H228948   8.890   4.853   2.321
 9691TIP3   OH228949   8.803   4.161   2.496
 9691TIP3    H128950   8.801   4.259   2.507
 9691TIP3    H228951   8.707   4.144   2.492
 9692TIP3   OH228952   9.166   3.894   3.395
 9692TIP3    H128953   9.137   3.861   3.308
 9692TIP3    H228954   9.159   3.815   3.452
 9693TIP3   OH228955   8.712   5.103   2.777
 9693TIP3    H128956   8.644   5.143   2.833
 9693TIP3    H228957   8.696   5.149   2.692
 9694TIP3   OH228958   8.869   5.667   3.854
 9694TIP3    H128959   8.953   5.658   3.903
 9694TIP3    H228960   8.865   5.577   3.814
 9695TIP3   OH228961   9.358   5.624   3.883
 9695TIP3    H128962   9.448   5.594   3.898
 9695TIP3    H228963   9.328   5.561   3.814
 9696TIP3   OH228964   9.319   5.204   2.016
 9696TIP3    H128965   9.270   5.131   2.060
 9696TIP3    H228966   9.412   5.174   2.030
 9697TIP3   OH228967   9.004   5.061   4.047
 9697TIP3    H128968   9.020   4.965   4.043
 9697TIP3    H228969   8.917   5.066   4.001
 9698TIP3   OH228970   8.976   4.710   2.242
 9698TIP3    H128971   9.033   4.685   2.317
 9698TIP3    H228972   9.044   4.722   2.172
 9699TIP3   OH228973   9.601   5.136   3.819
 9699TIP3    H128974   9.561   5.160   3.733
 9699TIP3    H228975   9.604   5.040   3.817
 9700TIP3   OH228976   9.121   4.784   4.028
 9700TIP3    H128977   9.202   4.733   4.012
 9700TIP3    H228978   9.141   4.825   4.114
 9701TIP3   OH228979   9.170   4.608   2.462
 9701TIP3    H128980   9.151   4.578   2.553
 9701TIP3    H228981   9.214   4.530   2.422
 9702TIP3   OH228982   9.438   4.684   3.705
 9702TIP3    H128983   9.356   4.739   3.704
 9702TIP3    H228984   9.481   4.715   3.622
 9703TIP3   OH228985   9.284   4.399   2.317
 9703TIP3    H128986   9.248   4.397   2.225
 9703TIP3    H228987   9.377   4.421   2.301
 9704TIP3   OH228988   9.554   4.472   3.835
 9704TIP3    H128989   9.570   4.388   3.786
 9704TIP3    H228990   9.498   4.522   3.772
 9705TIP3   OH228991   9.567   4.282   3.635
 9705TIP3    H128992   9.598   4.260   3.547
 9705TIP3    H228993   9.502   4.212   3.651
 9706TIP3   OH228994   9.555   4.779   3.486
 9706TIP3    H128995   9.537   4.724   3.409
 9706TIP3    H228996   9.516   4.864   3.457
 9707TIP3   OH228997   9.433   4.598   4.042
 9707TIP3    H128998   9.374   4.522   4.060
 9707TIP3    H228999   9.479   4.566   3.962
 9708TIP3   OH229000   9.297   4.366   4.099
 9708TIP3    H129001   9.299   4.275   4.064
 9708TIP3    H229002   9.324   4.350   4.191
 9709TIP3   OH229003   9.090   5.468   2.201
 9709TIP3    H129004   9.187   5.470   2.190
 9709TIP3    H229005   9.063   5.522   2.124
 9710TIP3   OH229006   8.572   4.854   2.421
 9710TIP3    H129007   8.668   4.877   2.412
 9710TIP3    H229008   8.570   4.764   2.381
 9711TIP3   OH229009   8.488   5.464   2.836
 9711TIP3    H129010   8.419   5.402   2.803
 9711TIP3    H229011   8.532   5.409   2.905
 9712TIP3   OH229012   8.627   5.317   3.021
 9712TIP3    H129013   8.615   5.245   3.085
 9712TIP3    H229014   8.675   5.381   3.078
 9713TIP3   OH229015   8.815   4.721   3.395
 9713TIP3    H129016   8.813   4.698   3.300
 9713TIP3    H229017   8.912   4.726   3.411
 9714TIP3   OH229018   9.027   4.406   4.061
 9714TIP3    H129019   9.125   4.403   4.066
 9714TIP3    H229020   9.005   4.325   4.111
 9715TIP3   OH229021   8.988   4.103   3.394
 9715TIP3    H129022   9.053   4.033   3.412
 9715TIP3    H229023   9.046   4.181   3.394
 9716TIP3   OH229024   8.793   4.375   3.474
 9716TIP3    H129025   8.844   4.377   3.390
 9716TIP3    H229026   8.815   4.461   3.512
 9717TIP3   OH229027   8.772   3.869   2.965
 9717TIP3    H129028   8.683   3.876   3.004
 9717TIP3    H229029   8.770   3.937   2.896
 9718TIP3   OH229030   8.982   3.945   3.779
 9718TIP3    H129031   8.950   3.959   3.869
 9718TIP3    H229032   8.918   3.999   3.728
 9719TIP3   OH229033   9.219   5.411   3.415
 9719TIP3    H129034   9.158   5.480   3.383
 9719TIP3    H229035   9.299   5.435   3.364
 9720TIP3   OH229036   9.672   5.667   3.547
 9720TIP3    H129037   9.697   5.663   3.642
 9720TIP3    H229038   9.747   5.712   3.509
 9721TIP3   OH229039   8.895   5.689   3.427
 9721TIP3    H129040   8.803   5.722   3.416
 9721TIP3    H229041   8.897   5.670   3.522
 9722TIP3   OH229042   9.131   5.655   3.293
 9722TIP3    H129043   9.046   5.670   3.342
 9722TIP3    H229044   9.107   5.689   3.205
 9723TIP3   OH229045   9.549   5.687   3.083
 9723TIP3    H129046   9.474   5.709   3.024
 9723TIP3    H229047   9.564   5.773   3.127
 9724TIP3   OH229048   9.814   5.653   3.166
 9724TIP3    H129049   9.730   5.657   3.117
 9724TIP3    H229050   9.876   5.704   3.110
 9725TIP3   OH229051   8.802   5.472   3.178
 9725TIP3    H129052   8.829   5.448   3.271
 9725TIP3    H229053   8.875   5.427   3.130
 9726TIP3   OH229054   8.995   5.340   3.033
 9726TIP3    H129055   9.009   5.258   3.087
 9726TIP3    H229056   9.085   5.380   3.035
 9727TIP3   OH229057   9.257   5.443   3.039
 9727TIP3    H129058   9.284   5.349   3.030
 9727TIP3    H229059   9.299   5.465   3.124
 9728TIP3   OH229060   9.083   3.806   3.138
 9728TIP3    H129061   8.991   3.775   3.141
 9728TIP3    H229062   9.130   3.720   3.146
 9729TIP3   OH229063   8.872   3.671   2.797
 9729TIP3    H129064   8.894   3.739   2.733
 9729TIP3    H229065   8.837   3.726   2.871
 9730TIP3   OH229066   8.592   5.238   2.573
 9730TIP3    H129067   8.506   5.208   2.539
 9730TIP3    H229068   8.580   5.334   2.568
 9731TIP3   OH229069   9.009   3.875   2.540
 9731TIP3    H129070   9.031   3.786   2.505
 9731TIP3    H229071   9.083   3.889   2.604
 9732TIP3   OH229072   9.365   5.443   2.153
 9732TIP3    H129073   9.461   5.450   2.147
 9732TIP3    H229074   9.345   5.365   2.097
 9733TIP3   OH229075   9.243   4.091   4.055
 9733TIP3    H129076   9.239   4.011   4.109
 9733TIP3    H229077   9.326   4.073   4.005
 9734TIP3   OH229078   9.509   4.101   4.174
 9734TIP3    H129079   9.564   4.084   4.096
 9734TIP3    H229080   9.500   4.013   4.214
 9735TIP3   OH229081   8.665   5.270   2.215
 9735TIP3    H129082   8.662   5.296   2.308
 9735TIP3    H229083   8.755   5.231   2.207
 9736TIP3   OH229084   0.432   5.336   4.921
 9736TIP3    H129085   0.409   5.430   4.905
 9736TIP3    H229086   0.353   5.292   4.886
 9737TIP3   OH229087   0.445   5.330   5.289
 9737TIP3    H129088   0.472   5.310   5.380
 9737TIP3    H229089   0.401   5.248   5.261
 9738TIP3   OH229090   0.673   5.642   4.981
 9738TIP3    H129091   0.665   5.575   5.050
 9738TIP3    H229092   0.702   5.720   5.031
 9739TIP3   OH229093   0.315   6.105   4.987
 9739TIP3    H129094   0.368   6.028   4.957
 9739TIP3    H229095   0.303   6.087   5.081
 9740TIP3   OH229096   0.223   5.498   5.337
 9740TIP3    H129097   0.302   5.458   5.296
 9740TIP3    H229098   0.262   5.585   5.361
 9741TIP3   OH229099   1.241   4.887   5.344
 9741TIP3    H129100   1.270   4.969   5.390
 9741TIP3    H229101   1.266   4.907   5.252
 9742TIP3   OH229102   0.638   5.067   5.385
 9742TIP3    H129103   0.686   4.984   5.403
 9742TIP3    H229104   0.613   5.053   5.291
 9743TIP3   OH229105   0.013   4.729   5.354
 9743TIP3    H129106  -0.023   4.805   5.304
 9743TIP3    H229107  -0.024   4.655   5.300
 9744TIP3   OH229108   0.673   4.818   4.970
 9744TIP3    H129109   0.746   4.802   5.035
 9744TIP3    H229110   0.725   4.853   4.895
 9745TIP3   OH229111   0.052   5.143   5.269
 9745TIP3    H129112   0.144   5.111   5.276
 9745TIP3    H229113   0.007   5.067   5.229
 9746TIP3   OH229114   1.315   5.091   5.517
 9746TIP3    H129115   1.233   5.142   5.498
 9746TIP3    H229116   1.335   5.121   5.607
 9747TIP3   OH229117   0.325   5.558   4.791
 9747TIP3    H129118   0.288   5.540   4.703
 9747TIP3    H229119   0.287   5.646   4.811
 9748TIP3   OH229120   0.885   4.820   5.139
 9748TIP3    H129121   0.886   4.767   5.220
 9748TIP3    H229122   0.943   4.895   5.163
 9749TIP3   OH229123   0.747   5.881   5.145
 9749TIP3    H129124   0.658   5.875   5.188
 9749TIP3    H229125   0.741   5.969   5.104
 9750TIP3   OH229126   1.037   4.785   5.510
 9750TIP3    H129127   0.950   4.820   5.482
 9750TIP3    H229128   1.097   4.818   5.440
 9751TIP3   OH229129   0.333   4.427   5.489
 9751TIP3    H129130   0.332   4.332   5.509
 9751TIP3    H229131   0.261   4.458   5.546
 9752TIP3   OH229132   0.450   5.927   4.823
 9752TIP3    H129133   0.504   5.848   4.799
 9752TIP3    H229134   0.508   5.997   4.785
 9753TIP3   OH229135   0.592   5.714   4.727
 9753TIP3    H129136   0.559   5.633   4.686
 9753TIP3    H229137   0.627   5.681   4.812
 9754TIP3   OH229138   0.973   5.799   5.494
 9754TIP3    H129139   0.963   5.722   5.433
 9754TIP3    H229140   0.955   5.874   5.435
 9755TIP3   OH229141   0.263   5.189   4.747
 9755TIP3    H129142   0.185   5.242   4.721
 9755TIP3    H229143   0.315   5.189   4.664
 9756TIP3   OH229144   0.224   4.974   4.469
 9756TIP3    H129145   0.292   5.025   4.518
 9756TIP3    H229146   0.281   4.911   4.421
 9757TIP3   OH229147   1.168   5.431   5.335
 9757TIP3    H129148   1.087   5.486   5.342
 9757TIP3    H229149   1.198   5.457   5.246
 9758TIP3   OH229150   0.610   5.273   4.723
 9758TIP3    H129151   0.557   5.298   4.802
 9758TIP3    H229152   0.694   5.247   4.766
 9759TIP3   OH229153   0.846   5.315   5.632
 9759TIP3    H129154   0.848   5.396   5.687
 9759TIP3    H229155   0.766   5.331   5.580
 9760TIP3   OH229156   0.508   5.879   5.270
 9760TIP3    H129157   0.490   5.960   5.319
 9760TIP3    H229158   0.489   5.809   5.335
 9761TIP3   OH229159   0.452   5.133   4.547
 9761TIP3    H129160   0.512   5.191   4.600
 9761TIP3    H229161   0.479   5.158   4.456
 9762TIP3   OH229162   0.188   5.818   4.823
 9762TIP3    H129163   0.273   5.857   4.850
 9762TIP3    H229164   0.144   5.896   4.784
 9763TIP3   OH229165   0.968   4.375   4.594
 9763TIP3    H129166   0.888   4.395   4.647
 9763TIP3    H229167   0.980   4.459   4.545
 9764TIP3   OH229168   0.766   5.742   4.143
 9764TIP3    H129169   0.774   5.839   4.130
 9764TIP3    H229170   0.859   5.713   4.130
 9765TIP3   OH229171   1.212   6.141   5.538
 9765TIP3    H129172   1.208   6.045   5.553
 9765TIP3    H229173   1.128   6.169   5.582
 9766TIP3   OH229174   0.329   5.910   5.679
 9766TIP3    H129175   0.340   6.003   5.710
 9766TIP3    H229176   0.231   5.904   5.685
 9767TIP3   OH229177   0.098   6.038   4.650
 9767TIP3    H129178   0.071   6.024   4.557
 9767TIP3    H229179   0.088   6.133   4.662
 9768TIP3   OH229180   0.283   5.959   4.266
 9768TIP3    H129181   0.339   5.889   4.226
 9768TIP3    H229182   0.324   5.970   4.354
 9769TIP3   OH229183   0.341   6.002   4.534
 9769TIP3    H129184   0.261   6.001   4.589
 9769TIP3    H229185   0.407   5.970   4.598
 9770TIP3   OH229186   1.103   5.274   5.814
 9770TIP3    H129187   1.022   5.290   5.763
 9770TIP3    H229188   1.116   5.178   5.802
 9771TIP3   OH229189   0.088   4.504   5.626
 9771TIP3    H129190   0.012   4.466   5.580
 9771TIP3    H229191   0.080   4.598   5.603
 9772TIP3   OH229192   0.630   4.621   5.815
 9772TIP3    H129193   0.700   4.596   5.879
 9772TIP3    H229194   0.548   4.600   5.863
 9773TIP3   OH229195   0.866   5.048   5.731
 9773TIP3    H129196   0.822   5.045   5.819
 9773TIP3    H229197   0.847   5.139   5.701
 9774TIP3   OH229198   0.526   5.181   4.290
 9774TIP3    H129199   0.497   5.154   4.201
 9774TIP3    H229200   0.607   5.231   4.268
 9775TIP3   OH229201   0.240   4.558   4.591
 9775TIP3    H129202   0.212   4.555   4.685
 9775TIP3    H229203   0.205   4.472   4.561
 9776TIP3   OH229204  -0.094   4.896   5.160
 9776TIP3    H129205  -0.189   4.906   5.147
 9776TIP3    H229206  -0.069   4.858   5.073
 9777TIP3   OH229207   0.400   4.990   4.879
 9777TIP3    H129208   0.348   5.064   4.839
 9777TIP3    H229209   0.458   4.964   4.805
 9778TIP3   OH229210   0.577   5.269   5.964
 9778TIP3    H129211   0.556   5.199   6.030
 9778TIP3    H229212   0.668   5.291   5.989
 9779TIP3   OH229213   0.556   5.022   5.124
 9779TIP3    H129214   0.503   5.055   5.050
 9779TIP3    H229215   0.590   4.940   5.081
 9780TIP3   OH229216  -0.098   4.532   4.561
 9780TIP3    H129217  -0.106   4.527   4.658
 9780TIP3    H229218  -0.190   4.539   4.533
 9781TIP3   OH229219   0.551   5.267   5.542
 9781TIP3    H129220   0.593   5.196   5.488
 9781TIP3    H229221   0.543   5.221   5.627
 9782TIP3   OH229222   0.250   4.735   5.211
 9782TIP3    H129223   0.171   4.735   5.269
 9782TIP3    H229224   0.322   4.727   5.276
 9783TIP3   OH229225  -0.051   4.785   4.908
 9783TIP3    H129226   0.046   4.797   4.900
 9783TIP3    H229227  -0.087   4.822   4.826
 9784TIP3   OH229228   0.731   4.807   5.420
 9784TIP3    H129229   0.694   4.816   5.510
 9784TIP3    H229230   0.670   4.742   5.381
 9785TIP3   OH229231  -0.232   4.845   4.688
 9785TIP3    H129232  -0.270   4.756   4.672
 9785TIP3    H229233  -0.171   4.857   4.612
 9786TIP3   OH229234   0.899   6.493   5.636
 9786TIP3    H129235   0.897   6.518   5.541
 9786TIP3    H229236   0.975   6.544   5.668
 9787TIP3   OH229237   0.324   5.056   5.312
 9787TIP3    H129238   0.394   5.022   5.254
 9787TIP3    H229239   0.345   5.014   5.396
 9788TIP3   OH229240  -0.117   4.551   5.193
 9788TIP3    H129241  -0.183   4.479   5.207
 9788TIP3    H229242  -0.067   4.515   5.118
 9789TIP3   OH229243   0.295   4.952   5.620
 9789TIP3    H129244   0.230   5.017   5.647
 9789TIP3    H229245   0.378   4.993   5.654
 9790TIP3   OH229246   0.039   5.341   4.685
 9790TIP3    H129247  -0.037   5.279   4.684
 9790TIP3    H229248   0.031   5.378   4.777
 9791TIP3   OH229249   0.938   5.580   5.329
 9791TIP3    H129250   0.963   5.630   5.248
 9791TIP3    H229251   0.851   5.542   5.305
 9792TIP3   OH229252   0.494   4.659   4.557
 9792TIP3    H129253   0.397   4.645   4.566
 9792TIP3    H229254   0.507   4.753   4.582
 9793TIP3   OH229255   0.415   5.648   5.706
 9793TIP3    H129256   0.458   5.651   5.792
 9793TIP3    H229257   0.385   5.742   5.697
 9794TIP3   OH229258   0.564   4.904   4.661
 9794TIP3    H129259   0.661   4.909   4.679
 9794TIP3    H229260   0.548   4.984   4.608
 9795TIP3   OH229261   0.190   5.486   4.512
 9795TIP3    H129262   0.144   5.573   4.520
 9795TIP3    H229263   0.135   5.431   4.573
 9796TIP3   OH229264   0.344   5.409   6.015
 9796TIP3    H129265   0.293   5.333   5.981
 9796TIP3    H229266   0.435   5.384   5.987
 9797TIP3   OH229267   0.596   5.911   5.595
 9797TIP3    H129268   0.500   5.916   5.609
 9797TIP3    H229269   0.626   5.968   5.669
 9798TIP3   OH229270   1.006   4.993   4.501
 9798TIP3    H129271   0.943   4.947   4.440
 9798TIP3    H229272   1.004   5.081   4.459
 9799TIP3   OH229273   1.223   5.848   5.583
 9799TIP3    H129274   1.125   5.846   5.574
 9799TIP3    H229275   1.248   5.821   5.492
 9800TIP3   OH229276   0.699   5.814   4.406
 9800TIP3    H129277   0.684   5.743   4.469
 9800TIP3    H229278   0.718   5.766   4.323
 9801TIP3   OH229279   0.704   5.442   5.249
 9801TIP3    H129280   0.610   5.417   5.260
 9801TIP3    H229281   0.738   5.363   5.203
 9802TIP3   OH229282   0.011   5.437   4.935
 9802TIP3    H129283   0.011   5.532   4.950
 9802TIP3    H229284  -0.054   5.406   5.000
 9803TIP3   OH229285   0.486   5.642   5.429
 9803TIP3    H129286   0.476   5.647   5.526
 9803TIP3    H229287   0.574   5.605   5.420
 9804TIP3   OH229288   0.459   5.538   4.310
 9804TIP3    H129289   0.513   5.514   4.389
 9804TIP3    H229290   0.370   5.514   4.342
 9805TIP3   OH229291   0.737   6.180   5.476
 9805TIP3    H129292   0.655   6.127   5.469
 9805TIP3    H229293   0.722   6.248   5.407
 9806TIP3   OH229294   0.800   6.017   4.131
 9806TIP3    H129295   0.840   6.089   4.080
 9806TIP3    H229296   0.720   6.063   4.162
 9807TIP3   OH229297   0.618   5.474   4.528
 9807TIP3    H129298   0.610   5.407   4.599
 9807TIP3    H229299   0.715   5.474   4.515
 9808TIP3   OH229300  -0.121   5.498   4.335
 9808TIP3    H129301  -0.100   5.413   4.290
 9808TIP3    H229302  -0.128   5.468   4.427
 9809TIP3   OH229303   0.648   4.859   5.677
 9809TIP3    H129304   0.729   4.900   5.712
 9809TIP3    H229305   0.640   4.778   5.732
 9810TIP3   OH229306   0.531   4.614   4.839
 9810TIP3    H129307   0.523   4.637   4.745
 9810TIP3    H229308   0.574   4.694   4.876
 9811TIP3   OH229309   0.044   5.710   4.534
 9811TIP3    H129310  -0.033   5.748   4.578
 9811TIP3    H229311   0.065   5.777   4.468
 9812TIP3   OH229312   0.222   4.789   4.942
 9812TIP3    H129313   0.289   4.858   4.922
 9812TIP3    H229314   0.235   4.780   5.039
 9813TIP3   OH229315   0.489   5.105   5.755
 9813TIP3    H129316   0.510   5.161   5.834
 9813TIP3    H229317   0.551   5.031   5.769
 9814TIP3   OH229318   0.373   4.518   5.047
 9814TIP3    H129319   0.372   4.593   5.110
 9814TIP3    H229320   0.432   4.554   4.977
 9815TIP3   OH229321  -0.113   4.525   4.843
 9815TIP3    H129322  -0.093   4.613   4.883
 9815TIP3    H229323  -0.022   4.487   4.846
 9816TIP3   OH229324   1.135   5.007   5.732
 9816TIP3    H129325   1.037   5.003   5.738
 9816TIP3    H229326   1.149   4.972   5.643
 9817TIP3   OH229327   0.787   5.201   5.120
 9817TIP3    H129328   0.712   5.140   5.134
 9817TIP3    H229329   0.860   5.156   5.168
 9818TIP3   OH229330   0.756   6.151   5.068
 9818TIP3    H129331   0.714   6.200   4.994
 9818TIP3    H229332   0.850   6.173   5.050
 9819TIP3   OH229333   0.021   5.713   4.233
 9819TIP3    H129334  -0.020   5.634   4.273
 9819TIP3    H229335   0.087   5.672   4.174
 9820TIP3   OH229336   0.661   6.051   5.822
 9820TIP3    H129337   0.652   5.982   5.892
 9820TIP3    H229338   0.730   6.108   5.858
 9821TIP3   OH229339   0.427   5.768   4.132
 9821TIP3    H129340   0.476   5.708   4.191
 9821TIP3    H229341   0.484   5.771   4.052
 9822TIP3   OH229342   0.280   5.686   6.015
 9822TIP3    H129343   0.217   5.678   5.943
 9822TIP3    H229344   0.309   5.594   6.027
 9823TIP3   OH229345   0.153   5.432   4.244
 9823TIP3    H129346   0.157   5.449   4.340
 9823TIP3    H229347   0.151   5.334   4.243
 9824TIP3   OH229348   0.755   5.681   5.624
 9824TIP3    H129349   0.831   5.727   5.584
 9824TIP3    H229350   0.688   5.753   5.618
 9825TIP3   OH229351  -0.153   5.144   4.667
 9825TIP3    H129352  -0.176   5.088   4.743
 9825TIP3    H229353  -0.119   5.076   4.605
 9826TIP3   OH229354   0.192   5.214   5.886
 9826TIP3    H129355   0.103   5.247   5.912
 9826TIP3    H229356   0.199   5.250   5.796
 9827TIP3   OH229357  -0.053   4.937   4.506
 9827TIP3    H129358  -0.077   4.944   4.411
 9827TIP3    H229359   0.045   4.944   4.500
 9828TIP3   OH229360   0.619   5.596   6.023
 9828TIP3    H129361   0.709   5.601   5.987
 9828TIP3    H229362   0.631   5.541   6.102
 9829TIP3   OH229363   0.765   5.271   4.167
 9829TIP3    H129364   0.744   5.224   4.084
 9829TIP3    H229365   0.734   5.362   4.142
 9830TIP3   OH229366   0.246   4.981   6.035
 9830TIP3    H129367   0.235   4.906   5.974
 9830TIP3    H229368   0.216   5.057   5.983
 9831TIP3   OH229369   0.231   4.773   5.823
 9831TIP3    H129370   0.264   4.820   5.743
 9831TIP3    H229371   0.136   4.771   5.810
 9832TIP3   OH229372   0.234   5.359   5.627
 9832TIP3    H129373   0.318   5.310   5.612
 9832TIP3    H229374   0.274   5.441   5.662
 9833TIP3   OH229375   0.847   5.288   6.081
 9833TIP3    H129376   0.899   5.208   6.096
 9833TIP3    H229377   0.914   5.351   6.051
 9834TIP3   OH229378   0.888   5.536   5.811
 9834TIP3    H129379   0.829   5.592   5.755
 9834TIP3    H229380   0.976   5.560   5.772
 9835TIP3   OH229381   0.371   4.546   5.891
 9835TIP3    H129382   0.321   4.629   5.873
 9835TIP3    H229383   0.300   4.479   5.886
 9836TIP3   OH229384   0.499   5.056   6.113
 9836TIP3    H129385   0.492   5.048   6.210
 9836TIP3    H229386   0.408   5.026   6.089
 9837TIP3   OH229387   0.734   4.997   5.962
 9837TIP3    H129388   0.660   5.004   6.026
 9837TIP3    H229389   0.808   4.970   6.020
 9838TIP3   OH229390   0.962   4.941   6.114
 9838TIP3    H129391   0.974   4.846   6.136
 9838TIP3    H229392   0.957   4.983   6.203
 9839TIP3   OH229393   0.466   4.559   6.148
 9839TIP3    H129394   0.534   4.489   6.146
 9839TIP3    H229395   0.427   4.549   6.059
 9840TIP3   OH229396   0.529   4.772   6.310
 9840TIP3    H129397   0.506   4.703   6.245
 9840TIP3    H229398   0.454   4.835   6.302
 9841TIP3   OH229399   1.007   6.247   5.024
 9841TIP3    H129400   1.030   6.280   5.113
 9841TIP3    H229401   1.064   6.300   4.967
 9842TIP3   OH229402   1.037   6.266   5.304
 9842TIP3    H129403   0.996   6.177   5.304
 9842TIP3    H229404   1.111   6.250   5.365
 9843TIP3   OH229405   1.084   5.944   5.880
 9843TIP3    H129406   1.010   5.952   5.944
 9843TIP3    H229407   1.124   6.033   5.884
 9844TIP3   OH229408   0.898   5.460   4.501
 9844TIP3    H129409   0.968   5.523   4.474
 9844TIP3    H229410   0.941   5.419   4.580
 9845TIP3   OH229411   1.025   5.327   4.704
 9845TIP3    H129412   0.962   5.284   4.765
 9845TIP3    H229413   1.092   5.365   4.764
 9846TIP3   OH229414   1.078   5.715   5.136
 9846TIP3    H129415   1.134   5.655   5.083
 9846TIP3    H229416   1.069   5.793   5.078
 9847TIP3   OH229417   0.913   6.015   5.334
 9847TIP3    H129418   0.844   6.062   5.385
 9847TIP3    H229419   0.860   5.969   5.265
 9848TIP3   OH229420   0.965   5.233   4.353
 9848TIP3    H129421   0.893   5.237   4.285
 9848TIP3    H229422   0.940   5.310   4.408
 9849TIP3   OH229423   0.833   4.907   4.310
 9849TIP3    H129424   0.798   4.948   4.230
 9849TIP3    H229425   0.808   4.813   4.297
 9850TIP3   OH229426   0.840   5.181   4.851
 9850TIP3    H129427   0.852   5.085   4.849
 9850TIP3    H229428   0.828   5.198   4.948
 9851TIP3   OH229429   1.129   5.605   5.706
 9851TIP3    H129430   1.204   5.542   5.699
 9851TIP3    H229431   1.158   5.679   5.649
 9852TIP3   OH229432   1.316   5.414   5.726
 9852TIP3    H129433   1.243   5.364   5.768
 9852TIP3    H229434   1.389   5.350   5.740
 9853TIP3   OH229435   0.780   4.641   4.294
 9853TIP3    H129436   0.859   4.613   4.345
 9853TIP3    H229437   0.711   4.579   4.323
 9854TIP3   OH229438   0.835   4.896   4.747
 9854TIP3    H129439   0.877   4.808   4.763
 9854TIP3    H229440   0.895   4.931   4.679
 9855TIP3   OH229441   1.000   5.075   5.241
 9855TIP3    H129442   1.086   5.101   5.201
 9855TIP3    H229443   1.013   5.111   5.331
 9856TIP3   OH229444   1.066   5.216   5.475
 9856TIP3    H129445   0.989   5.251   5.524
 9856TIP3    H229446   1.099   5.296   5.429
 9857TIP3   OH229447   1.522   4.806   6.031
 9857TIP3    H129448   1.577   4.739   5.985
 9857TIP3    H229449   1.492   4.862   5.957
 9858TIP3   OH229450   0.945   4.647   4.786
 9858TIP3    H129451   0.996   4.631   4.868
 9858TIP3    H229452   0.887   4.569   4.785
 9859TIP3   OH229453   1.392   4.948   5.839
 9859TIP3    H129454   1.306   4.987   5.864
 9859TIP3    H229455   1.362   4.878   5.778
 9860TIP3   OH229456   1.028   4.586   4.414
 9860TIP3    H129457   1.071   4.511   4.367
 9860TIP3    H229458   1.097   4.655   4.409
 9861TIP3   OH229459   0.588   6.113   4.682
 9861TIP3    H129460   0.644   6.101   4.603
 9861TIP3    H229461   0.638   6.180   4.732
 9862TIP3   OH229462   0.360   6.166   5.763
 9862TIP3    H129463   0.355   6.210   5.849
 9862TIP3    H229464   0.392   6.239   5.706
 9863TIP3   OH229465   0.496   6.355   5.608
 9863TIP3    H129466   0.564   6.295   5.576
 9863TIP3    H229467   0.547   6.409   5.673
 9864TIP3   OH229468   1.289   4.710   5.713
 9864TIP3    H129469   1.197   4.706   5.681
 9864TIP3    H229470   1.318   4.617   5.700
 9865TIP3   OH229471   0.214   6.241   5.252
 9865TIP3    H129472   0.118   6.252   5.255
 9865TIP3    H229473   0.241   6.313   5.314
 9866TIP3   OH229474   0.478   6.156   5.341
 9866TIP3    H129475   0.386   6.175   5.316
 9866TIP3    H229476   0.523   6.237   5.310
 9867TIP3   OH229477   0.687   6.346   5.265
 9867TIP3    H129478   0.674   6.433   5.220
 9867TIP3    H229479   0.712   6.289   5.189
 9868TIP3   OH229480   0.489   4.623   5.326
 9868TIP3    H129481   0.451   4.551   5.381
 9868TIP3    H229482   0.566   4.579   5.285
 9869TIP3   OH229483   1.018   4.505   5.239
 9869TIP3    H129484   1.056   4.556   5.164
 9869TIP3    H229485   0.923   4.525   5.231
 9870TIP3   OH229486   1.112   4.607   5.003
 9870TIP3    H129487   1.184   4.554   4.962
 9870TIP3    H229488   1.147   4.698   4.987
 9871TIP3   OH229489   0.187   4.376   5.228
 9871TIP3    H129490   0.249   4.422   5.169
 9871TIP3    H229491   0.221   4.398   5.315
 9872TIP3   OH229492   0.730   4.512   5.215
 9872TIP3    H129493   0.736   4.476   5.126
 9872TIP3    H229494   0.719   4.431   5.269
 9873TIP3   OH229495   0.763   4.433   4.775
 9873TIP3    H129496   0.675   4.473   4.784
 9873TIP3    H229497   0.750   4.348   4.823
 9874TIP3   OH229498  -0.331   4.296   4.799
 9874TIP3    H129499  -0.320   4.272   4.706
 9874TIP3    H229500  -0.280   4.378   4.806
 9875TIP3   OH229501   0.163   4.536   4.859
 9875TIP3    H129502   0.224   4.489   4.920
 9875TIP3    H229503   0.186   4.629   4.884
 9876TIP3   OH229504   0.039   5.961   4.392
 9876TIP3    H129505   0.125   5.968   4.345
 9876TIP3    H229506  -0.016   5.931   4.316
 9877TIP3   OH229507   0.736   6.080   4.451
 9877TIP3    H129508   0.726   5.983   4.436
 9877TIP3    H229509   0.693   6.115   4.370
 9878TIP3   OH229510   0.194   4.586   6.342
 9878TIP3    H129511   0.283   4.577   6.305
 9878TIP3    H229512   0.203   4.538   6.426
 9879TIP3   OH229513   1.023   4.670   6.147
 9879TIP3    H129514   1.043   4.640   6.239
 9879TIP3    H229515   1.111   4.667   6.105
 9880TIP3   OH229516   0.967   6.225   5.637
 9880TIP3    H129517   0.886   6.193   5.593
 9880TIP3    H229518   0.946   6.321   5.641
 9881TIP3   OH229519   2.230   5.596   4.407
 9881TIP3    H129520   2.203   5.688   4.388
 9881TIP3    H229521   2.152   5.548   4.374
 9882TIP3   OH229522   2.228   5.596   4.784
 9882TIP3    H129523   2.258   5.566   4.871
 9882TIP3    H229524   2.186   5.516   4.748
 9883TIP3   OH229525   1.530   5.493   5.151
 9883TIP3    H129526   1.562   5.428   5.215
 9883TIP3    H229527   1.605   5.553   5.146
 9884TIP3   OH229528   2.471   5.898   4.467
 9884TIP3    H129529   2.458   5.829   4.533
 9884TIP3    H229530   2.498   5.974   4.521
 9885TIP3   OH229531   1.498   5.901   4.877
 9885TIP3    H129532   1.489   5.803   4.881
 9885TIP3    H229533   1.595   5.910   4.874
 9886TIP3   OH229534   1.206   5.106   4.664
 9886TIP3    H129535   1.158   5.190   4.677
 9886TIP3    H229536   1.135   5.051   4.627
 9887TIP3   OH229537   1.265   5.392   4.829
 9887TIP3    H129538   1.315   5.317   4.869
 9887TIP3    H229539   1.327   5.422   4.762
 9888TIP3   OH229540   2.117   6.361   4.481
 9888TIP3    H129541   2.167   6.289   4.437
 9888TIP3    H229542   2.113   6.329   4.572
 9889TIP3   OH229543   2.028   5.821   4.834
 9889TIP3    H129544   2.066   5.746   4.786
 9889TIP3    H229545   2.112   5.866   4.858
 9890TIP3   OH229546   3.044   5.143   4.830
 9890TIP3    H129547   3.068   5.227   4.875
 9890TIP3    H229548   3.062   5.165   4.737
 9891TIP3   OH229549   2.439   5.325   4.869
 9891TIP3    H129550   2.483   5.239   4.886
 9891TIP3    H229551   2.409   5.312   4.778
 9892TIP3   OH229552   1.775   4.983   4.834
 9892TIP3    H129553   1.755   5.056   4.771
 9892TIP3    H229554   1.728   4.909   4.789
 9893TIP3   OH229555   2.469   5.075   4.457
 9893TIP3    H129556   2.543   5.058   4.521
 9893TIP3    H229557   2.520   5.110   4.382
 9894TIP3   OH229558   1.411   5.186   4.940
 9894TIP3    H129559   1.494   5.166   4.987
 9894TIP3    H229560   1.423   5.131   4.860
 9895TIP3   OH229561   1.853   5.384   4.730
 9895TIP3    H129562   1.946   5.358   4.744
 9895TIP3    H229563   1.813   5.300   4.699
 9896TIP3   OH229564   3.115   5.352   5.001
 9896TIP3    H129565   3.031   5.398   4.982
 9896TIP3    H229566   3.123   5.369   5.096
 9897TIP3   OH229567   1.775   4.967   5.268
 9897TIP3    H129568   1.715   5.004   5.200
 9897TIP3    H229569   1.723   4.986   5.349
 9898TIP3   OH229570   2.125   5.819   4.276
 9898TIP3    H129571   2.079   5.794   4.194
 9898TIP3    H229572   2.081   5.904   4.297
 9899TIP3   OH229573   1.880   5.741   5.065
 9899TIP3    H129574   1.816   5.805   5.103
 9899TIP3    H229575   1.922   5.794   4.995
 9900TIP3   OH229576   2.684   5.075   4.624
 9900TIP3    H129577   2.676   5.023   4.705
 9900TIP3    H229578   2.738   5.151   4.653
 9901TIP3   OH229579   1.644   5.082   5.053
 9901TIP3    H129580   1.706   5.155   5.074
 9901TIP3    H229581   1.692   5.041   4.977
 9902TIP3   OH229582   1.706   5.933   5.158
 9902TIP3    H129583   1.682   6.020   5.120
 9902TIP3    H229584   1.628   5.920   5.216
 9903TIP3   OH229585   1.104   5.625   4.397
 9903TIP3    H129586   1.064   5.653   4.313
 9903TIP3    H229587   1.134   5.711   4.434
 9904TIP3   OH229588   2.544   6.140   4.636
 9904TIP3    H129589   2.454   6.132   4.676
 9904TIP3    H229590   2.536   6.226   4.591
 9905TIP3   OH229591   2.829   5.058   4.997
 9905TIP3    H129592   2.740   5.079   4.964
 9905TIP3    H229593   2.887   5.080   4.922
 9906TIP3   OH229594   2.131   4.690   4.978
 9906TIP3    H129595   2.119   4.594   4.989
 9906TIP3    H229596   2.052   4.725   5.025
 9907TIP3   OH229597   2.248   6.188   4.313
 9907TIP3    H129598   2.298   6.106   4.290
 9907TIP3    H229599   2.306   6.255   4.270
 9908TIP3   OH229600   2.389   5.973   4.214
 9908TIP3    H129601   2.348   5.895   4.176
 9908TIP3    H229602   2.424   5.939   4.299
 9909TIP3   OH229603   2.770   6.056   4.980
 9909TIP3    H129604   2.759   5.978   4.920
 9909TIP3    H229605   2.752   6.131   4.918
 9910TIP3   OH229606   2.060   5.449   4.235
 9910TIP3    H129607   1.979   5.499   4.212
 9910TIP3    H229608   2.107   5.445   4.150
 9911TIP3   OH229609   2.019   5.232   3.956
 9911TIP3    H129610   2.088   5.281   4.003
 9911TIP3    H229611   2.075   5.167   3.907
 9912TIP3   OH229612   2.965   5.690   4.823
 9912TIP3    H129613   2.882   5.743   4.829
 9912TIP3    H229614   2.993   5.715   4.732
 9913TIP3   OH229615   2.407   5.531   4.209
 9913TIP3    H129616   2.352   5.556   4.287
 9913TIP3    H229617   2.490   5.504   4.253
 9914TIP3   OH229618   2.644   5.571   5.119
 9914TIP3    H129619   2.641   5.655   5.168
 9914TIP3    H229620   2.558   5.576   5.072
 9915TIP3   OH229621   1.640   5.530   4.625
 9915TIP3    H129622   1.598   5.472   4.557
 9915TIP3    H229623   1.718   5.476   4.652
 9916TIP3   OH229624   1.770   5.940   4.773
 9916TIP3    H129625   1.750   5.894   4.691
 9916TIP3    H229626   1.861   5.909   4.793
 9917TIP3   OH229627   1.779   5.500   4.978
 9917TIP3    H129628   1.811   5.482   4.888
 9917TIP3    H229629   1.820   5.586   5.000
 9918TIP3   OH229630   2.302   6.137   4.755
 9918TIP3    H129631   2.287   6.218   4.808
 9918TIP3    H229632   2.288   6.065   4.820
 9919TIP3   OH229633   1.913   6.055   5.303
 9919TIP3    H129634   1.855   6.119   5.350
 9919TIP3    H229635   1.846   6.004   5.254
 9920TIP3   OH229636   2.250   5.388   4.035
 9920TIP3    H129637   2.308   5.447   4.087
 9920TIP3    H229638   2.276   5.414   3.943
 9921TIP3   OH229639   1.667   5.614   5.402
 9921TIP3    H129640   1.673   5.700   5.447
 9921TIP3    H229641   1.572   5.596   5.410
 9922TIP3   OH229642   1.990   6.070   4.308
 9922TIP3    H129643   2.067   6.125   4.332
 9922TIP3    H229644   1.928   6.135   4.273
 9923TIP3   OH229645   1.709   6.225   5.389
 9923TIP3    H129646   1.673   6.223   5.298
 9923TIP3    H229647   1.630   6.204   5.444
 9924TIP3   OH229648   2.764   4.631   4.082
 9924TIP3    H129649   2.683   4.649   4.133
 9924TIP3    H229650   2.775   4.715   4.033
 9925TIP3   OH229651   1.506   5.372   4.431
 9925TIP3    H129652   1.441   5.417   4.372
 9925TIP3    H229653   1.464   5.286   4.442
 9926TIP3   OH229654   2.562   5.998   3.629
 9926TIP3    H129655   2.570   6.096   3.616
 9926TIP3    H229656   2.655   5.969   3.617
 9927TIP3   OH229657   1.287   5.755   5.337
 9927TIP3    H129658   1.223   5.732   5.267
 9927TIP3    H229659   1.324   5.668   5.362
 9928TIP3   OH229660   1.141   5.947   4.972
 9928TIP3    H129661   1.238   5.946   4.963
 9928TIP3    H229662   1.128   6.028   5.023
 9929TIP3   OH229663   3.007   6.398   5.023
 9929TIP3    H129664   3.005   6.302   5.038
 9929TIP3    H229665   2.924   6.424   5.069
 9930TIP3   OH229666   2.113   6.186   5.159
 9930TIP3    H129667   2.114   6.279   5.191
 9930TIP3    H229668   2.042   6.148   5.215
 9931TIP3   OH229669   1.871   6.316   4.111
 9931TIP3    H129670   1.825   6.297   4.027
 9931TIP3    H229671   1.839   6.406   4.133
 9932TIP3   OH229672   1.310   6.165   4.494
 9932TIP3    H129673   1.359   6.156   4.578
 9932TIP3    H229674   1.246   6.092   4.503
 9933TIP3   OH229675   2.074   6.216   3.752
 9933TIP3    H129676   2.133   6.146   3.716
 9933TIP3    H229677   2.108   6.224   3.844
 9934TIP3   OH229678   2.123   6.264   4.023
 9934TIP3    H129679   2.035   6.273   4.065
 9934TIP3    H229680   2.174   6.223   4.094
 9935TIP3   OH229681   2.898   5.532   5.299
 9935TIP3    H129682   2.818   5.546   5.247
 9935TIP3    H229683   2.912   5.436   5.287
 9936TIP3   OH229684   1.494   5.937   5.326
 9936TIP3    H129685   1.543   5.923   5.410
 9936TIP3    H229686   1.419   5.875   5.336
 9937TIP3   OH229687   1.892   4.761   5.110
 9937TIP3    H129688   1.803   4.730   5.084
 9937TIP3    H229689   1.868   4.845   5.152
 9938TIP3   OH229690   2.664   5.305   5.221
 9938TIP3    H129691   2.617   5.303   5.307
 9938TIP3    H229692   2.642   5.394   5.187
 9939TIP3   OH229693   2.325   5.439   3.779
 9939TIP3    H129694   2.292   5.411   3.691
 9939TIP3    H229695   2.405   5.489   3.753
 9940TIP3   OH229696   2.038   4.813   4.079
 9940TIP3    H129697   2.007   4.811   4.171
 9940TIP3    H229698   2.001   4.729   4.047
 9941TIP3   OH229699   1.824   5.277   5.127
 9941TIP3    H129700   1.773   5.299   5.208
 9941TIP3    H229701   1.808   5.358   5.073
 9942TIP3   OH229702   1.708   5.163   4.642
 9942TIP3    H129703   1.615   5.137   4.658
 9942TIP3    H229704   1.722   5.123   4.553
 9943TIP3   OH229705   2.198   5.250   4.368
 9943TIP3    H129706   2.144   5.321   4.328
 9943TIP3    H229707   2.252   5.221   4.292
 9944TIP3   OH229708   2.372   5.527   5.455
 9944TIP3    H129709   2.351   5.456   5.519
 9944TIP3    H229710   2.465   5.546   5.478
 9945TIP3   OH229711   2.356   5.280   4.609
 9945TIP3    H129712   2.297   5.310   4.537
 9945TIP3    H229713   2.388   5.197   4.567
 9946TIP3   OH229714   1.643   5.307   5.337
 9946TIP3    H129715   1.666   5.373   5.405
 9946TIP3    H229716   1.631   5.226   5.389
 9947TIP3   OH229717   1.692   4.783   4.046
 9947TIP3    H129718   1.687   4.780   4.143
 9947TIP3    H229719   1.612   4.835   4.024
 9948TIP3   OH229720   1.235   4.831   4.917
 9948TIP3    H129721   1.311   4.861   4.970
 9948TIP3    H229722   1.277   4.796   4.836
 9949TIP3   OH229723   1.211   4.810   4.436
 9949TIP3    H129724   1.257   4.849   4.359
 9949TIP3    H229725   1.151   4.884   4.458
 9950TIP3   OH229726   2.366   5.526   5.033
 9950TIP3    H129727   2.398   5.454   4.975
 9950TIP3    H229728   2.337   5.475   5.111
 9951TIP3   OH229729   2.033   4.990   4.704
 9951TIP3    H129730   1.951   4.984   4.755
 9951TIP3    H229731   2.101   4.987   4.774
 9952TIP3   OH229732   1.469   5.040   4.713
 9952TIP3    H129733   1.375   5.046   4.686
 9952TIP3    H229734   1.494   4.949   4.688
 9953TIP3   OH229735   1.741   5.040   4.399
 9953TIP3    H129736   1.835   5.053   4.379
 9953TIP3    H229737   1.695   5.063   4.315
 9954TIP3   OH229738   2.528   5.062   4.901
 9954TIP3    H129739   2.493   5.071   4.993
 9954TIP3    H229740   2.465   4.998   4.864
 9955TIP3   OH229741   1.576   5.072   4.178
 9955TIP3    H129742   1.505   5.027   4.130
 9955TIP3    H229743   1.629   5.107   4.104
 9956TIP3   OH229744   2.695   6.749   5.123
 9956TIP3    H129745   2.694   6.775   5.029
 9956TIP3    H229746   2.771   6.801   5.156
 9957TIP3   OH229747   1.654   5.858   5.546
 9957TIP3    H129748   1.734   5.891   5.594
 9957TIP3    H229749   1.589   5.861   5.619
 9958TIP3   OH229750   2.119   5.314   4.800
 9958TIP3    H129751   2.190   5.273   4.748
 9958TIP3    H229752   2.132   5.272   4.887
 9959TIP3   OH229753   1.643   4.802   4.676
 9959TIP3    H129754   1.612   4.721   4.722
 9959TIP3    H229755   1.701   4.766   4.608
 9960TIP3   OH229756   2.095   5.206   5.096
 9960TIP3    H129757   2.006   5.245   5.105
 9960TIP3    H229758   2.152   5.271   5.143
 9961TIP3   OH229759   1.831   5.602   4.185
 9961TIP3    H129760   1.759   5.537   4.174
 9961TIP3    H229761   1.815   5.635   4.276
 9962TIP3   OH229762   2.734   5.837   4.816
 9962TIP3    H129763   2.757   5.886   4.735
 9962TIP3    H229764   2.647   5.797   4.793
 9963TIP3   OH229765   2.290   4.916   4.044
 9963TIP3    H129766   2.193   4.899   4.053
 9963TIP3    H229767   2.300   5.010   4.069
 9964TIP3   OH229768   2.231   5.919   5.183
 9964TIP3    H129769   2.252   5.898   5.275
 9964TIP3    H229770   2.193   6.008   5.189
 9965TIP3   OH229771   2.360   5.160   4.149
 9965TIP3    H129772   2.457   5.166   4.165
 9965TIP3    H229773   2.342   5.240   4.096
 9966TIP3   OH229774   1.521   5.620   4.863
 9966TIP3    H129775   1.561   5.594   4.778
 9966TIP3    H229776   1.563   5.558   4.924
 9967TIP3   OH229777   1.976   5.751   4.004
 9967TIP3    H129778   1.930   5.838   4.012
 9967TIP3    H229779   1.922   5.696   4.065
 9968TIP3   OH229780   1.403   5.543   5.474
 9968TIP3    H129781   1.426   5.532   5.568
 9968TIP3    H229782   1.334   5.477   5.462
 9969TIP3   OH229783   2.128   5.655   5.496
 9969TIP3    H129784   2.070   5.599   5.442
 9969TIP3    H229785   2.217   5.625   5.466
 9970TIP3   OH229786   2.392   6.177   5.077
 9970TIP3    H129787   2.296   6.178   5.089
 9970TIP3    H229788   2.421   6.229   5.155
 9971TIP3   OH229789   2.804   5.249   3.986
 9971TIP3    H129790   2.741   5.203   3.926
 9971TIP3    H229791   2.800   5.337   3.945
 9972TIP3   OH229792   3.020   6.106   5.069
 9972TIP3    H129793   2.922   6.103   5.061
 9972TIP3    H229794   3.045   6.077   4.978
 9973TIP3   OH229795   2.501   6.070   3.894
 9973TIP3    H129796   2.477   6.000   3.957
 9973TIP3    H229797   2.513   6.022   3.810
 9974TIP3   OH229798   2.498   5.699   4.737
 9974TIP3    H129799   2.404   5.673   4.749
 9974TIP3    H229800   2.532   5.620   4.690
 9975TIP3   OH229801   1.623   5.924   4.484
 9975TIP3    H129802   1.626   6.007   4.433
 9975TIP3    H229803   1.528   5.914   4.496
 9976TIP3   OH229804   1.186   5.232   4.187
 9976TIP3    H129805   1.234   5.315   4.208
 9976TIP3    H229806   1.110   5.239   4.249
 9977TIP3   OH229807   1.766   5.694   4.432
 9977TIP3    H129808   1.730   5.783   4.448
 9977TIP3    H229809   1.729   5.644   4.507
 9978TIP3   OH229810   1.893   6.271   4.956
 9978TIP3    H129811   1.933   6.344   4.906
 9978TIP3    H229812   1.969   6.238   5.006
 9979TIP3   OH229813   1.545   6.165   4.339
 9979TIP3    H129814   1.459   6.173   4.384
 9979TIP3    H229815   1.576   6.258   4.342
 9980TIP3   OH229816   2.284   5.905   4.914
 9980TIP3    H129817   2.275   5.904   5.012
 9980TIP3    H229818   2.365   5.853   4.901
 9981TIP3   OH229819   2.254   5.797   3.796
 9981TIP3    H129820   2.307   5.772   3.875
 9981TIP3    H229821   2.166   5.771   3.827
 9982TIP3   OH229822   2.532   6.439   4.965
 9982TIP3    H129823   2.452   6.383   4.957
 9982TIP3    H229824   2.516   6.505   4.893
 9983TIP3   OH229825   2.596   6.274   3.617
 9983TIP3    H129826   2.635   6.347   3.566
 9983TIP3    H229827   2.516   6.320   3.650
 9984TIP3   OH229828   1.617   5.049   5.485
 9984TIP3    H129829   1.521   5.055   5.500
 9984TIP3    H229830   1.644   4.987   5.555
 9985TIP3   OH229831   2.414   5.731   4.013
 9985TIP3    H129832   2.405   5.665   4.085
 9985TIP3    H229833   2.512   5.730   4.001
 9986TIP3   OH229834   1.333   6.134   5.115
 9986TIP3    H129835   1.386   6.060   5.148
 9986TIP3    H229836   1.357   6.204   5.177
 9987TIP3   OH229837   1.622   5.779   3.795
 9987TIP3    H129838   1.638   5.688   3.765
 9987TIP3    H229839   1.605   5.765   3.891
 9988TIP3   OH229840   1.569   5.783   4.069
 9988TIP3    H129841   1.639   5.756   4.129
 9988TIP3    H229842   1.573   5.881   4.075
 9989TIP3   OH229843   1.304   5.477   4.271
 9989TIP3    H129844   1.240   5.522   4.329
 9989TIP3    H229845   1.321   5.547   4.205
 9990TIP3   OH229846   2.457   5.107   5.162
 9990TIP3    H129847   2.533   5.156   5.196
 9990TIP3    H229848   2.433   5.049   5.235
 9991TIP3   OH229849   2.329   4.869   4.326
 9991TIP3    H129850   2.317   4.892   4.232
 9991TIP3    H229851   2.370   4.950   4.362
 9992TIP3   OH229852   1.833   5.981   4.017
 9992TIP3    H129853   1.747   6.010   4.053
 9992TIP3    H229854   1.851   6.052   3.954
 9993TIP3   OH229855   2.023   5.044   4.430
 9993TIP3    H129856   2.089   5.115   4.412
 9993TIP3    H229857   2.028   5.038   4.528
 9994TIP3   OH229858   2.291   5.364   5.241
 9994TIP3    H129859   2.307   5.423   5.317
 9994TIP3    H229860   2.351   5.290   5.260
 9995TIP3   OH229861   2.168   4.777   4.536
 9995TIP3    H129862   2.161   4.854   4.594
 9995TIP3    H229863   2.228   4.812   4.465
 9996TIP3   OH229864   1.575   6.056   4.083
 9996TIP3    H129865   1.545   6.126   4.020
 9996TIP3    H229866   1.559   6.100   4.170
 9997TIP3   OH229867   1.677   4.769   4.322
 9997TIP3    H129868   1.677   4.859   4.359
 9997TIP3    H229869   1.772   4.748   4.331
 9998TIP3   OH229870   2.932   5.263   5.214
 9998TIP3    H129871   2.835   5.261   5.226
 9998TIP3    H229872   2.939   5.221   5.128
 9999TIP3   OH229873   2.583   5.458   4.607
 9999TIP3    H129874   2.507   5.398   4.619
 9999TIP3    H229875   2.655   5.410   4.655
10000TIP3   OH229876   1.293   5.690   4.078
10000TIP3    H129877   1.357   5.763   4.088
10000TIP3    H229878   1.341   5.637   4.011
10001TIP3   OH229879   1.241   4.963   4.211
10001TIP3    H129880   1.240   5.060   4.205
10001TIP3    H229881   1.157   4.939   4.170
10002TIP3   OH229882   2.551   6.411   4.557
10002TIP3    H129883   2.508   6.458   4.482
10002TIP3    H229884   2.645   6.431   4.537
10003TIP3   OH229885   1.627   4.683   5.086
10003TIP3    H129886   1.596   4.650   4.999
10003TIP3    H229887   1.616   4.603   5.142
10004TIP3   OH229888   1.167   5.897   4.468
10004TIP3    H129889   1.094   5.933   4.520
10004TIP3    H229890   1.150   5.938   4.381
10005TIP3   OH229891   1.322   6.439   5.535
10005TIP3    H129892   1.407   6.440   5.584
10005TIP3    H229893   1.300   6.344   5.536
10006TIP3   OH229894   1.806   6.409   5.580
10006TIP3    H129895   1.901   6.391   5.589
10006TIP3    H229896   1.783   6.351   5.505
10007TIP3   OH229897   1.786   5.983   3.710
10007TIP3    H129898   1.730   5.912   3.749
10007TIP3    H229899   1.861   5.930   3.678
10008TIP3   OH229900   2.447   6.311   5.311
10008TIP3    H129901   2.436   6.242   5.381
10008TIP3    H229902   2.522   6.363   5.344
10009TIP3   OH229903   2.223   6.025   3.620
10009TIP3    H129904   2.268   5.961   3.678
10009TIP3    H229905   2.281   6.026   3.541
10010TIP3   OH229906   1.454   5.848   5.736
10010TIP3    H129907   1.470   5.752   5.740
10010TIP3    H229908   1.365   5.851   5.695
10011TIP3   OH229909   1.429   5.501   3.928
10011TIP3    H129910   1.484   5.466   4.001
10011TIP3    H229911   1.497   5.505   3.857
10012TIP3   OH229912   2.063   5.932   5.509
10012TIP3    H129913   2.020   5.947   5.423
10012TIP3    H229914   2.093   5.839   5.502
10013TIP3   OH229915   1.936   5.697   3.736
10013TIP3    H129916   1.940   5.711   3.832
10013TIP3    H229917   1.936   5.599   3.731
10014TIP3   OH229918   2.554   5.938   5.115
10014TIP3    H129919   2.627   5.986   5.071
10014TIP3    H229920   2.482   6.003   5.105
10015TIP3   OH229921   1.571   5.578   5.718
10015TIP3    H129922   1.647   5.522   5.701
10015TIP3    H229923   1.594   5.614   5.806
10016TIP3   OH229924   1.640   5.402   4.153
10016TIP3    H129925   1.614   5.359   4.236
10016TIP3    H229926   1.675   5.326   4.101
10017TIP3   OH229927   1.908   5.466   5.381
10017TIP3    H129928   1.831   5.526   5.386
10017TIP3    H229929   1.954   5.499   5.301
10018TIP3   OH229930   1.738   5.195   3.994
10018TIP3    H129931   1.711   5.195   3.899
10018TIP3    H229932   1.835   5.202   3.986
10019TIP3   OH229933   2.421   5.867   5.514
10019TIP3    H129934   2.505   5.852   5.469
10019TIP3    H229935   2.424   5.801   5.586
10020TIP3   OH229936   2.564   5.529   3.653
10020TIP3    H129937   2.540   5.481   3.571
10020TIP3    H229938   2.531   5.619   3.628
10021TIP3   OH229939   2.032   5.253   5.506
10021TIP3    H129940   2.030   5.174   5.449
10021TIP3    H229941   1.988   5.321   5.450
10022TIP3   OH229942   2.035   5.039   5.315
10022TIP3    H129943   2.060   5.082   5.231
10022TIP3    H229944   1.942   5.015   5.297
10023TIP3   OH229945   2.064   5.577   5.185
10023TIP3    H129946   2.145   5.586   5.134
10023TIP3    H229947   2.006   5.645   5.144
10024TIP3   OH229948   2.644   5.542   5.569
10024TIP3    H129949   2.696   5.461   5.580
10024TIP3    H229950   2.711   5.605   5.536
10025TIP3   OH229951   2.685   5.795   5.303
10025TIP3    H129952   2.626   5.849   5.244
10025TIP3    H229953   2.772   5.816   5.262
10026TIP3   OH229954   1.910   5.368   5.736
10026TIP3    H129955   1.839   5.303   5.750
10026TIP3    H229956   1.942   5.343   5.647
10027TIP3   OH229957   2.169   4.801   5.381
10027TIP3    H129958   2.129   4.888   5.361
10027TIP3    H229959   2.093   4.741   5.366
10028TIP3   OH229960   2.294   5.307   5.596
10028TIP3    H129961   2.282   5.306   5.693
10028TIP3    H229962   2.202   5.287   5.568
10029TIP3   OH229963   2.525   5.249   5.446
10029TIP3    H129964   2.454   5.263   5.512
10029TIP3    H229965   2.602   5.227   5.504
10030TIP3   OH229966   2.748   5.206   5.601
10030TIP3    H129967   2.780   5.115   5.621
10030TIP3    H229968   2.751   5.246   5.690
10031TIP3   OH229969   1.747   5.150   5.787
10031TIP3    H129970   1.753   5.059   5.752
10031TIP3    H229971   1.780   5.138   5.878
10032TIP3   OH229972   2.296   5.008   5.788
10032TIP3    H129973   2.293   4.997   5.692
10032TIP3    H229974   2.239   5.087   5.800
10033TIP3   OH229975   1.545   6.259   3.896
10033TIP3    H129976   1.641   6.256   3.877
10033TIP3    H229977   1.514   6.307   3.817
10034TIP3   OH229978   1.026   5.640   4.114
10034TIP3    H129979   1.120   5.663   4.101
10034TIP3    H229980   1.022   5.551   4.072
10035TIP3   OH229981   0.941   6.252   4.524
10035TIP3    H129982   0.872   6.190   4.492
10035TIP3    H229983   0.984   6.196   4.593
10036TIP3   OH229984   1.077   6.106   4.712
10036TIP3    H129985   1.065   6.033   4.774
10036TIP3    H229986   1.126   6.169   4.769
10037TIP3   OH229987   2.803   6.505   4.511
10037TIP3    H129988   2.828   6.538   4.599
10037TIP3    H229989   2.862   6.554   4.453
10038TIP3   OH229990   2.834   6.525   4.793
10038TIP3    H129991   2.791   6.437   4.790
10038TIP3    H229992   2.907   6.506   4.852
10039TIP3   OH229993   2.880   6.201   5.367
10039TIP3    H129994   2.806   6.209   5.430
10039TIP3    H229995   2.920   6.290   5.371
10040TIP3   OH229996   2.695   5.716   3.988
10040TIP3    H129997   2.765   5.779   3.961
10040TIP3    H229998   2.737   5.675   4.068
10041TIP3   OH229999   2.822   5.583   4.191
10041TIP3    H130000   2.757   5.540   4.250
10041TIP3    H230001   2.886   5.622   4.254
10042TIP3   OH230002   2.876   5.973   4.624
10042TIP3    H130003   2.929   5.911   4.571
10042TIP3    H230004   2.865   6.048   4.563
10043TIP3   OH230005   2.710   6.274   4.820
10043TIP3    H130006   2.640   6.317   4.872
10043TIP3    H230007   2.658   6.226   4.752
10044TIP3   OH230008   2.762   5.490   3.839
10044TIP3    H130009   2.690   5.493   3.772
10044TIP3    H230010   2.735   5.566   3.894
10045TIP3   OH230011   2.633   5.163   3.794
10045TIP3    H130012   2.591   5.203   3.717
10045TIP3    H230013   2.606   5.069   3.784
10046TIP3   OH230014   2.638   5.437   4.338
10046TIP3    H130015   2.646   5.340   4.334
10046TIP3    H230016   2.625   5.453   4.435
10047TIP3   OH230017   1.265   5.510   5.084
10047TIP3    H130018   1.264   5.483   4.990
10047TIP3    H230019   1.362   5.513   5.101
10048TIP3   OH230020   2.926   5.862   5.194
10048TIP3    H130021   3.000   5.798   5.186
10048TIP3    H230022   2.954   5.934   5.135
10049TIP3   OH230023   3.113   5.670   5.214
10049TIP3    H130024   3.038   5.620   5.254
10049TIP3    H230025   3.185   5.605   5.228
10050TIP3   OH230026   2.576   4.897   3.781
10050TIP3    H130027   2.652   4.867   3.835
10050TIP3    H230028   2.504   4.838   3.807
10051TIP3   OH230029   2.633   5.154   4.235
10051TIP3    H130030   2.673   5.065   4.251
10051TIP3    H230031   2.692   5.186   4.165
10052TIP3   OH230032   2.797   5.330   4.729
10052TIP3    H130033   2.883   5.357   4.689
10052TIP3    H230034   2.809   5.367   4.818
10053TIP3   OH230035   2.864   5.472   4.962
10053TIP3    H130036   2.785   5.506   5.010
10053TIP3    H230037   2.895   5.553   4.916
10054TIP3   OH230038   1.479   5.198   5.755
10054TIP3    H130039   1.577   5.193   5.759
10054TIP3    H230040   1.456   5.115   5.802
10055TIP3   OH230041   2.742   4.903   4.272
10055TIP3    H130042   2.790   4.887   4.356
10055TIP3    H230043   2.682   4.826   4.270
10056TIP3   OH230044   1.442   4.890   5.092
10056TIP3    H130045   1.504   4.816   5.101
10056TIP3    H230046   1.504   4.965   5.086
10057TIP3   OH230047   1.246   5.165   5.164
10057TIP3    H130048   1.296   5.158   5.080
10057TIP3    H230049   1.274   5.253   5.195
10058TIP3   OH230050   3.190   5.203   5.332
10058TIP3    H130051   3.103   5.238   5.357
10058TIP3    H230052   3.164   5.126   5.279
10059TIP3   OH230053   2.825   4.841   3.903
10059TIP3    H130054   2.865   4.767   3.852
10059TIP3    H230055   2.893   4.911   3.894
10060TIP3   OH230056   1.228   4.670   4.666
10060TIP3    H130057   1.134   4.668   4.689
10060TIP3    H230058   1.228   4.727   4.586
10061TIP3   OH230059   2.387   6.370   4.170
10061TIP3    H130060   2.440   6.355   4.088
10061TIP3    H230061   2.440   6.437   4.216
10062TIP3   OH230062   1.449   4.748   5.480
10062TIP3    H130063   1.398   4.743   5.563
10062TIP3    H230064   1.382   4.786   5.420
10063TIP3   OH230065   1.490   6.169   5.557
10063TIP3    H130066   1.397   6.146   5.540
10063TIP3    H230067   1.497   6.159   5.653
10064TIP3   OH230068   1.666   6.204   5.103
10064TIP3    H130069   1.616   6.279   5.066
10064TIP3    H230070   1.751   6.220   5.059
10065TIP3   OH230071   2.114   6.452   5.240
10065TIP3    H130072   2.154   6.453   5.330
10065TIP3    H230073   2.180   6.503   5.189
10066TIP3   OH230074   2.293   6.602   5.098
10066TIP3    H130075   2.366   6.551   5.060
10066TIP3    H230076   2.342   6.661   5.160
10067TIP3   OH230077   3.083   4.961   5.199
10067TIP3    H130078   2.991   4.981   5.174
10067TIP3    H230079   3.075   4.864   5.199
10068TIP3   OH230080   1.344   6.463   5.127
10068TIP3    H130081   1.255   6.498   5.103
10068TIP3    H230082   1.352   6.498   5.216
10069TIP3   OH230083   1.579   6.442   4.983
10069TIP3    H130084   1.494   6.455   5.030
10069TIP3    H230085   1.558   6.477   4.895
10070TIP3   OH230086   2.007   6.474   4.780
10070TIP3    H130087   1.936   6.496   4.717
10070TIP3    H230088   2.019   6.560   4.825
10071TIP3   OH230089   2.274   6.412   4.831
10071TIP3    H130090   2.179   6.429   4.813
10071TIP3    H230091   2.315   6.491   4.794
10072TIP3   OH230092   2.484   6.605   4.751
10072TIP3    H130093   2.469   6.690   4.703
10072TIP3    H230094   2.508   6.545   4.677
10073TIP3   OH230095   1.255   6.259   4.871
10073TIP3    H130096   1.280   6.235   4.963
10073TIP3    H230097   1.328   6.215   4.822
10074TIP3   OH230098   1.448   6.129   4.726
10074TIP3    H130099   1.464   6.045   4.776
10074TIP3    H230100   1.538   6.167   4.723
10075TIP3   OH230101   1.713   6.226   4.729
10075TIP3    H130102   1.746   6.134   4.718
10075TIP3    H230103   1.754   6.248   4.815
10076TIP3   OH230104   2.291   4.882   4.819
10076TIP3    H130105   2.247   4.813   4.871
10076TIP3    H230106   2.360   4.832   4.773
10077TIP3   OH230107   2.818   4.764   4.727
10077TIP3    H130108   2.851   4.814   4.650
10077TIP3    H230109   2.721   4.777   4.719
10078TIP3   OH230110   2.910   4.863   4.489
10078TIP3    H130111   2.982   4.811   4.447
10078TIP3    H230112   2.943   4.955   4.473
10079TIP3   OH230113   1.539   4.591   4.838
10079TIP3    H130114   1.447   4.557   4.837
10079TIP3    H230115   1.589   4.507   4.835
10080TIP3   OH230116   1.317   4.459   4.480
10080TIP3    H130117   1.355   4.516   4.411
10080TIP3    H230118   1.295   4.523   4.550
10081TIP3   OH230119   1.976   4.637   4.717
10081TIP3    H130120   2.041   4.678   4.658
10081TIP3    H230121   2.007   4.664   4.804
10082TIP3   OH230122   2.535   4.768   4.700
10082TIP3    H130123   2.528   4.732   4.610
10082TIP3    H230124   2.517   4.688   4.754
10083TIP3   OH230125   2.560   4.690   4.262
10083TIP3    H130126   2.471   4.730   4.271
10083TIP3    H230127   2.546   4.605   4.310
10084TIP3   OH230128   1.043   6.027   4.265
10084TIP3    H130129   0.958   5.996   4.229
10084TIP3    H230130   1.031   6.123   4.254
10085TIP3   OH230131   1.441   4.621   4.247
10085TIP3    H130132   1.491   4.557   4.192
10085TIP3    H230133   1.514   4.675   4.284
10086TIP3   OH230134   1.955   4.794   4.345
10086TIP3    H130135   2.012   4.744   4.405
10086TIP3    H230136   1.978   4.885   4.372
10087TIP3   OH230137   1.814   6.221   3.844
10087TIP3    H130138   1.903   6.243   3.809
10087TIP3    H230139   1.792   6.145   3.786
10088TIP3   OH230140   2.534   6.337   3.937
10088TIP3    H130141   2.525   6.239   3.924
10088TIP3    H230142   2.488   6.370   3.857
10089TIP3   OH230143   1.743   4.871   5.726
10089TIP3    H130144   1.709   4.801   5.784
10089TIP3    H230145   1.838   4.872   5.753
10090TIP3   OH230146   1.991   4.866   5.847
10090TIP3    H130147   2.087   4.859   5.840
10090TIP3    H230148   1.972   4.801   5.919
10091TIP3   OH230149   1.119   6.058   3.904
10091TIP3    H130150   1.117   6.084   3.997
10091TIP3    H230151   1.208   6.017   3.895
10092TIP3   OH230152   2.848   4.967   5.669
10092TIP3    H130153   2.865   4.907   5.744
10092TIP3    H230154   2.916   4.939   5.604
10093TIP3   OH230155   2.763   6.482   5.124
10093TIP3    H130156   2.682   6.449   5.079
10093TIP3    H230157   2.742   6.578   5.128
10094TIP3   OH230158   4.026   5.853   3.894
10094TIP3    H130159   3.999   5.945   3.874
10094TIP3    H230160   3.949   5.805   3.861
10095TIP3   OH230161   4.024   5.853   4.271
10095TIP3    H130162   4.054   5.822   4.358
10095TIP3    H230163   3.983   5.774   4.234
10096TIP3   OH230164   3.326   5.750   4.637
10096TIP3    H130165   3.358   5.684   4.701
10096TIP3    H230166   3.402   5.809   4.631
10097TIP3   OH230167   4.267   6.155   3.953
10097TIP3    H130168   4.254   6.085   4.018
10097TIP3    H230169   4.294   6.230   4.009
10098TIP3   OH230170   3.295   6.158   4.365
10098TIP3    H130171   3.285   6.060   4.368
10098TIP3    H230172   3.391   6.166   4.361
10099TIP3   OH230173   3.003   5.365   4.151
10099TIP3    H130174   2.952   5.447   4.163
10099TIP3    H230175   2.933   5.307   4.115
10100TIP3   OH230176   3.063   5.650   4.318
10100TIP3    H130177   3.111   5.573   4.357
10100TIP3    H230178   3.121   5.675   4.245
10101TIP3   OH230179   3.915   6.618   3.969
10101TIP3    H130180   3.964   6.546   3.923
10101TIP3    H230181   3.909   6.584   4.059
10102TIP3   OH230182   3.824   6.078   4.320
10102TIP3    H130183   3.861   6.002   4.273
10102TIP3    H230184   3.908   6.123   4.344
10103TIP3   OH230185   4.843   5.399   4.315
10103TIP3    H130186   4.865   5.483   4.359
10103TIP3    H230187   4.860   5.421   4.222
10104TIP3   OH230188   4.236   5.582   4.356
10104TIP3    H130189   4.279   5.497   4.375
10104TIP3    H230190   4.206   5.567   4.264
10105TIP3   OH230191   3.571   5.240   4.321
10105TIP3    H130192   3.551   5.313   4.258
10105TIP3    H230193   3.524   5.166   4.276
10106TIP3   OH230194   4.266   5.331   3.943
10106TIP3    H130195   4.339   5.314   4.008
10106TIP3    H230196   4.317   5.367   3.869
10107TIP3   OH230197   3.207   5.443   4.427
10107TIP3    H130198   3.290   5.422   4.473
10107TIP3    H230199   3.218   5.387   4.347
10108TIP3   OH230200   3.649   5.641   4.217
10108TIP3    H130201   3.742   5.614   4.231
10108TIP3    H230202   3.609   5.557   4.186
10109TIP3   OH230203   4.913   5.610   4.487
10109TIP3    H130204   4.828   5.654   4.467
10109TIP3    H230205   4.914   5.620   4.583
10110TIP3   OH230206   3.568   5.224   4.754
10110TIP3    H130207   3.511   5.260   4.683
10110TIP3    H230208   3.515   5.248   4.833
10111TIP3   OH230209   3.921   6.076   3.763
10111TIP3    H130210   3.875   6.050   3.682
10111TIP3    H230211   3.876   6.160   3.784
10112TIP3   OH230212   3.677   5.998   4.552
10112TIP3    H130213   3.612   6.062   4.590
10112TIP3    H230214   3.718   6.051   4.481
10113TIP3   OH230215   4.479   5.332   4.112
10113TIP3    H130216   4.471   5.281   4.193
10113TIP3    H230217   4.534   5.407   4.140
10114TIP3   OH230218   3.441   5.338   4.539
10114TIP3    H130219   3.503   5.412   4.561
10114TIP3    H230220   3.488   5.298   4.463
10115TIP3   OH230221   3.503   6.190   4.646
10115TIP3    H130222   3.478   6.276   4.607
10115TIP3    H230223   3.425   6.176   4.704
10116TIP3   OH230224   2.902   5.882   3.883
10116TIP3    H130225   2.858   5.908   3.800
10116TIP3    H230226   2.930   5.968   3.920
10117TIP3   OH230227   4.340   6.397   4.124
10117TIP3    H130228   4.250   6.388   4.163
10117TIP3    H230229   4.332   6.483   4.079
10118TIP3   OH230230   4.644   5.320   4.504
10118TIP3    H130231   4.552   5.318   4.473
10118TIP3    H230232   4.693   5.328   4.420
10119TIP3   OH230233   3.927   4.948   4.464
10119TIP3    H130234   3.920   4.852   4.481
10119TIP3    H230235   3.848   4.981   4.511
10120TIP3   OH230236   4.044   6.446   3.800
10120TIP3    H130237   4.093   6.363   3.777
10120TIP3    H230238   4.102   6.511   3.756
10121TIP3   OH230239   4.185   6.231   3.700
10121TIP3    H130240   4.146   6.152   3.661
10121TIP3    H230241   4.219   6.196   3.785
10122TIP3   OH230242   4.566   6.313   4.466
10122TIP3    H130243   4.555   6.235   4.408
10122TIP3    H230244   4.549   6.387   4.404
10123TIP3   OH230245   3.857   5.706   3.722
10123TIP3    H130246   3.776   5.755   3.699
10123TIP3    H230247   3.903   5.702   3.637
10124TIP3   OH230248   3.815   5.489   3.442
10124TIP3    H130249   3.885   5.538   3.490
10124TIP3    H230250   3.871   5.424   3.394
10125TIP3   OH230251   4.761   5.948   4.310
10125TIP3    H130252   4.678   6.000   4.316
10125TIP3    H230253   4.789   5.971   4.219
10126TIP3   OH230254   4.203   5.788   3.696
10126TIP3    H130255   4.149   5.813   3.774
10126TIP3    H230256   4.286   5.761   3.740
10127TIP3   OH230257   4.440   5.828   4.604
10127TIP3    H130258   4.436   5.912   4.653
10127TIP3    H230259   4.353   5.831   4.559
10128TIP3   OH230260   3.436   5.787   4.111
10128TIP3    H130261   3.394   5.729   4.044
10128TIP3    H230262   3.513   5.733   4.139
10129TIP3   OH230263   3.567   6.198   4.260
10129TIP3    H130264   3.545   6.151   4.178
10129TIP3    H230265   3.657   6.165   4.279
10130TIP3   OH230266   3.576   5.756   4.466
10130TIP3    H130267   3.607   5.738   4.375
10130TIP3    H230268   3.617   5.843   4.486
10131TIP3   OH230269   4.098   6.394   4.242
10131TIP3    H130270   4.084   6.474   4.297
10131TIP3    H230271   4.084   6.321   4.306
10132TIP3   OH230272   3.709   6.313   4.789
10132TIP3    H130273   3.650   6.376   4.836
10132TIP3    H230274   3.643   6.260   4.741
10133TIP3   OH230275   4.046   5.645   3.521
10133TIP3    H130276   4.105   5.704   3.574
10133TIP3    H230277   4.072   5.671   3.429
10134TIP3   OH230278   3.463   5.871   4.889
10134TIP3    H130279   3.468   5.957   4.935
10134TIP3    H230280   3.368   5.852   4.897
10135TIP3   OH230281   3.787   6.327   3.795
10135TIP3    H130282   3.863   6.382   3.819
10135TIP3    H230283   3.724   6.391   3.759
10136TIP3   OH230284   3.505   6.483   4.876
10136TIP3    H130285   3.469   6.480   4.786
10136TIP3    H230286   3.426   6.461   4.931
10137TIP3   OH230287   4.561   4.888   3.569
10137TIP3    H130288   4.480   4.907   3.620
10137TIP3    H230289   4.572   4.971   3.519
10138TIP3   OH230290   3.302   5.628   3.917
10138TIP3    H130291   3.237   5.673   3.859
10138TIP3    H230292   3.260   5.543   3.930
10139TIP3   OH230293   4.359   6.253   3.117
10139TIP3    H130294   4.367   6.350   3.103
10139TIP3    H230295   4.452   6.224   3.104
10140TIP3   OH230296   3.084   6.012   4.823
10140TIP3    H130297   3.019   5.989   4.754
10140TIP3    H230298   3.120   5.924   4.849
10141TIP3   OH230299   2.937   6.205   4.457
10141TIP3    H130300   3.034   6.200   4.448
10141TIP3    H230301   2.926   6.285   4.510
10142TIP3   OH230302   4.803   6.655   4.510
10142TIP3    H130303   4.801   6.558   4.523
10142TIP3    H230304   4.720   6.680   4.556
10143TIP3   OH230305   3.909   6.443   4.646
10143TIP3    H130306   3.909   6.536   4.679
10143TIP3    H230307   3.837   6.404   4.701
10144TIP3   OH230308   3.667   6.573   3.597
10144TIP3    H130309   3.621   6.553   3.514
10144TIP3    H230310   3.635   6.662   3.619
10145TIP3   OH230311   3.106   6.422   3.980
10145TIP3    H130312   3.154   6.412   4.066
10145TIP3    H230313   3.045   6.347   3.986
10146TIP3   OH230314   3.871   6.473   3.239
10146TIP3    H130315   3.930   6.403   3.203
10146TIP3    H230316   3.904   6.481   3.331
10147TIP3   OH230317   3.920   6.521   3.509
10147TIP3    H130318   3.831   6.531   3.551
10147TIP3    H230319   3.969   6.477   3.581
10148TIP3   OH230320   4.693   5.788   4.785
10148TIP3    H130321   4.613   5.803   4.733
10148TIP3    H230322   4.708   5.693   4.772
10149TIP3   OH230323   3.290   6.194   4.814
10149TIP3    H130324   3.339   6.179   4.897
10149TIP3    H230325   3.215   6.131   4.822
10150TIP3   OH230326   3.686   5.021   4.590
10150TIP3    H130327   3.596   4.990   4.566
10150TIP3    H230328   3.663   5.104   4.635
10151TIP3   OH230329   4.208   5.139   4.778
10151TIP3    H130330   4.269   5.098   4.841
10151TIP3    H230331   4.120   5.113   4.815
10152TIP3   OH230332   4.462   5.564   4.711
10152TIP3    H130333   4.412   5.560   4.796
10152TIP3    H230334   4.437   5.650   4.674
10153TIP3   OH230335   4.120   5.697   3.265
10153TIP3    H130336   4.088   5.668   3.177
10153TIP3    H230337   4.202   5.744   3.240
10154TIP3   OH230338   3.834   5.070   3.566
10154TIP3    H130339   3.802   5.068   3.658
10154TIP3    H230340   3.796   4.985   3.534
10155TIP3   OH230341   3.620   5.533   4.614
10155TIP3    H130342   3.569   5.555   4.695
10155TIP3    H230343   3.605   5.614   4.560
10156TIP3   OH230344   3.503   5.420   4.129
10156TIP3    H130345   3.411   5.394   4.145
10156TIP3    H230346   3.518   5.380   4.040
10157TIP3   OH230347   3.995   5.507   3.855
10157TIP3    H130348   3.940   5.578   3.814
10157TIP3    H230349   4.049   5.478   3.779
10158TIP3   OH230350   4.169   5.786   4.943
10158TIP3    H130351   4.147   5.713   5.005
10158TIP3    H230352   4.263   5.801   4.965
10159TIP3   OH230353   4.153   5.537   4.096
10159TIP3    H130354   4.094   5.566   4.024
10159TIP3    H230355   4.185   5.454   4.054
10160TIP3   OH230356   3.439   5.566   4.823
10160TIP3    H130357   3.462   5.630   4.891
10160TIP3    H230358   3.425   5.484   4.874
10161TIP3   OH230359   3.489   5.041   3.533
10161TIP3    H130360   3.482   5.037   3.630
10161TIP3    H230361   3.409   5.090   3.510
10162TIP3   OH230362   3.031   5.088   4.403
10162TIP3    H130363   3.109   5.118   4.456
10162TIP3    H230364   3.070   5.053   4.322
10163TIP3   OH230365   3.009   5.068   3.923
10163TIP3    H130366   3.054   5.107   3.845
10163TIP3    H230367   2.947   5.140   3.945
10164TIP3   OH230368   4.163   5.783   4.520
10164TIP3    H130369   4.195   5.710   4.462
10164TIP3    H230370   4.134   5.731   4.598
10165TIP3   OH230371   3.828   5.246   4.191
10165TIP3    H130372   3.747   5.241   4.244
10165TIP3    H230373   3.897   5.241   4.259
10166TIP3   OH230374   3.265   5.297   4.199
10166TIP3    H130375   3.171   5.304   4.173
10166TIP3    H230376   3.288   5.206   4.175
10167TIP3   OH230377   3.537   5.296   3.886
10167TIP3    H130378   3.631   5.310   3.865
10167TIP3    H230379   3.491   5.319   3.802
10168TIP3   OH230380   4.323   5.318   4.391
10168TIP3    H130381   4.286   5.330   4.481
10168TIP3    H230382   4.259   5.254   4.354
10169TIP3   OH230383   3.373   5.328   3.666
10169TIP3    H130384   3.300   5.284   3.619
10169TIP3    H230385   3.425   5.363   3.590
10170TIP3   OH230386   4.491   7.006   4.610
10170TIP3    H130387   4.489   7.030   4.515
10170TIP3    H230388   4.568   7.057   4.641
10171TIP3   OH230389   3.450   6.116   5.033
10171TIP3    H130390   3.529   6.148   5.081
10171TIP3    H230391   3.385   6.117   5.106
10172TIP3   OH230392   3.915   5.570   4.288
10172TIP3    H130393   3.986   5.529   4.235
10172TIP3    H230394   3.927   5.528   4.375
10173TIP3   OH230395   3.440   5.059   4.164
10173TIP3    H130396   3.407   4.978   4.208
10173TIP3    H230397   3.493   5.023   4.091
10174TIP3   OH230398   3.891   5.463   4.580
10174TIP3    H130399   3.802   5.502   4.591
10174TIP3    H230400   3.949   5.526   4.629
10175TIP3   OH230401   3.628   5.859   3.671
10175TIP3    H130402   3.555   5.793   3.661
10175TIP3    H230403   3.611   5.892   3.763
10176TIP3   OH230404   4.529   6.094   4.303
10176TIP3    H130405   4.553   6.143   4.221
10176TIP3    H230406   4.443   6.053   4.279
10177TIP3   OH230407   4.086   5.172   3.531
10177TIP3    H130408   3.990   5.156   3.540
10177TIP3    H230409   4.097   5.266   3.556
10178TIP3   OH230410   4.030   6.177   4.669
10178TIP3    H130411   4.046   6.153   4.761
10178TIP3    H230412   3.988   6.265   4.677
10179TIP3   OH230413   4.156   5.417   3.636
10179TIP3    H130414   4.253   5.423   3.652
10179TIP3    H230415   4.139   5.496   3.582
10180TIP3   OH230416   3.320   5.880   4.350
10180TIP3    H130417   3.358   5.851   4.264
10180TIP3    H230418   3.357   5.814   4.411
10181TIP3   OH230419   3.772   6.008   3.491
10181TIP3    H130420   3.726   6.094   3.500
10181TIP3    H230421   3.719   5.952   3.551
10182TIP3   OH230422   3.199   5.800   4.961
10182TIP3    H130423   3.220   5.787   5.056
10182TIP3    H230424   3.129   5.734   4.947
10183TIP3   OH230425   3.924   5.913   4.982
10183TIP3    H130426   3.866   5.856   4.929
10183TIP3    H230427   4.012   5.881   4.953
10184TIP3   OH230428   4.189   6.437   4.563
10184TIP3    H130429   4.093   6.434   4.576
10184TIP3    H230430   4.216   6.487   4.642
10185TIP3   OH230431   4.599   5.506   3.474
10185TIP3    H130432   4.536   5.460   3.413
10185TIP3    H230433   4.597   5.594   3.431
10186TIP3   OH230434   4.816   6.364   4.555
10186TIP3    H130435   4.718   6.359   4.547
10186TIP3    H230436   4.842   6.334   4.465
10187TIP3   OH230437   4.298   6.327   3.381
10187TIP3    H130438   4.274   6.257   3.444
10187TIP3    H230439   4.310   6.279   3.297
10188TIP3   OH230440   4.294   5.956   4.223
10188TIP3    H130441   4.201   5.930   4.236
10188TIP3    H230442   4.329   5.876   4.178
10189TIP3   OH230443   3.419   6.182   3.971
10189TIP3    H130444   3.421   6.264   3.919
10189TIP3    H230445   3.324   6.168   3.982
10190TIP3   OH230446   2.982   5.488   3.674
10190TIP3    H130447   3.029   5.572   3.695
10190TIP3    H230448   2.906   5.494   3.735
10191TIP3   OH230449   3.563   5.951   3.919
10191TIP3    H130450   3.526   6.040   3.936
10191TIP3    H230451   3.525   5.900   3.993
10192TIP3   OH230452   3.689   6.527   4.443
10192TIP3    H130453   3.729   6.600   4.392
10192TIP3    H230454   3.765   6.494   4.493
10193TIP3   OH230455   3.341   6.422   3.826
10193TIP3    H130456   3.254   6.429   3.871
10193TIP3    H230457   3.371   6.515   3.829
10194TIP3   OH230458   4.081   6.162   4.400
10194TIP3    H130459   4.072   6.160   4.498
10194TIP3    H230460   4.160   6.108   4.387
10195TIP3   OH230461   4.050   6.054   3.283
10195TIP3    H130462   4.104   6.029   3.362
10195TIP3    H230463   3.962   6.027   3.314
10196TIP3   OH230464   4.328   6.697   4.453
10196TIP3    H130465   4.250   6.639   4.445
10196TIP3    H230466   4.311   6.761   4.380
10197TIP3   OH230467   4.390   6.527   3.103
10197TIP3    H130468   4.431   6.600   3.053
10197TIP3    H230469   4.311   6.574   3.137
10198TIP3   OH230470   3.404   5.312   4.965
10198TIP3    H130471   3.308   5.327   4.976
10198TIP3    H230472   3.421   5.250   5.036
10199TIP3   OH230473   4.211   5.989   3.501
10199TIP3    H130474   4.201   5.922   3.571
10199TIP3    H230475   4.308   5.987   3.488
10200TIP3   OH230476   3.129   6.392   4.602
10200TIP3    H130477   3.180   6.315   4.633
10200TIP3    H230478   3.155   6.458   4.666
10201TIP3   OH230479   3.419   6.035   3.282
10201TIP3    H130480   3.434   5.944   3.252
10201TIP3    H230481   3.401   6.022   3.377
10202TIP3   OH230482   3.365   6.040   3.555
10202TIP3    H130483   3.435   6.011   3.616
10202TIP3    H230484   3.370   6.137   3.562
10203TIP3   OH230485   3.102   5.734   3.758
10203TIP3    H130486   3.036   5.778   3.815
10203TIP3    H230487   3.116   5.804   3.691
10204TIP3   OH230488   4.245   5.377   4.649
10204TIP3    H130489   4.328   5.409   4.688
10204TIP3    H230490   4.228   5.295   4.699
10205TIP3   OH230491   4.126   5.124   3.812
10205TIP3    H130492   4.114   5.148   3.719
10205TIP3    H230493   4.166   5.206   3.849
10206TIP3   OH230494   3.630   6.238   3.504
10206TIP3    H130495   3.543   6.267   3.540
10206TIP3    H230496   3.646   6.309   3.440
10207TIP3   OH230497   3.819   5.300   3.917
10207TIP3    H130498   3.885   5.371   3.899
10207TIP3    H230499   3.824   5.294   4.014
10208TIP3   OH230500   4.086   5.621   4.726
10208TIP3    H130501   4.106   5.675   4.805
10208TIP3    H230502   4.143   5.543   4.738
10209TIP3   OH230503   3.965   5.031   4.021
10209TIP3    H130504   3.961   5.106   4.083
10209TIP3    H230505   4.024   5.068   3.951
10210TIP3   OH230506   3.372   6.313   3.570
10210TIP3    H130507   3.341   6.383   3.507
10210TIP3    H230508   3.355   6.357   3.657
10211TIP3   OH230509   3.474   5.025   3.810
10211TIP3    H130510   3.472   5.116   3.845
10211TIP3    H230511   3.570   5.006   3.818
10212TIP3   OH230512   4.727   5.522   4.696
10212TIP3    H130513   4.630   5.522   4.712
10212TIP3    H230514   4.728   5.470   4.614
10213TIP3   OH230515   4.379   5.715   4.095
10213TIP3    H130516   4.304   5.655   4.106
10213TIP3    H230517   4.451   5.668   4.142
10214TIP3   OH230518   3.090   5.946   3.565
10214TIP3    H130519   3.154   6.019   3.574
10214TIP3    H230520   3.137   5.893   3.497
10215TIP3   OH230521   3.038   5.219   3.697
10215TIP3    H130522   3.034   5.317   3.692
10215TIP3    H230523   2.953   5.194   3.658
10216TIP3   OH230524   4.347   6.669   4.045
10216TIP3    H130525   4.304   6.716   3.969
10216TIP3    H230526   4.441   6.688   4.024
10217TIP3   OH230527   3.422   4.941   4.570
10217TIP3    H130528   3.391   4.909   4.483
10217TIP3    H230529   3.413   4.861   4.625
10218TIP3   OH230530   2.965   6.158   3.955
10218TIP3    H130531   2.889   6.190   4.006
10218TIP3    H230532   2.945   6.197   3.867
10219TIP3   OH230533   3.118   6.696   5.021
10219TIP3    H130534   3.203   6.696   5.070
10219TIP3    H230535   3.095   6.601   5.022
10220TIP3   OH230536   3.604   6.667   5.066
10220TIP3    H130537   3.698   6.645   5.075
10220TIP3    H230538   3.578   6.608   4.992
10221TIP3   OH230539   3.583   6.240   3.197
10221TIP3    H130540   3.526   6.169   3.236
10221TIP3    H230541   3.657   6.186   3.166
10222TIP3   OH230542   4.242   6.569   4.799
10222TIP3    H130543   4.231   6.499   4.868
10222TIP3    H230544   4.318   6.620   4.832
10223TIP3   OH230545   4.020   6.282   3.107
10223TIP3    H130546   4.063   6.217   3.165
10223TIP3    H230547   4.076   6.281   3.027
10224TIP3   OH230548   3.250   6.104   5.223
10224TIP3    H130549   3.266   6.008   5.227
10224TIP3    H230550   3.161   6.107   5.181
10225TIP3   OH230551   3.226   5.758   3.415
10225TIP3    H130552   3.279   5.722   3.488
10225TIP3    H230553   3.294   5.762   3.344
10226TIP3   OH230554   3.860   6.188   4.996
10226TIP3    H130555   3.815   6.203   4.910
10226TIP3    H230556   3.889   6.095   4.990
10227TIP3   OH230557   3.732   5.954   3.222
10227TIP3    H130558   3.736   5.967   3.319
10227TIP3    H230559   3.733   5.856   3.218
10228TIP3   OH230560   4.351   6.194   4.602
10228TIP3    H130561   4.423   6.243   4.558
10228TIP3    H230562   4.278   6.258   4.591
10229TIP3   OH230563   3.367   5.837   5.205
10229TIP3    H130564   3.442   5.778   5.188
10229TIP3    H230565   3.391   5.871   5.294
10230TIP3   OH230566   3.437   5.659   3.640
10230TIP3    H130567   3.409   5.616   3.723
10230TIP3    H230568   3.471   5.582   3.589
10231TIP3   OH230569   3.704   5.724   4.868
10231TIP3    H130570   3.626   5.783   4.872
10231TIP3    H230571   3.750   5.756   4.788
10232TIP3   OH230572   3.534   5.451   3.480
10232TIP3    H130573   3.507   5.452   3.386
10232TIP3    H230574   3.631   5.459   3.472
10233TIP3   OH230575   4.219   6.125   5.001
10233TIP3    H130576   4.301   6.105   4.954
10233TIP3    H230577   4.219   6.057   5.071
10234TIP3   OH230578   4.358   5.786   3.141
10234TIP3    H130579   4.337   5.737   3.058
10234TIP3    H230580   4.326   5.875   3.114
10235TIP3   OH230581   3.824   5.509   4.995
10235TIP3    H130582   3.827   5.430   4.936
10235TIP3    H230583   3.784   5.576   4.937
10236TIP3   OH230584   3.827   5.298   4.800
10236TIP3    H130585   3.855   5.339   4.716
10236TIP3    H230586   3.733   5.275   4.780
10237TIP3   OH230587   3.859   5.835   4.673
10237TIP3    H130588   3.940   5.840   4.621
10237TIP3    H230589   3.803   5.902   4.630
10238TIP3   OH230590   4.440   5.803   5.055
10238TIP3    H130591   4.490   5.720   5.067
10238TIP3    H230592   4.508   5.862   5.021
10239TIP3   OH230593   4.481   6.053   4.792
10239TIP3    H130594   4.423   6.106   4.732
10239TIP3    H230595   4.568   6.073   4.750
10240TIP3   OH230596   3.705   5.625   5.223
10240TIP3    H130597   3.632   5.561   5.236
10240TIP3    H230598   3.738   5.600   5.135
10241TIP3   OH230599   3.960   5.067   4.866
10241TIP3    H130600   3.907   5.145   4.839
10241TIP3    H230601   3.896   4.994   4.853
10242TIP3   OH230602   4.088   5.567   5.083
10242TIP3    H130603   4.077   5.559   5.179
10242TIP3    H230604   3.997   5.542   5.054
10243TIP3   OH230605   4.328   5.512   4.940
10243TIP3    H130606   4.251   5.517   5.000
10243TIP3    H230607   4.399   5.481   4.999
10244TIP3   OH230608   4.549   5.443   5.098
10244TIP3    H130609   4.591   5.362   5.127
10244TIP3    H230610   4.549   5.498   5.180
10245TIP3   OH230611   3.546   5.400   5.274
10245TIP3    H130612   3.600   5.331   5.234
10245TIP3    H230613   3.574   5.392   5.367
10246TIP3   OH230614   4.014   5.089   5.132
10246TIP3    H130615   4.046   4.998   5.142
10246TIP3    H230616   3.989   5.087   5.037
10247TIP3   OH230617   4.123   5.292   5.281
10247TIP3    H130618   4.088   5.225   5.219
10247TIP3    H230619   4.049   5.356   5.283
10248TIP3   OH230620   3.341   6.516   3.383
10248TIP3    H130621   3.437   6.514   3.363
10248TIP3    H230622   3.310   6.563   3.304
10249TIP3   OH230623   2.822   5.897   3.600
10249TIP3    H130624   2.917   5.919   3.587
10249TIP3    H230625   2.817   5.808   3.559
10250TIP3   OH230626   2.736   6.510   4.012
10250TIP3    H130627   2.668   6.447   3.978
10250TIP3    H230628   2.780   6.454   4.079
10251TIP3   OH230629   2.873   6.364   4.199
10251TIP3    H130630   2.861   6.289   4.259
10251TIP3    H230631   2.922   6.425   4.258
10252TIP3   OH230632   4.598   6.764   3.998
10252TIP3    H130633   4.625   6.795   4.086
10252TIP3    H230634   4.661   6.809   3.940
10253TIP3   OH230635   4.630   6.782   4.280
10253TIP3    H130636   4.586   6.694   4.276
10253TIP3    H230637   4.704   6.760   4.339
10254TIP3   OH230638   4.676   6.458   4.854
10254TIP3    H130639   4.602   6.466   4.917
10254TIP3    H230640   4.716   6.547   4.859
10255TIP3   OH230641   4.491   5.973   3.475
10255TIP3    H130642   4.561   6.035   3.447
10255TIP3    H230643   4.532   5.932   3.554
10256TIP3   OH230644   4.618   5.841   3.678
10256TIP3    H130645   4.554   5.796   3.737
10256TIP3    H230646   4.683   5.878   3.741
10257TIP3   OH230647   4.672   6.230   4.111
10257TIP3    H130648   4.726   6.166   4.059
10257TIP3    H230649   4.661   6.304   4.048
10258TIP3   OH230650   4.506   6.532   4.306
10258TIP3    H130651   4.435   6.573   4.359
10258TIP3    H230652   4.455   6.482   4.238
10259TIP3   OH230653   4.557   5.747   3.326
10259TIP3    H130654   4.486   5.749   3.259
10259TIP3    H230655   4.530   5.823   3.381
10260TIP3   OH230656   4.427   5.421   3.282
10260TIP3    H130657   4.390   5.459   3.202
10260TIP3    H230658   4.401   5.326   3.272
10261TIP3   OH230659   4.434   5.694   3.825
10261TIP3    H130660   4.442   5.597   3.820
10261TIP3    H230661   4.421   5.709   3.921
10262TIP3   OH230662   3.061   5.768   4.571
10262TIP3    H130663   3.059   5.739   4.477
10262TIP3    H230664   3.158   5.770   4.588
10263TIP3   OH230665   4.721   6.120   4.681
10263TIP3    H130666   4.795   6.055   4.673
10263TIP3    H230667   4.749   6.190   4.620
10264TIP3   OH230668   4.908   5.929   4.703
10264TIP3    H130669   4.833   5.878   4.740
10264TIP3    H230670   4.981   5.864   4.715
10265TIP3   OH230671   4.372   5.155   3.269
10265TIP3    H130672   4.449   5.124   3.321
10265TIP3    H230673   4.301   5.094   3.295
10266TIP3   OH230674   4.429   5.411   3.721
10266TIP3    H130675   4.470   5.322   3.737
10266TIP3    H230676   4.488   5.443   3.651
10267TIP3   OH230677   4.593   5.587   4.215
10267TIP3    H130678   4.679   5.614   4.176
10267TIP3    H230679   4.605   5.621   4.305
10268TIP3   OH230680   4.660   5.729   4.448
10268TIP3    H130681   4.582   5.762   4.496
10268TIP3    H230682   4.692   5.810   4.403
10269TIP3   OH230683   3.277   5.453   5.247
10269TIP3    H130684   3.374   5.444   5.250
10269TIP3    H230685   3.250   5.370   5.292
10270TIP3   OH230686   5.103   5.364   5.017
10270TIP3    H130687   5.130   5.276   4.990
10270TIP3    H230688   5.062   5.401   4.935
10271TIP3   OH230689   4.538   5.160   3.759
10271TIP3    H130690   4.586   5.144   3.842
10271TIP3    H230691   4.478   5.083   3.757
10272TIP3   OH230692   3.239   5.148   4.578
10272TIP3    H130693   3.301   5.073   4.586
10272TIP3    H230694   3.300   5.223   4.572
10273TIP3   OH230695   3.044   5.421   4.653
10273TIP3    H130696   3.091   5.413   4.568
10273TIP3    H230697   3.071   5.510   4.681
10274TIP3   OH230698   4.983   5.466   4.797
10274TIP3    H130699   4.899   5.498   4.833
10274TIP3    H230700   4.949   5.389   4.747
10275TIP3   OH230701   4.622   5.097   3.389
10275TIP3    H130702   4.662   5.024   3.338
10275TIP3    H230703   4.689   5.168   3.381
10276TIP3   OH230704   3.024   4.929   4.154
10276TIP3    H130705   2.930   4.924   4.177
10276TIP3    H230706   3.023   4.984   4.074
10277TIP3   OH230707   4.183   6.628   3.656
10277TIP3    H130708   4.236   6.611   3.576
10277TIP3    H230709   4.237   6.692   3.704
10278TIP3   OH230710   3.240   5.002   4.970
10278TIP3    H130711   3.186   4.999   5.051
10278TIP3    H230712   3.176   5.045   4.908
10279TIP3   OH230713   3.286   6.428   5.044
10279TIP3    H130714   3.193   6.402   5.027
10279TIP3    H230715   3.292   6.414   5.140
10280TIP3   OH230716   3.462   6.461   4.591
10280TIP3    H130717   3.412   6.536   4.553
10280TIP3    H230718   3.548   6.476   4.546
10281TIP3   OH230719   3.910   6.709   4.728
10281TIP3    H130720   3.951   6.710   4.817
10281TIP3    H230721   3.976   6.759   4.676
10282TIP3   OH230722   4.088   6.859   4.585
10282TIP3    H130723   4.160   6.807   4.546
10282TIP3    H230724   4.139   6.917   4.647
10283TIP3   OH230725   4.881   5.224   4.674
10283TIP3    H130726   4.789   5.245   4.649
10283TIP3    H230727   4.877   5.129   4.692
10284TIP3   OH230728   3.141   6.722   4.613
10284TIP3    H130729   3.052   6.756   4.590
10284TIP3    H230730   3.148   6.753   4.704
10285TIP3   OH230731   3.376   6.700   4.470
10285TIP3    H130732   3.291   6.713   4.517
10285TIP3    H230733   3.355   6.733   4.381
10286TIP3   OH230734   3.803   6.731   4.267
10286TIP3    H130735   3.732   6.752   4.203
10286TIP3    H230736   3.815   6.817   4.312
10287TIP3   OH230737   4.070   6.670   4.319
10287TIP3    H130738   3.975   6.685   4.300
10287TIP3    H230739   4.111   6.748   4.280
10288TIP3   OH230740   4.282   6.863   4.237
10288TIP3    H130741   4.265   6.947   4.189
10288TIP3    H230742   4.304   6.801   4.164
10289TIP3   OH230743   3.052   6.516   4.359
10289TIP3    H130744   3.078   6.491   4.450
10289TIP3    H230745   3.123   6.471   4.309
10290TIP3   OH230746   3.244   6.386   4.214
10290TIP3    H130747   3.260   6.302   4.263
10290TIP3    H230748   3.334   6.423   4.210
10291TIP3   OH230749   3.510   6.483   4.216
10291TIP3    H130750   3.541   6.391   4.204
10291TIP3    H230751   3.551   6.504   4.302
10292TIP3   OH230752   4.084   5.138   4.301
10292TIP3    H130753   4.042   5.070   4.358
10292TIP3    H230754   4.157   5.088   4.261
10293TIP3   OH230755   4.615   5.016   4.214
10293TIP3    H130756   4.648   5.068   4.137
10293TIP3    H230757   4.519   5.033   4.209
10294TIP3   OH230758   4.706   5.120   3.976
10294TIP3    H130759   4.778   5.068   3.934
10294TIP3    H230760   4.739   5.211   3.960
10295TIP3   OH230761   3.336   4.847   4.324
10295TIP3    H130762   3.243   4.814   4.323
10295TIP3    H230763   3.385   4.763   4.321
10296TIP3   OH230764   3.121   4.715   3.969
10296TIP3    H130765   3.151   4.774   3.897
10296TIP3    H230766   3.091   4.779   4.036
10297TIP3   OH230767   3.777   4.881   4.203
10297TIP3    H130768   3.837   4.931   4.145
10297TIP3    H230769   3.801   4.916   4.290
10298TIP3   OH230770   4.330   5.026   4.187
10298TIP3    H130771   4.324   4.990   4.098
10298TIP3    H230772   4.313   4.945   4.242
10299TIP3   OH230773   4.356   4.946   3.748
10299TIP3    H130774   4.268   4.988   3.758
10299TIP3    H230775   4.341   4.862   3.796
10300TIP3   OH230776   2.840   6.284   3.751
10300TIP3    H130777   2.755   6.251   3.716
10300TIP3    H230778   2.826   6.379   3.739
10301TIP3   OH230779   3.237   4.877   3.734
10301TIP3    H130780   3.286   4.814   3.678
10301TIP3    H230781   3.310   4.931   3.771
10302TIP3   OH230782   3.752   5.050   3.833
10302TIP3    H130783   3.811   5.003   3.893
10302TIP3    H230784   3.773   5.142   3.858
10303TIP3   OH230785   3.610   6.478   3.331
10303TIP3    H130786   3.699   6.499   3.296
10303TIP3    H230787   3.588   6.402   3.273
10304TIP3   OH230788   4.331   6.593   3.424
10304TIP3    H130789   4.323   6.496   3.413
10304TIP3    H230790   4.284   6.625   3.344
10305TIP3   OH230791   3.790   5.133   5.340
10305TIP3    H130792   3.860   5.118   5.274
10305TIP3    H230793   3.786   5.046   5.383
10306TIP3   OH230794   2.915   6.315   3.391
10306TIP3    H130795   2.912   6.340   3.484
10306TIP3    H230796   3.004   6.274   3.382
10307TIP3   OH230797   4.558   6.739   4.612
10307TIP3    H130798   4.478   6.705   4.566
10307TIP3    H230799   4.537   6.834   4.615
10308TIP3   OH230800   5.822   6.108   3.384
10308TIP3    H130801   5.794   6.198   3.359
10308TIP3    H230802   5.750   6.056   3.342
10309TIP3   OH230803   5.817   6.113   3.760
10309TIP3    H130804   5.849   6.076   3.844
10309TIP3    H230805   5.781   6.035   3.715
10310TIP3   OH230806   5.121   6.008   4.125
10310TIP3    H130807   5.153   5.941   4.188
10310TIP3    H230808   5.200   6.062   4.113
10311TIP3   OH230809   6.061   6.416   3.439
10311TIP3    H130810   6.051   6.341   3.499
10311TIP3    H230811   6.092   6.486   3.497
10312TIP3   OH230812   5.091   6.415   3.852
10312TIP3    H130813   5.082   6.317   3.855
10312TIP3    H230814   5.188   6.423   3.847
10313TIP3   OH230815   4.798   5.621   3.639
10313TIP3    H130816   4.748   5.704   3.649
10313TIP3    H230817   4.729   5.564   3.601
10314TIP3   OH230818   4.860   5.907   3.805
10314TIP3    H130819   4.907   5.830   3.843
10314TIP3    H230820   4.917   5.930   3.730
10315TIP3   OH230821   5.707   6.871   3.456
10315TIP3    H130822   5.762   6.804   3.410
10315TIP3    H230823   5.711   6.839   3.547
10316TIP3   OH230824   5.620   6.336   3.807
10316TIP3    H130825   5.656   6.258   3.762
10316TIP3    H230826   5.704   6.379   3.831
10317TIP3   OH230827   6.640   5.655   3.798
10317TIP3    H130828   6.660   5.740   3.843
10317TIP3    H230829   6.660   5.677   3.706
10318TIP3   OH230830   6.029   5.838   3.843
10318TIP3    H130831   6.075   5.754   3.861
10318TIP3    H230832   6.001   5.824   3.751
10319TIP3   OH230833   5.366   5.497   3.809
10319TIP3    H130834   5.348   5.569   3.745
10319TIP3    H230835   5.321   5.423   3.762
10320TIP3   OH230836   6.061   5.589   3.433
10320TIP3    H130837   6.138   5.573   3.493
10320TIP3    H230838   6.107   5.624   3.354
10321TIP3   OH230839   5.003   5.700   3.914
10321TIP3    H130840   5.086   5.679   3.960
10321TIP3    H230841   5.014   5.644   3.834
10322TIP3   OH230842   5.444   5.897   3.707
10322TIP3    H130843   5.538   5.872   3.718
10322TIP3    H230844   5.405   5.814   3.673
10323TIP3   OH230845   6.709   5.867   3.973
10323TIP3    H130846   6.622   5.908   3.953
10323TIP3    H230847   6.715   5.887   4.068
10324TIP3   OH230848   5.365   5.482   4.241
10324TIP3    H130849   5.307   5.517   4.170
10324TIP3    H230850   5.312   5.504   4.320
10325TIP3   OH230851   5.717   6.326   3.255
10325TIP3    H130852   5.673   6.295   3.173
10325TIP3    H230853   5.669   6.407   3.275
10326TIP3   OH230854   5.473   6.255   4.038
10326TIP3    H130855   5.409   6.319   4.076
10326TIP3    H230856   5.515   6.307   3.967
10327TIP3   OH230857   6.277   5.588   3.599
10327TIP3    H130858   6.272   5.536   3.679
10327TIP3    H230859   6.332   5.663   3.626
10328TIP3   OH230860   5.237   5.595   4.026
10328TIP3    H130861   5.299   5.668   4.047
10328TIP3    H230862   5.284   5.554   3.950
10329TIP3   OH230863   5.299   6.447   4.134
10329TIP3    H130864   5.273   6.532   4.094
10329TIP3    H230865   5.221   6.432   4.191
10330TIP3   OH230866   4.697   6.138   3.370
10330TIP3    H130867   4.656   6.163   3.285
10330TIP3    H230868   4.726   6.223   3.406
10331TIP3   OH230869   6.135   6.654   3.613
10331TIP3    H130870   6.044   6.645   3.649
10331TIP3    H230871   6.128   6.739   3.565
10332TIP3   OH230872   6.426   5.597   3.978
10332TIP3    H130873   6.337   5.582   3.942
10332TIP3    H230874   6.482   5.591   3.898
10333TIP3   OH230875   5.721   5.207   3.947
10333TIP3    H130876   5.718   5.112   3.963
10333TIP3    H230877   5.643   5.238   3.997
10334TIP3   OH230878   5.846   6.703   3.295
10334TIP3    H130879   5.895   6.621   3.269
10334TIP3    H230880   5.894   6.768   3.239
10335TIP3   OH230881   5.969   6.485   3.187
10335TIP3    H130882   5.960   6.402   3.137
10335TIP3    H230883   6.009   6.452   3.271
10336TIP3   OH230884   6.361   6.569   3.953
10336TIP3    H130885   6.352   6.491   3.894
10336TIP3    H230886   6.346   6.643   3.891
10337TIP3   OH230887   5.659   5.963   3.211
10337TIP3    H130888   5.577   6.008   3.181
10337TIP3    H230889   5.704   5.945   3.125
10338TIP3   OH230890   6.557   6.205   3.798
10338TIP3    H130891   6.474   6.257   3.803
10338TIP3    H230892   6.586   6.227   3.706
10339TIP3   OH230893   6.005   6.054   3.185
10339TIP3    H130894   5.948   6.072   3.263
10339TIP3    H230895   6.085   6.019   3.228
10340TIP3   OH230896   6.236   6.085   4.091
10340TIP3    H130897   6.232   6.170   4.139
10340TIP3    H230898   6.149   6.087   4.045
10341TIP3   OH230899   5.233   6.045   3.598
10341TIP3    H130900   5.188   5.986   3.533
10341TIP3    H230901   5.309   5.990   3.626
10342TIP3   OH230902   5.363   6.456   3.746
10342TIP3    H130903   5.340   6.407   3.665
10342TIP3    H230904   5.452   6.421   3.765
10343TIP3   OH230905   5.369   6.013   3.954
10343TIP3    H130906   5.401   5.992   3.864
10343TIP3    H230907   5.413   6.099   3.972
10344TIP3   OH230908   5.891   6.652   3.728
10344TIP3    H130909   5.881   6.730   3.785
10344TIP3    H230910   5.881   6.577   3.791
10345TIP3   OH230911   5.505   6.571   4.277
10345TIP3    H130912   5.446   6.633   4.323
10345TIP3    H230913   5.439   6.517   4.228
10346TIP3   OH230914   5.844   5.909   3.012
10346TIP3    H130915   5.909   5.966   3.057
10346TIP3    H230916   5.865   5.925   2.917
10347TIP3   OH230917   5.260   6.127   4.377
10347TIP3    H130918   5.264   6.214   4.423
10347TIP3    H230919   5.164   6.109   4.382
10348TIP3   OH230920   5.594   6.594   3.236
10348TIP3    H130921   5.664   6.635   3.291
10348TIP3    H230922   5.519   6.656   3.251
10349TIP3   OH230923   5.301   6.741   4.363
10349TIP3    H130924   5.266   6.736   4.272
10349TIP3    H230925   5.221   6.718   4.417
10350TIP3   OH230926   6.357   5.143   3.056
10350TIP3    H130927   6.276   5.164   3.107
10350TIP3    H230928   6.369   5.227   3.006
10351TIP3   OH230929   5.094   5.886   3.412
10351TIP3    H130930   5.034   5.930   3.347
10351TIP3    H230931   5.058   5.797   3.414
10352TIP3   OH230932   6.156   6.513   2.608
10352TIP3    H130933   6.165   6.609   2.589
10352TIP3    H230934   6.247   6.482   2.592
10353TIP3   OH230935   4.880   6.269   4.310
10353TIP3    H130936   4.815   6.245   4.241
10353TIP3    H230937   4.917   6.181   4.336
10354TIP3   OH230938   4.734   6.462   3.942
10354TIP3    H130939   4.830   6.454   3.934
10354TIP3    H230940   4.726   6.541   3.998
10355TIP3   OH230941   6.599   6.911   3.997
10355TIP3    H130942   6.597   6.814   4.010
10355TIP3    H230943   6.515   6.936   4.043
10356TIP3   OH230944   5.705   6.700   4.133
10356TIP3    H130945   5.705   6.793   4.165
10356TIP3    H230946   5.633   6.661   4.188
10357TIP3   OH230947   5.469   6.826   3.081
10357TIP3    H130948   5.423   6.804   2.999
10357TIP3    H230949   5.439   6.917   3.098
10358TIP3   OH230950   4.901   6.681   3.469
10358TIP3    H130951   4.949   6.669   3.554
10358TIP3    H230952   4.846   6.600   3.470
10359TIP3   OH230953   6.488   6.043   4.272
10359TIP3    H130954   6.410   6.058   4.217
10359TIP3    H230955   6.503   5.947   4.258
10360TIP3   OH230956   5.085   6.452   4.301
10360TIP3    H130957   5.135   6.434   4.384
10360TIP3    H230958   5.011   6.388   4.308
10361TIP3   OH230959   5.484   5.274   4.081
10361TIP3    H130960   5.394   5.244   4.057
10361TIP3    H230961   5.461   5.359   4.123
10362TIP3   OH230962   6.009   5.393   4.277
10362TIP3    H130963   6.056   5.373   4.359
10362TIP3    H230964   5.917   5.369   4.302
10363TIP3   OH230965   6.263   5.822   4.200
10363TIP3    H130966   6.209   5.817   4.282
10363TIP3    H230967   6.235   5.906   4.160
10364TIP3   OH230968   5.918   5.962   2.755
10364TIP3    H130969   5.875   5.926   2.675
10364TIP3    H230970   6.001   5.998   2.717
10365TIP3   OH230971   5.628   5.322   3.051
10365TIP3    H130972   5.598   5.321   3.144
10365TIP3    H230973   5.588   5.239   3.019
10366TIP3   OH230974   5.416   5.790   4.101
10366TIP3    H130975   5.364   5.812   4.182
10366TIP3    H230976   5.400   5.871   4.047
10367TIP3   OH230977   5.300   5.677   3.616
10367TIP3    H130978   5.207   5.650   3.631
10367TIP3    H230979   5.315   5.638   3.527
10368TIP3   OH230980   5.790   5.763   3.344
10368TIP3    H130981   5.738   5.834   3.300
10368TIP3    H230982   5.846   5.732   3.270
10369TIP3   OH230983   5.965   6.044   4.432
10369TIP3    H130984   5.943   5.970   4.492
10369TIP3    H230985   6.060   6.056   4.451
10370TIP3   OH230986   5.947   5.794   3.582
10370TIP3    H130987   5.889   5.822   3.508
10370TIP3    H230988   5.981   5.711   3.542
10371TIP3   OH230989   5.235   5.823   4.310
10371TIP3    H130990   5.259   5.887   4.378
10371TIP3    H230991   5.222   5.741   4.361
10372TIP3   OH230992   5.279   5.292   3.023
10372TIP3    H130993   5.273   5.293   3.120
10372TIP3    H230994   5.204   5.349   2.997
10373TIP3   OH230995   4.828   5.345   3.891
10373TIP3    H130996   4.905   5.375   3.942
10373TIP3    H230997   4.866   5.310   3.809
10374TIP3   OH230998   4.805   5.323   3.412
10374TIP3    H130999   4.849   5.362   3.333
10374TIP3    H231000   4.743   5.396   3.433
10375TIP3   OH231001   5.960   6.039   4.007
10375TIP3    H131002   5.991   5.967   3.948
10375TIP3    H231003   5.930   5.987   4.085
10376TIP3   OH231004   5.625   5.502   3.678
10376TIP3    H131005   5.544   5.498   3.732
10376TIP3    H231006   5.695   5.498   3.746
10377TIP3   OH231007   5.061   5.554   3.687
10377TIP3    H131008   4.967   5.560   3.659
10377TIP3    H231009   5.086   5.463   3.661
10378TIP3   OH231010   5.333   5.554   3.372
10378TIP3    H131011   5.428   5.567   3.352
10378TIP3    H231012   5.289   5.576   3.288
10379TIP3   OH231013   6.119   5.575   3.880
10379TIP3    H131014   6.079   5.586   3.969
10379TIP3    H231015   6.058   5.512   3.839
10380TIP3   OH231016   5.169   5.585   3.152
10380TIP3    H131017   5.100   5.540   3.100
10380TIP3    H231018   5.224   5.621   3.079
10381TIP3   OH231019   6.286   7.264   4.096
10381TIP3    H131020   6.286   7.286   4.001
10381TIP3    H231021   6.367   7.311   4.127
10382TIP3   OH231022   5.246   6.374   4.520
10382TIP3    H131023   5.325   6.405   4.567
10382TIP3    H231024   5.181   6.373   4.593
10383TIP3   OH231025   5.712   5.826   3.774
10383TIP3    H131026   5.781   5.788   3.718
10383TIP3    H231027   5.727   5.782   3.859
10384TIP3   OH231028   5.237   5.317   3.650
10384TIP3    H131029   5.206   5.234   3.692
10384TIP3    H231030   5.287   5.283   3.574
10385TIP3   OH231031   5.687   5.718   4.071
10385TIP3    H131032   5.598   5.758   4.078
10385TIP3    H231033   5.745   5.781   4.116
10386TIP3   OH231034   5.429   6.109   3.159
10386TIP3    H131035   5.350   6.052   3.143
10386TIP3    H231036   5.407   6.147   3.248
10387TIP3   OH231037   6.325   6.352   3.790
10387TIP3    H131038   6.350   6.399   3.708
10387TIP3    H231039   6.240   6.309   3.766
10388TIP3   OH231040   5.884   5.420   3.030
10388TIP3    H131041   5.787   5.407   3.027
10388TIP3    H231042   5.893   5.514   3.006
10389TIP3   OH231043   5.825   6.433   4.156
10389TIP3    H131044   5.843   6.409   4.247
10389TIP3    H231045   5.785   6.521   4.164
10390TIP3   OH231046   5.951   5.682   3.136
10390TIP3    H131047   6.048   5.685   3.130
10390TIP3    H231048   5.922   5.744   3.065
10391TIP3   OH231049   5.116   6.137   3.836
10391TIP3    H131050   5.153   6.109   3.750
10391TIP3    H231051   5.154   6.071   3.896
10392TIP3   OH231052   5.580   6.295   3.022
10392TIP3    H131053   5.500   6.341   2.989
10392TIP3    H231054   5.540   6.208   3.043
10393TIP3   OH231055   4.994   6.058   4.448
10393TIP3    H131056   5.015   6.043   4.543
10393TIP3    H231057   4.925   5.991   4.432
10394TIP3   OH231058   5.720   6.169   4.469
10394TIP3    H131059   5.662   6.113   4.415
10394TIP3    H231060   5.809   6.137   4.441
10395TIP3   OH231061   5.985   6.695   4.050
10395TIP3    H131062   5.888   6.690   4.062
10395TIP3    H231063   6.012   6.745   4.129
10396TIP3   OH231064   6.397   5.762   2.959
10396TIP3    H131065   6.336   5.715   2.897
10396TIP3    H231066   6.391   5.850   2.918
10397TIP3   OH231067   6.612   6.621   4.042
10397TIP3    H131068   6.514   6.616   4.033
10397TIP3    H231069   6.638   6.591   3.952
10398TIP3   OH231070   6.088   6.581   2.869
10398TIP3    H131071   6.072   6.504   2.925
10398TIP3    H231072   6.102   6.541   2.781
10399TIP3   OH231073   6.090   6.212   3.711
10399TIP3    H131074   5.997   6.186   3.722
10399TIP3    H231075   6.125   6.133   3.665
10400TIP3   OH231076   5.216   6.441   3.462
10400TIP3    H131077   5.214   6.522   3.406
10400TIP3    H231078   5.122   6.418   3.465
10401TIP3   OH231079   4.779   5.745   3.160
10401TIP3    H131080   4.827   5.827   3.181
10401TIP3    H231081   4.703   5.751   3.222
10402TIP3   OH231082   5.363   6.211   3.409
10402TIP3    H131083   5.320   6.297   3.426
10402TIP3    H231084   5.324   6.157   3.480
10403TIP3   OH231085   5.485   6.784   3.930
10403TIP3    H131086   5.526   6.856   3.879
10403TIP3    H231087   5.561   6.750   3.979
10404TIP3   OH231088   5.137   6.683   3.322
10404TIP3    H131089   5.050   6.688   3.365
10404TIP3    H231090   5.164   6.777   3.321
10405TIP3   OH231091   5.878   6.420   3.886
10405TIP3    H131092   5.869   6.416   3.984
10405TIP3    H231093   5.955   6.364   3.871
10406TIP3   OH231094   5.840   6.320   2.772
10406TIP3    H131095   5.889   6.289   2.851
10406TIP3    H231096   5.758   6.268   2.778
10407TIP3   OH231097   6.123   6.955   3.941
10407TIP3    H131098   6.046   6.896   3.932
10407TIP3    H231099   6.108   7.018   3.867
10408TIP3   OH231100   6.189   6.787   2.591
10408TIP3    H131101   6.227   6.856   2.533
10408TIP3    H231102   6.109   6.834   2.620
10409TIP3   OH231103   5.200   5.569   4.454
10409TIP3    H131104   5.104   5.585   4.464
10409TIP3    H231105   5.212   5.494   4.513
10410TIP3   OH231106   6.007   6.257   2.996
10410TIP3    H131107   5.996   6.183   3.059
10410TIP3    H231108   6.102   6.246   2.974
10411TIP3   OH231109   4.924   6.649   4.089
10411TIP3    H131110   4.975   6.571   4.116
10411TIP3    H231111   4.954   6.713   4.155
10412TIP3   OH231112   4.898   5.989   3.244
10412TIP3    H131113   4.833   6.035   3.301
10412TIP3    H231114   4.916   6.058   3.178
10413TIP3   OH231115   6.039   5.633   4.141
10413TIP3    H131116   6.126   5.663   4.171
10413TIP3    H231117   6.026   5.549   4.190
10414TIP3   OH231118   5.921   5.381   3.302
10414TIP3    H131119   5.906   5.402   3.207
10414TIP3    H231120   5.960   5.465   3.334
10415TIP3   OH231121   5.433   6.518   2.994
10415TIP3    H131122   5.346   6.535   3.039
10415TIP3    H231123   5.394   6.495   2.906
10416TIP3   OH231124   5.614   5.557   3.403
10416TIP3    H131125   5.681   5.626   3.382
10416TIP3    H231126   5.622   5.552   3.500
10417TIP3   OH231127   5.881   5.877   4.213
10417TIP3    H131128   5.904   5.929   4.293
10417TIP3    H231129   5.939   5.799   4.222
10418TIP3   OH231130   5.761   5.287   3.508
10418TIP3    H131131   5.756   5.364   3.567
10418TIP3    H231132   5.821   5.323   3.437
10419TIP3   OH231133   5.183   6.579   3.068
10419TIP3    H131134   5.145   6.635   2.998
10419TIP3    H231135   5.152   6.621   3.150
10420TIP3   OH231136   5.268   5.282   3.301
10420TIP3    H131137   5.268   5.374   3.333
10420TIP3    H231138   5.365   5.263   3.306
10421TIP3   OH231139   6.528   5.770   4.186
10421TIP3    H131140   6.431   5.775   4.201
10421TIP3    H231141   6.525   5.721   4.101
10422TIP3   OH231142   6.174   5.973   3.583
10422TIP3    H131143   6.100   5.911   3.590
10422TIP3    H231144   6.247   5.925   3.628
10423TIP3   OH231145   4.890   6.207   3.053
10423TIP3    H131146   4.941   6.289   3.046
10423TIP3    H231147   4.937   6.151   2.987
10424TIP3   OH231148   4.831   5.475   3.187
10424TIP3    H131149   4.832   5.573   3.179
10424TIP3    H231150   4.751   5.451   3.140
10425TIP3   OH231151   6.143   6.926   3.532
10425TIP3    H131152   6.101   6.972   3.456
10425TIP3    H231153   6.237   6.945   3.512
10426TIP3   OH231154   5.219   5.196   4.060
10426TIP3    H131155   5.188   5.165   3.972
10426TIP3    H231156   5.209   5.116   4.115
10427TIP3   OH231157   4.766   6.423   3.444
10427TIP3    H131158   4.685   6.448   3.491
10427TIP3    H231159   4.744   6.455   3.354
10428TIP3   OH231160   4.913   6.952   4.509
10428TIP3    H131161   4.999   6.951   4.556
10428TIP3    H231162   4.891   6.857   4.508
10429TIP3   OH231163   5.400   6.923   4.553
10429TIP3    H131164   5.494   6.900   4.561
10429TIP3    H231165   5.374   6.865   4.479
10430TIP3   OH231166   6.035   6.827   4.288
10430TIP3    H131167   6.027   6.756   4.355
10430TIP3    H231168   6.114   6.876   4.318
10431TIP3   OH231169   5.806   6.553   2.591
10431TIP3    H131170   5.846   6.491   2.654
10431TIP3    H231171   5.866   6.547   2.514
10432TIP3   OH231172   5.046   6.361   4.711
10432TIP3    H131173   5.063   6.265   4.713
10432TIP3    H231174   4.958   6.364   4.668
10433TIP3   OH231175   5.023   6.020   2.905
10433TIP3    H131176   5.079   5.977   2.972
10433TIP3    H231177   5.086   6.015   2.829
10434TIP3   OH231178   5.654   6.444   4.483
10434TIP3    H131179   5.612   6.459   4.396
10434TIP3    H231180   5.685   6.352   4.477
10435TIP3   OH231181   5.554   6.201   2.716
10435TIP3    H131182   5.474   6.242   2.752
10435TIP3    H231183   5.528   6.108   2.707
10436TIP3   OH231184   6.147   6.452   4.091
10436TIP3    H131185   6.220   6.498   4.045
10436TIP3    H231186   6.075   6.515   4.076
10437TIP3   OH231187   5.163   6.096   4.692
10437TIP3    H131188   5.235   6.035   4.673
10437TIP3    H231189   5.187   6.127   4.781
10438TIP3   OH231190   5.230   5.913   3.123
10438TIP3    H131191   5.211   5.865   3.205
10438TIP3    H231192   5.266   5.842   3.066
10439TIP3   OH231193   5.500   5.980   4.356
10439TIP3    H131194   5.423   6.040   4.358
10439TIP3    H231195   5.547   6.012   4.275
10440TIP3   OH231196   5.329   5.702   2.965
10440TIP3    H131197   5.301   5.684   2.873
10440TIP3    H231198   5.419   5.730   2.941
10441TIP3   OH231199   6.016   6.383   4.489
10441TIP3    H131200   6.096   6.362   4.438
10441TIP3    H231201   6.016   6.313   4.557
10442TIP3   OH231202   6.157   6.042   2.625
10442TIP3    H131203   6.133   5.993   2.543
10442TIP3    H231204   6.124   6.131   2.600
10443TIP3   OH231205   5.619   5.764   4.482
10443TIP3    H131206   5.624   5.687   4.422
10443TIP3    H231207   5.580   5.832   4.423
10444TIP3   OH231208   5.623   5.555   4.289
10444TIP3    H131209   5.653   5.596   4.205
10444TIP3    H231210   5.530   5.532   4.267
10445TIP3   OH231211   5.656   6.092   4.162
10445TIP3    H131212   5.736   6.095   4.108
10445TIP3    H231213   5.599   6.159   4.117
10446TIP3   OH231214   6.239   6.058   4.545
10446TIP3    H131215   6.286   5.974   4.547
10446TIP3    H231216   6.305   6.117   4.507
10447TIP3   OH231217   6.277   6.311   4.280
10447TIP3    H131218   6.219   6.363   4.219
10447TIP3    H231219   6.364   6.329   4.239
10448TIP3   OH231220   5.502   5.883   4.711
10448TIP3    H131221   5.427   5.821   4.723
10448TIP3    H231222   5.534   5.857   4.622
10449TIP3   OH231223   5.754   5.322   4.353
10449TIP3    H131224   5.705   5.404   4.330
10449TIP3    H231225   5.686   5.253   4.339
10450TIP3   OH231226   5.883   5.825   4.570
10450TIP3    H131227   5.873   5.815   4.666
10450TIP3    H231228   5.793   5.798   4.541
10451TIP3   OH231229   6.121   5.774   4.425
10451TIP3    H131230   6.045   5.773   4.486
10451TIP3    H231231   6.195   5.746   4.482
10452TIP3   OH231232   6.347   5.724   4.577
10452TIP3    H131233   6.365   5.632   4.605
10452TIP3    H231234   6.346   5.769   4.664
10453TIP3   OH231235   5.340   5.661   4.760
10453TIP3    H131236   5.390   5.594   4.712
10453TIP3    H231237   5.374   5.647   4.852
10454TIP3   OH231238   5.881   5.330   4.596
10454TIP3    H131239   5.889   5.235   4.616
10454TIP3    H231240   5.828   5.327   4.513
10455TIP3   OH231241   5.918   5.542   4.771
10455TIP3    H131242   5.902   5.474   4.702
10455TIP3    H231243   5.841   5.602   4.761
10456TIP3   OH231244   5.138   6.788   2.878
10456TIP3    H131245   5.231   6.772   2.856
10456TIP3    H231246   5.107   6.816   2.790
10457TIP3   OH231247   4.621   6.154   3.088
10457TIP3    H131248   4.716   6.174   3.074
10457TIP3    H231249   4.615   6.065   3.047
10458TIP3   OH231250   4.531   6.770   3.497
10458TIP3    H131251   4.465   6.706   3.464
10458TIP3    H231252   4.576   6.714   3.565
10459TIP3   OH231253   4.665   6.625   3.687
10459TIP3    H131254   4.656   6.546   3.742
10459TIP3    H231255   4.717   6.682   3.747
10460TIP3   OH231256   6.393   7.022   3.485
10460TIP3    H131257   6.423   7.054   3.572
10460TIP3    H231258   6.457   7.062   3.425
10461TIP3   OH231259   6.425   7.040   3.769
10461TIP3    H131260   6.383   6.951   3.763
10461TIP3    H231261   6.502   7.018   3.823
10462TIP3   OH231262   6.472   6.715   4.341
10462TIP3    H131263   6.398   6.723   4.404
10462TIP3    H231264   6.512   6.804   4.345
10463TIP3   OH231265   6.286   6.230   2.962
10463TIP3    H131266   6.358   6.291   2.934
10463TIP3    H231267   6.328   6.188   3.041
10464TIP3   OH231268   6.415   6.097   3.165
10464TIP3    H131269   6.349   6.052   3.223
10464TIP3    H231270   6.478   6.134   3.229
10465TIP3   OH231271   6.467   6.486   3.597
10465TIP3    H131272   6.522   6.422   3.547
10465TIP3    H231273   6.459   6.561   3.535
10466TIP3   OH231274   6.303   6.788   3.793
10466TIP3    H131275   6.231   6.828   3.845
10466TIP3    H231276   6.253   6.738   3.725
10467TIP3   OH231277   6.354   6.004   2.813
10467TIP3    H131278   6.283   6.005   2.745
10467TIP3    H231279   6.325   6.080   2.867
10468TIP3   OH231280   6.234   5.672   2.762
10468TIP3    H131281   6.173   5.718   2.702
10468TIP3    H231282   6.201   5.580   2.753
10469TIP3   OH231283   6.232   5.950   3.312
10469TIP3    H131284   6.237   5.853   3.304
10469TIP3    H231285   6.219   5.962   3.409
10470TIP3   OH231286   4.857   6.026   4.057
10470TIP3    H131287   4.856   5.996   3.964
10470TIP3    H231288   4.954   6.028   4.075
10471TIP3   OH231289   6.518   6.376   4.169
10471TIP3    H131290   6.591   6.311   4.161
10471TIP3    H231291   6.545   6.445   4.107
10472TIP3   OH231292   6.704   6.185   4.193
10472TIP3    H131293   6.629   6.132   4.229
10472TIP3    H231294   6.777   6.120   4.203
10473TIP3   OH231295   6.174   5.404   2.747
10473TIP3    H131296   6.242   5.378   2.812
10473TIP3    H231297   6.093   5.360   2.779
10474TIP3   OH231298   6.232   5.670   3.212
10474TIP3    H131299   6.269   5.580   3.227
10474TIP3    H231300   6.286   5.699   3.137
10475TIP3   OH231301   6.389   5.846   3.701
10475TIP3    H131302   6.475   5.872   3.662
10475TIP3    H231303   6.402   5.876   3.793
10476TIP3   OH231304   6.458   5.986   3.937
10476TIP3    H131305   6.378   6.019   3.982
10476TIP3    H231306   6.489   6.067   3.890
10477TIP3   OH231307   5.074   5.719   4.736
10477TIP3    H131308   5.171   5.705   4.737
10477TIP3    H231309   5.044   5.632   4.770
10478TIP3   OH231310   6.939   5.590   4.490
10478TIP3    H131311   6.930   5.498   4.465
10478TIP3    H231312   6.884   5.636   4.423
10479TIP3   OH231313   6.336   5.416   3.244
10479TIP3    H131314   6.383   5.400   3.329
10479TIP3    H231315   6.274   5.340   3.243
10480TIP3   OH231316   5.035   5.405   4.066
10480TIP3    H131317   5.098   5.330   4.074
10480TIP3    H231318   5.097   5.479   4.059
10481TIP3   OH231319   4.840   5.678   4.140
10481TIP3    H131320   4.888   5.669   4.054
10481TIP3    H231321   4.869   5.766   4.167
10482TIP3   OH231322   6.780   5.717   4.308
10482TIP3    H131323   6.691   5.754   4.329
10482TIP3    H231324   6.758   5.669   4.227
10483TIP3   OH231325   6.420   5.352   2.881
10483TIP3    H131326   6.457   5.281   2.826
10483TIP3    H231327   6.484   5.425   2.867
10484TIP3   OH231328   4.820   5.185   3.642
10484TIP3    H131329   4.726   5.181   3.664
10484TIP3    H231330   4.821   5.240   3.561
10485TIP3   OH231331   5.966   6.890   3.135
10485TIP3    H131332   6.024   6.868   3.058
10485TIP3    H231333   6.025   6.947   3.187
10486TIP3   OH231334   5.037   5.258   4.452
10486TIP3    H131335   4.983   5.257   4.534
10486TIP3    H231336   4.973   5.301   4.391
10487TIP3   OH231337   5.081   6.688   4.532
10487TIP3    H131338   4.990   6.659   4.513
10487TIP3    H231339   5.089   6.669   4.626
10488TIP3   OH231340   5.258   6.718   4.078
10488TIP3    H131341   5.209   6.794   4.039
10488TIP3    H231342   5.344   6.733   4.034
10489TIP3   OH231343   5.706   6.966   4.216
10489TIP3    H131344   5.748   6.967   4.305
10489TIP3    H231345   5.773   7.016   4.163
10490TIP3   OH231346   5.884   7.116   4.072
10490TIP3    H131347   5.956   7.064   4.031
10490TIP3    H231348   5.936   7.173   4.133
10491TIP3   OH231349   4.937   6.980   4.098
10491TIP3    H131350   4.847   7.014   4.077
10491TIP3    H231351   4.944   7.007   4.190
10492TIP3   OH231352   5.173   6.957   3.957
10492TIP3    H131353   5.087   6.970   4.004
10492TIP3    H231354   5.151   6.989   3.868
10493TIP3   OH231355   5.599   6.987   3.755
10493TIP3    H131356   5.529   7.009   3.690
10493TIP3    H231357   5.612   7.074   3.799
10494TIP3   OH231358   5.866   6.926   3.807
10494TIP3    H131359   5.772   6.943   3.787
10494TIP3    H231360   5.909   7.003   3.766
10495TIP3   OH231361   6.074   7.118   3.724
10495TIP3    H131362   6.061   7.203   3.675
10495TIP3    H231363   6.101   7.058   3.651
10496TIP3   OH231364   4.848   6.773   3.847
10496TIP3    H131365   4.874   6.747   3.938
10496TIP3    H231366   4.919   6.728   3.796
10497TIP3   OH231367   5.040   6.643   3.701
10497TIP3    H131368   5.055   6.558   3.748
10497TIP3    H231369   5.131   6.679   3.697
10498TIP3   OH231370   5.307   6.740   3.702
10498TIP3    H131371   5.337   6.647   3.690
10498TIP3    H231372   5.349   6.759   3.788
10499TIP3   OH231373   5.881   5.396   3.791
10499TIP3    H131374   5.838   5.326   3.843
10499TIP3    H231375   5.954   5.348   3.746
10500TIP3   OH231376   6.408   5.274   3.700
10500TIP3    H131377   6.444   5.325   3.624
10500TIP3    H231378   6.312   5.292   3.693
10501TIP3   OH231379   6.502   5.377   3.463
10501TIP3    H131380   6.575   5.325   3.421
10501TIP3    H231381   6.535   5.468   3.447
10502TIP3   OH231382   5.131   5.104   3.813
10502TIP3    H131383   5.039   5.071   3.810
10502TIP3    H231384   5.181   5.020   3.807
10503TIP3   OH231385   4.918   4.971   3.456
10503TIP3    H131386   4.949   5.029   3.383
10503TIP3    H231387   4.888   5.036   3.522
10504TIP3   OH231388   5.574   5.136   3.691
10504TIP3    H131389   5.631   5.185   3.629
10504TIP3    H231390   5.600   5.175   3.776
10505TIP3   OH231391   6.123   5.283   3.675
10505TIP3    H131392   6.120   5.249   3.585
10505TIP3    H231393   6.107   5.201   3.727
10506TIP3   OH231394   6.152   5.203   3.235
10506TIP3    H131395   6.065   5.247   3.242
10506TIP3    H231396   6.135   5.120   3.283
10507TIP3   OH231397   4.635   6.537   3.238
10507TIP3    H131398   4.550   6.501   3.204
10507TIP3    H231399   4.619   6.632   3.222
10508TIP3   OH231400   5.034   5.132   3.223
10508TIP3    H131401   5.083   5.071   3.164
10508TIP3    H231402   5.106   5.187   3.259
10509TIP3   OH231403   5.546   5.306   3.322
10509TIP3    H131404   5.610   5.261   3.380
10509TIP3    H231405   5.568   5.399   3.344
10510TIP3   OH231406   5.400   6.746   2.797
10510TIP3    H131407   5.459   6.774   2.726
10510TIP3    H231408   5.374   6.657   2.766
10511TIP3   OH231409   6.123   6.847   2.912
10511TIP3    H131410   6.115   6.750   2.897
10511TIP3    H231411   6.085   6.882   2.828
10512TIP3   OH231412   4.717   6.580   2.881
10512TIP3    H131413   4.720   6.581   2.978
10512TIP3    H231414   4.801   6.533   2.859
10513TIP3   OH231415   6.420   5.478   4.661
10513TIP3    H131416   6.434   5.434   4.747
10513TIP3    H231417   6.490   5.436   4.609
10514TIP3   OH231418   6.353   6.996   4.101
10514TIP3    H131419   6.274   6.963   4.053
10514TIP3    H231420   6.334   7.091   4.102
10515TIP3   OH231421   7.616   6.371   2.873
10515TIP3    H131422   7.587   6.460   2.844
10515TIP3    H231423   7.544   6.317   2.836
10516TIP3   OH231424   7.651   6.356   3.246
10516TIP3    H131425   7.612   6.316   3.327
10516TIP3    H231426   7.598   6.311   3.178
10517TIP3   OH231427   6.917   6.265   3.613
10517TIP3    H131428   6.948   6.197   3.675
10517TIP3    H231429   6.997   6.318   3.602
10518TIP3   OH231430   7.857   6.678   2.916
10518TIP3    H131431   7.848   6.601   2.974
10518TIP3    H231432   7.890   6.747   2.976
10519TIP3   OH231433   6.886   6.671   3.340
10519TIP3    H131434   6.878   6.574   3.342
10519TIP3    H231435   6.983   6.680   3.334
10520TIP3   OH231436   6.594   5.879   3.125
10520TIP3    H131437   6.542   5.961   3.135
10520TIP3    H231438   6.526   5.820   3.090
10521TIP3   OH231439   6.656   6.164   3.293
10521TIP3    H131440   6.703   6.086   3.331
10521TIP3    H231441   6.711   6.185   3.217
10522TIP3   OH231442   7.505   7.131   2.941
10522TIP3    H131443   7.555   7.060   2.896
10522TIP3    H231444   7.501   7.099   3.032
10523TIP3   OH231445   7.406   6.590   3.292
10523TIP3    H131446   7.436   6.521   3.232
10523TIP3    H231447   7.489   6.629   3.321
10524TIP3   OH231448   8.420   5.919   3.287
10524TIP3    H131449   8.445   5.998   3.339
10524TIP3    H231450   8.443   5.951   3.198
10525TIP3   OH231451   7.821   6.107   3.317
10525TIP3    H131452   7.872   6.031   3.353
10525TIP3    H231453   7.792   6.069   3.232
10526TIP3   OH231454   7.163   5.755   3.293
10526TIP3    H131455   7.142   5.826   3.229
10526TIP3    H231456   7.116   5.680   3.250
10527TIP3   OH231457   7.858   5.842   2.916
10527TIP3    H131458   7.929   5.825   2.983
10527TIP3    H231459   7.912   5.879   2.843
10528TIP3   OH231460   6.800   5.956   3.400
10528TIP3    H131461   6.883   5.934   3.447
10528TIP3    H231462   6.810   5.900   3.321
10529TIP3   OH231463   7.242   6.155   3.191
10529TIP3    H131464   7.334   6.126   3.207
10529TIP3    H231465   7.201   6.071   3.160
10530TIP3   OH231466   8.487   6.122   3.458
10530TIP3    H131467   8.413   6.179   3.433
10530TIP3    H231468   8.498   6.144   3.552
10531TIP3   OH231469   7.163   5.739   3.728
10531TIP3    H131470   7.105   5.769   3.656
10531TIP3    H231471   7.108   5.761   3.806
10532TIP3   OH231472   7.512   6.588   2.738
10532TIP3    H131473   7.468   6.564   2.655
10532TIP3    H231474   7.468   6.673   2.758
10533TIP3   OH231475   7.266   6.511   3.526
10533TIP3    H131476   7.202   6.573   3.567
10533TIP3    H231477   7.306   6.567   3.457
10534TIP3   OH231478   8.068   5.842   3.088
10534TIP3    H131479   8.053   5.795   3.172
10534TIP3    H231480   8.148   5.893   3.108
10535TIP3   OH231481   7.033   5.852   3.512
10535TIP3    H131482   7.096   5.923   3.535
10535TIP3    H231483   7.081   5.809   3.437
10536TIP3   OH231484   7.094   6.704   3.621
10536TIP3    H131485   7.069   6.790   3.581
10536TIP3    H231486   7.016   6.689   3.678
10537TIP3   OH231487   6.494   6.394   2.857
10537TIP3    H131488   6.451   6.418   2.772
10537TIP3    H231489   6.522   6.481   2.892
10538TIP3   OH231490   7.925   6.904   3.097
10538TIP3    H131491   7.835   6.901   3.137
10538TIP3    H231492   7.923   6.991   3.051
10539TIP3   OH231493   8.221   5.810   3.451
10539TIP3    H131494   8.141   5.864   3.439
10539TIP3    H231495   8.283   5.847   3.385
10540TIP3   OH231496   7.519   5.460   3.437
10540TIP3    H131497   7.511   5.365   3.457
10540TIP3    H231498   7.440   5.495   3.485
10541TIP3   OH231499   7.638   6.958   2.776
10541TIP3    H131500   7.685   6.877   2.749
10541TIP3    H231501   7.696   7.025   2.732
10542TIP3   OH231502   7.774   6.746   2.666
10542TIP3    H131503   7.739   6.664   2.628
10542TIP3    H231504   7.810   6.714   2.752
10543TIP3   OH231505   8.158   6.832   3.446
10543TIP3    H131506   8.156   6.751   3.391
10543TIP3    H231507   8.146   6.903   3.379
10544TIP3   OH231508   7.452   6.222   2.697
10544TIP3    H131509   7.369   6.270   2.675
10544TIP3    H231510   7.495   6.216   2.610
10545TIP3   OH231511   7.408   6.003   2.415
10545TIP3    H131512   7.477   6.051   2.463
10545TIP3    H231513   7.463   5.937   2.368
10546TIP3   OH231514   8.383   6.471   3.285
10546TIP3    H131515   8.289   6.473   3.310
10546TIP3    H231516   8.380   6.487   3.189
10547TIP3   OH231517   7.794   6.301   2.672
10547TIP3    H131518   7.741   6.327   2.751
10547TIP3    H231519   7.878   6.273   2.715
10548TIP3   OH231520   7.029   6.300   3.084
10548TIP3    H131521   6.986   6.242   3.018
10548TIP3    H231522   7.105   6.245   3.112
10549TIP3   OH231523   7.155   6.712   3.232
10549TIP3    H131524   7.132   6.666   3.150
10549TIP3    H231525   7.244   6.677   3.252
10550TIP3   OH231526   7.165   6.269   3.440
10550TIP3    H131527   7.197   6.250   3.350
10550TIP3    H231528   7.207   6.355   3.460
10551TIP3   OH231529   7.688   6.902   3.236
10551TIP3    H131530   7.675   6.997   3.256
10551TIP3    H231531   7.695   6.865   3.325
10552TIP3   OH231532   7.302   6.830   3.761
10552TIP3    H131533   7.243   6.891   3.809
10552TIP3    H231534   7.236   6.774   3.715
10553TIP3   OH231535   7.639   6.157   2.495
10553TIP3    H131536   7.697   6.217   2.548
10553TIP3    H231537   7.665   6.183   2.403
10554TIP3   OH231538   7.056   6.386   3.862
10554TIP3    H131539   7.059   6.472   3.909
10554TIP3    H231540   6.960   6.366   3.868
10555TIP3   OH231541   7.379   6.840   2.772
10555TIP3    H131542   7.455   6.898   2.792
10555TIP3    H231543   7.317   6.901   2.731
10556TIP3   OH231544   7.097   6.997   3.849
10556TIP3    H131545   7.062   6.993   3.758
10556TIP3    H231546   7.017   6.975   3.903
10557TIP3   OH231547   8.152   5.401   2.541
10557TIP3    H131548   8.071   5.418   2.594
10557TIP3    H231549   8.163   5.486   2.495
10558TIP3   OH231550   6.894   6.142   2.892
10558TIP3    H131551   6.829   6.187   2.833
10558TIP3    H231552   6.853   6.056   2.904
10559TIP3   OH231553   7.950   6.768   2.089
10559TIP3    H131554   7.958   6.865   2.077
10559TIP3    H231555   8.044   6.740   2.077
10560TIP3   OH231556   6.676   6.526   3.797
10560TIP3    H131557   6.612   6.502   3.726
10560TIP3    H231558   6.713   6.439   3.823
10561TIP3   OH231559   6.530   6.718   3.432
10561TIP3    H131560   6.625   6.709   3.419
10561TIP3    H231561   6.524   6.798   3.485
10562TIP3   OH231562   8.393   7.167   3.483
10562TIP3    H131563   8.395   7.070   3.496
10562TIP3    H231564   8.311   7.190   3.530
10563TIP3   OH231565   7.501   6.959   3.617
10563TIP3    H131566   7.500   7.051   3.653
10563TIP3    H231567   7.432   6.917   3.672
10564TIP3   OH231568   7.260   7.085   2.572
10564TIP3    H131569   7.214   7.065   2.488
10564TIP3    H231570   7.228   7.175   2.592
10565TIP3   OH231571   6.698   6.935   2.954
10565TIP3    H131572   6.746   6.925   3.039
10565TIP3    H231573   6.640   6.858   2.957
10566TIP3   OH231574   7.464   6.986   2.212
10566TIP3    H131575   7.522   6.916   2.177
10566TIP3    H231576   7.497   6.994   2.304
10567TIP3   OH231577   7.512   7.034   2.483
10567TIP3    H131578   7.423   7.043   2.525
10567TIP3    H231579   7.562   6.992   2.554
10568TIP3   OH231580   8.283   6.303   3.750
10568TIP3    H131581   8.221   6.312   3.675
10568TIP3    H231582   8.300   6.207   3.748
10569TIP3   OH231583   6.881   6.709   3.788
10569TIP3    H131584   6.932   6.691   3.870
10569TIP3    H231585   6.807   6.644   3.795
10570TIP3   OH231586   7.284   5.539   3.560
10570TIP3    H131587   7.197   5.497   3.549
10570TIP3    H231588   7.259   5.612   3.619
10571TIP3   OH231589   7.821   5.650   3.762
10571TIP3    H131590   7.888   5.619   3.827
10571TIP3    H231591   7.736   5.628   3.807
10572TIP3   OH231592   8.055   6.048   3.683
10572TIP3    H131593   8.006   6.076   3.764
10572TIP3    H231594   8.050   6.125   3.623
10573TIP3   OH231595   7.714   6.206   2.239
10573TIP3    H131596   7.680   6.180   2.151
10573TIP3    H231597   7.792   6.260   2.214
10574TIP3   OH231598   7.429   5.582   2.540
10574TIP3    H131599   7.396   5.581   2.632
10574TIP3    H231600   7.389   5.499   2.508
10575TIP3   OH231601   7.212   6.047   3.589
10575TIP3    H131602   7.162   6.068   3.670
10575TIP3    H231603   7.196   6.127   3.534
10576TIP3   OH231604   7.095   5.936   3.101
10576TIP3    H131605   7.002   5.908   3.119
10576TIP3    H231606   7.109   5.894   3.014
10577TIP3   OH231607   7.588   6.022   2.829
10577TIP3    H131608   7.533   6.092   2.787
10577TIP3    H231609   7.641   5.991   2.753
10578TIP3   OH231610   7.760   6.303   3.919
10578TIP3    H131611   7.740   6.227   3.978
10578TIP3    H231612   7.856   6.313   3.936
10579TIP3   OH231613   7.745   6.048   3.063
10579TIP3    H131614   7.685   6.073   2.989
10579TIP3    H231615   7.779   5.964   3.025
10580TIP3   OH231616   7.030   6.079   3.797
10580TIP3    H131617   7.062   6.141   3.864
10580TIP3    H231618   7.019   5.997   3.848
10581TIP3   OH231619   7.083   5.554   2.506
10581TIP3    H131620   7.075   5.550   2.604
10581TIP3    H231621   7.002   5.604   2.483
10582TIP3   OH231622   6.624   5.602   3.377
10582TIP3    H131623   6.702   5.630   3.430
10582TIP3    H231624   6.662   5.565   3.296
10583TIP3   OH231625   6.603   5.582   2.897
10583TIP3    H131626   6.646   5.621   2.818
10583TIP3    H231627   6.539   5.653   2.919
10584TIP3   OH231628   7.759   6.297   3.490
10584TIP3    H131629   7.783   6.207   3.461
10584TIP3    H231630   7.740   6.276   3.584
10585TIP3   OH231631   7.420   5.765   3.165
10585TIP3    H131632   7.339   5.756   3.220
10585TIP3    H231633   7.490   5.750   3.230
10586TIP3   OH231634   6.858   5.811   3.172
10586TIP3    H131635   6.763   5.817   3.146
10586TIP3    H231636   6.882   5.719   3.149
10587TIP3   OH231637   7.129   5.809   2.860
10587TIP3    H131638   7.224   5.824   2.839
10587TIP3    H231639   7.083   5.832   2.776
10588TIP3   OH231640   7.904   5.838   3.360
10588TIP3    H131641   7.878   5.845   3.454
10588TIP3    H231642   7.845   5.767   3.330
10589TIP3   OH231643   6.966   5.842   2.640
10589TIP3    H131644   6.892   5.798   2.594
10589TIP3    H231645   7.017   5.876   2.564
10590TIP3   OH231646   8.083   7.521   3.583
10590TIP3    H131647   8.081   7.544   3.488
10590TIP3    H231648   8.160   7.571   3.614
10591TIP3   OH231649   7.041   6.631   4.007
10591TIP3    H131650   7.122   6.661   4.054
10591TIP3    H231651   6.977   6.631   4.081
10592TIP3   OH231652   7.509   6.092   3.267
10592TIP3    H131653   7.573   6.043   3.213
10592TIP3    H231654   7.514   6.044   3.352
10593TIP3   OH231655   7.031   5.572   3.137
10593TIP3    H131656   6.999   5.492   3.183
10593TIP3    H231657   7.087   5.535   3.068
10594TIP3   OH231658   7.485   5.983   3.545
10594TIP3    H131659   7.395   6.015   3.566
10594TIP3    H231660   7.543   6.037   3.602
10595TIP3   OH231661   7.221   6.372   2.647
10595TIP3    H131662   7.148   6.306   2.636
10595TIP3    H231663   7.203   6.405   2.738
10596TIP3   OH231664   8.134   6.621   3.278
10596TIP3    H131665   8.174   6.662   3.198
10596TIP3    H231666   8.044   6.604   3.249
10597TIP3   OH231667   7.678   5.689   2.497
10597TIP3    H131668   7.582   5.669   2.513
10597TIP3    H231669   7.688   5.781   2.529
10598TIP3   OH231670   7.599   6.680   3.645
10598TIP3    H131671   7.643   6.661   3.728
10598TIP3    H231672   7.581   6.775   3.650
10599TIP3   OH231673   7.749   5.929   2.610
10599TIP3    H131674   7.845   5.935   2.628
10599TIP3    H231675   7.731   6.010   2.557
10600TIP3   OH231676   6.913   6.395   3.323
10600TIP3    H131677   6.949   6.365   3.237
10600TIP3    H231678   6.948   6.328   3.383
10601TIP3   OH231679   7.366   6.522   2.467
10601TIP3    H131680   7.319   6.608   2.474
10601TIP3    H231681   7.311   6.466   2.526
10602TIP3   OH231682   6.789   6.316   3.936
10602TIP3    H131683   6.813   6.300   4.029
10602TIP3    H231684   6.723   6.247   3.919
10603TIP3   OH231685   7.517   6.426   3.956
10603TIP3    H131686   7.461   6.368   3.902
10603TIP3    H231687   7.606   6.394   3.931
10604TIP3   OH231688   7.772   6.948   3.533
10604TIP3    H131689   7.677   6.951   3.555
10604TIP3    H231690   7.809   6.997   3.609
10605TIP3   OH231691   8.191   6.018   2.447
10605TIP3    H131692   8.128   5.973   2.385
10605TIP3    H231693   8.188   6.107   2.407
10606TIP3   OH231694   8.410   6.882   3.528
10606TIP3    H131695   8.312   6.874   3.524
10606TIP3    H231696   8.434   6.848   3.438
10607TIP3   OH231697   7.889   6.840   2.354
10607TIP3    H131698   7.866   6.770   2.417
10607TIP3    H231699   7.902   6.792   2.270
10608TIP3   OH231700   7.012   6.695   2.947
10608TIP3    H131701   7.014   6.777   2.894
10608TIP3    H231702   6.917   6.680   2.953
10609TIP3   OH231703   6.576   6.001   2.649
10609TIP3    H131704   6.621   6.085   2.669
10609TIP3    H231705   6.498   6.007   2.709
10610TIP3   OH231706   7.158   6.465   2.895
10610TIP3    H131707   7.119   6.553   2.911
10610TIP3    H231708   7.117   6.413   2.967
10611TIP3   OH231709   7.281   7.040   3.417
10611TIP3    H131710   7.321   7.113   3.366
10611TIP3    H231711   7.358   7.009   3.468
10612TIP3   OH231712   6.934   6.935   2.801
10612TIP3    H131713   6.847   6.943   2.845
10612TIP3    H231714   6.965   7.028   2.803
10613TIP3   OH231715   7.644   6.565   2.256
10613TIP3    H131716   7.695   6.541   2.337
10613TIP3    H231717   7.554   6.541   2.285
10614TIP3   OH231718   7.918   7.211   3.427
10614TIP3    H131719   7.841   7.152   3.417
10614TIP3    H231720   7.905   7.274   3.353
10615TIP3   OH231721   7.984   7.044   2.077
10615TIP3    H131722   8.023   7.117   2.026
10615TIP3    H231723   7.904   7.089   2.110
10616TIP3   OH231724   6.997   5.826   3.940
10616TIP3    H131725   6.901   5.839   3.949
10616TIP3    H231726   7.010   5.747   3.994
10617TIP3   OH231727   7.803   6.501   2.475
10617TIP3    H131728   7.794   6.435   2.546
10617TIP3    H231729   7.900   6.500   2.463
10618TIP3   OH231730   6.719   6.905   3.577
10618TIP3    H131731   6.771   6.828   3.604
10618TIP3    H231732   6.752   6.972   3.639
10619TIP3   OH231733   7.014   6.548   2.256
10619TIP3    H131734   7.025   6.456   2.225
10619TIP3    H231735   6.993   6.534   2.351
10620TIP3   OH231736   6.958   6.553   2.528
10620TIP3    H131737   7.027   6.526   2.590
10620TIP3    H231738   6.962   6.651   2.535
10621TIP3   OH231739   6.695   6.248   2.731
10621TIP3    H131740   6.628   6.291   2.788
10621TIP3    H231741   6.708   6.318   2.664
10622TIP3   OH231742   7.837   5.887   3.624
10622TIP3    H131743   7.921   5.923   3.658
10622TIP3    H231744   7.828   5.804   3.677
10623TIP3   OH231745   7.721   5.637   2.785
10623TIP3    H131746   7.708   5.664   2.692
10623TIP3    H231747   7.761   5.718   2.824
10624TIP3   OH231748   7.223   6.752   2.479
10624TIP3    H131749   7.136   6.780   2.513
10624TIP3    H231750   7.238   6.820   2.412
10625TIP3   OH231751   7.412   5.814   2.890
10625TIP3    H131752   7.478   5.885   2.875
10625TIP3    H231753   7.416   5.806   2.988
10626TIP3   OH231754   7.682   6.137   3.699
10626TIP3    H131755   7.703   6.185   3.782
10626TIP3    H231756   7.736   6.057   3.707
10627TIP3   OH231757   7.557   5.544   2.994
10627TIP3    H131758   7.562   5.614   3.061
10627TIP3    H231759   7.616   5.581   2.924
10628TIP3   OH231760   6.965   6.826   2.544
10628TIP3    H131761   6.935   6.895   2.480
10628TIP3    H231762   6.948   6.871   2.630
10629TIP3   OH231763   7.067   5.538   2.782
10629TIP3    H131764   7.063   5.628   2.820
10629TIP3    H231765   7.163   5.520   2.792
10630TIP3   OH231766   8.323   6.036   3.679
10630TIP3    H131767   8.226   6.024   3.693
10630TIP3    H231768   8.330   6.008   3.587
10631TIP3   OH231769   7.974   6.231   3.080
10631TIP3    H131770   7.905   6.162   3.085
10631TIP3    H231771   8.036   6.206   3.150
10632TIP3   OH231772   6.683   6.459   2.539
10632TIP3    H131773   6.746   6.533   2.545
10632TIP3    H231774   6.728   6.406   2.471
10633TIP3   OH231775   6.630   5.732   2.669
10633TIP3    H131776   6.626   5.829   2.665
10633TIP3    H231777   6.543   5.707   2.635
10634TIP3   OH231778   7.939   7.178   3.018
10634TIP3    H131779   7.897   7.226   2.943
10634TIP3    H231780   8.033   7.199   2.999
10635TIP3   OH231781   7.014   5.454   3.549
10635TIP3    H131782   6.986   5.418   3.462
10635TIP3    H231783   7.007   5.376   3.607
10636TIP3   OH231784   6.560   6.675   2.930
10636TIP3    H131785   6.480   6.704   2.977
10636TIP3    H231786   6.541   6.710   2.841
10637TIP3   OH231787   6.710   7.209   3.998
10637TIP3    H131788   6.796   7.209   4.044
10637TIP3    H231789   6.690   7.114   3.995
10638TIP3   OH231790   7.194   7.178   4.042
10638TIP3    H131791   7.289   7.160   4.049
10638TIP3    H231792   7.170   7.121   3.966
10639TIP3   OH231793   7.176   6.753   2.172
10639TIP3    H131794   7.118   6.682   2.209
10639TIP3    H231795   7.249   6.700   2.137
10640TIP3   OH231796   7.834   7.079   3.770
10640TIP3    H131797   7.824   7.010   3.839
10640TIP3    H231798   7.911   7.130   3.803
10641TIP3   OH231799   7.612   6.795   2.080
10641TIP3    H131800   7.658   6.732   2.138
10641TIP3    H231801   7.669   6.796   2.001
10642TIP3   OH231802   6.841   6.617   4.198
10642TIP3    H131803   6.859   6.521   4.199
10642TIP3    H231804   6.754   6.620   4.154
10643TIP3   OH231805   6.818   6.272   2.388
10643TIP3    H131806   6.872   6.235   2.461
10643TIP3    H231807   6.886   6.276   2.317
10644TIP3   OH231808   7.449   6.701   3.971
10644TIP3    H131809   7.412   6.715   3.881
10644TIP3    H231810   7.483   6.609   3.965
10645TIP3   OH231811   7.328   6.468   2.196
10645TIP3    H131812   7.328   6.481   2.293
10645TIP3    H231813   7.325   6.370   2.191
10646TIP3   OH231814   7.938   6.699   3.562
10646TIP3    H131815   8.015   6.750   3.531
10646TIP3    H231816   7.868   6.767   3.559
10647TIP3   OH231817   6.960   6.350   4.178
10647TIP3    H131818   7.035   6.294   4.157
10647TIP3    H231819   6.984   6.383   4.267
10648TIP3   OH231820   7.032   6.171   2.615
10648TIP3    H131821   7.001   6.128   2.697
10648TIP3    H231822   7.063   6.095   2.563
10649TIP3   OH231823   7.292   6.235   3.842
10649TIP3    H131824   7.218   6.298   3.845
10649TIP3    H231825   7.342   6.267   3.763
10650TIP3   OH231826   7.126   5.964   2.454
10650TIP3    H131827   7.099   5.966   2.360
10650TIP3    H231828   7.223   5.973   2.445
10651TIP3   OH231829   7.816   6.640   3.973
10651TIP3    H131830   7.895   6.617   3.923
10651TIP3    H231831   7.815   6.571   4.042
10652TIP3   OH231832   7.953   6.299   2.112
10652TIP3    H131833   7.926   6.251   2.031
10652TIP3    H231834   7.920   6.389   2.089
10653TIP3   OH231835   7.409   6.020   3.972
10653TIP3    H131836   7.419   5.942   3.913
10653TIP3    H231837   7.373   6.087   3.911
10654TIP3   OH231838   7.418   5.819   3.774
10654TIP3    H131839   7.449   5.850   3.687
10654TIP3    H231840   7.326   5.791   3.754
10655TIP3   OH231841   7.446   6.344   3.649
10655TIP3    H131842   7.531   6.348   3.604
10655TIP3    H231843   7.396   6.416   3.606
10656TIP3   OH231844   8.032   6.316   4.031
10656TIP3    H131845   8.075   6.230   4.039
10656TIP3    H231846   8.103   6.370   3.994
10657TIP3   OH231847   8.068   6.580   3.775
10657TIP3    H131848   8.011   6.604   3.700
10657TIP3    H231849   8.155   6.583   3.730
10658TIP3   OH231850   7.291   6.143   4.197
10658TIP3    H131851   7.222   6.075   4.209
10658TIP3    H231852   7.330   6.115   4.111
10659TIP3   OH231853   7.563   5.588   3.825
10659TIP3    H131854   7.507   5.668   3.811
10659TIP3    H231855   7.499   5.516   3.818
10660TIP3   OH231856   7.674   6.085   4.059
10660TIP3    H131857   7.674   6.071   4.155
10660TIP3    H231858   7.584   6.053   4.036
10661TIP3   OH231859   7.917   6.041   3.919
10661TIP3    H131860   7.842   6.029   3.981
10661TIP3    H231861   7.991   6.002   3.970
10662TIP3   OH231862   8.147   5.969   4.063
10662TIP3    H131863   8.161   5.873   4.080
10662TIP3    H231864   8.144   6.006   4.153
10663TIP3   OH231865   7.135   5.917   4.248
10663TIP3    H131866   7.186   5.853   4.197
10663TIP3    H231867   7.171   5.902   4.339
10664TIP3   OH231868   7.692   5.608   4.074
10664TIP3    H131869   7.740   5.524   4.085
10664TIP3    H231870   7.638   5.586   3.996
10665TIP3   OH231871   7.714   5.801   4.263
10665TIP3    H131872   7.707   5.733   4.192
10665TIP3    H231873   7.635   5.857   4.246
10666TIP3   OH231874   6.934   7.029   2.358
10666TIP3    H131875   7.029   7.028   2.336
10666TIP3    H231876   6.900   7.074   2.278
10667TIP3   OH231877   6.415   6.409   2.576
10667TIP3    H131878   6.509   6.431   2.561
10667TIP3    H231879   6.408   6.321   2.533
10668TIP3   OH231880   6.324   7.023   2.988
10668TIP3    H131881   6.259   6.959   2.951
10668TIP3    H231882   6.371   6.967   3.053
10669TIP3   OH231883   6.463   6.879   3.174
10669TIP3    H131884   6.456   6.801   3.231
10669TIP3    H231885   6.515   6.938   3.231
10670TIP3   OH231886   8.188   7.278   2.972
10670TIP3    H131887   8.219   7.310   3.059
10670TIP3    H231888   8.252   7.320   2.912
10671TIP3   OH231889   8.222   7.296   3.255
10671TIP3    H131890   8.181   7.207   3.250
10671TIP3    H231891   8.298   7.275   3.311
10672TIP3   OH231892   8.267   6.975   3.825
10672TIP3    H131893   8.195   6.978   3.891
10672TIP3    H231894   8.307   7.063   3.834
10673TIP3   OH231895   8.084   6.485   2.448
10673TIP3    H131896   8.154   6.548   2.422
10673TIP3    H231897   8.125   6.445   2.528
10674TIP3   OH231898   8.209   6.353   2.652
10674TIP3    H131899   8.147   6.310   2.715
10674TIP3    H231900   8.278   6.389   2.711
10675TIP3   OH231901   8.258   6.741   3.073
10675TIP3    H131902   8.321   6.679   3.030
10675TIP3    H231903   8.260   6.818   3.012
10676TIP3   OH231904   8.099   7.045   3.277
10676TIP3    H131905   8.029   7.085   3.332
10676TIP3    H231906   8.047   6.995   3.211
10677TIP3   OH231907   8.150   6.259   2.299
10677TIP3    H131908   8.078   6.264   2.232
10677TIP3    H231909   8.125   6.335   2.356
10678TIP3   OH231910   8.023   5.931   2.252
10678TIP3    H131911   7.975   5.974   2.180
10678TIP3    H231912   7.995   5.837   2.240
10679TIP3   OH231913   8.023   6.207   2.803
10679TIP3    H131914   8.035   6.110   2.798
10679TIP3    H231915   8.016   6.221   2.900
10680TIP3   OH231916   6.653   6.283   3.545
10680TIP3    H131917   6.651   6.253   3.452
10680TIP3    H231918   6.750   6.285   3.562
10681TIP3   OH231919   8.315   6.633   3.657
10681TIP3    H131920   8.384   6.563   3.648
10681TIP3    H231921   8.345   6.699   3.592
10682TIP3   OH231922   8.503   6.442   3.680
10682TIP3    H131923   8.426   6.391   3.714
10682TIP3    H231924   8.574   6.376   3.692
10683TIP3   OH231925   7.966   5.663   2.233
10683TIP3    H131926   8.042   5.639   2.291
10683TIP3    H231927   7.893   5.610   2.269
10684TIP3   OH231928   8.021   5.923   2.695
10684TIP3    H131929   8.061   5.834   2.711
10684TIP3    H231930   8.082   5.956   2.626
10685TIP3   OH231931   6.867   5.970   4.224
10685TIP3    H131932   6.965   5.960   4.221
10685TIP3    H231933   6.843   5.887   4.270
10686TIP3   OH231934   8.701   5.834   3.982
10686TIP3    H131935   8.760   5.766   3.941
10686TIP3    H231936   8.678   5.889   3.903
10687TIP3   OH231937   8.130   5.673   2.731
10687TIP3    H131938   8.180   5.658   2.814
10687TIP3    H231939   8.070   5.596   2.732
10688TIP3   OH231940   6.831   5.661   3.553
10688TIP3    H131941   6.893   5.586   3.562
10688TIP3    H231942   6.895   5.735   3.545
10689TIP3   OH231943   6.636   5.936   3.626
10689TIP3    H131944   6.683   5.923   3.541
10689TIP3    H231945   6.668   6.023   3.652
10690TIP3   OH231946   8.578   5.976   3.783
10690TIP3    H131947   8.489   6.011   3.804
10690TIP3    H231948   8.554   5.902   3.725
10691TIP3   OH231949   8.212   5.614   2.359
10691TIP3    H131950   8.257   5.538   2.317
10691TIP3    H231951   8.281   5.683   2.359
10692TIP3   OH231952   6.616   5.442   3.128
10692TIP3    H131953   6.522   5.437   3.150
10692TIP3    H231954   6.616   5.498   3.047
10693TIP3   OH231955   7.776   7.140   2.631
10693TIP3    H131956   7.827   7.124   2.549
10693TIP3    H231957   7.829   7.207   2.675
10694TIP3   OH231958   6.823   5.534   3.967
10694TIP3    H131959   6.752   5.489   4.013
10694TIP3    H231960   6.773   5.568   3.889
10695TIP3   OH231961   6.877   6.944   4.017
10695TIP3    H131962   6.786   6.915   3.999
10695TIP3    H231963   6.886   6.927   4.112
10696TIP3   OH231964   7.053   6.975   3.564
10696TIP3    H131965   7.006   7.051   3.525
10696TIP3    H231966   7.140   6.988   3.520
10697TIP3   OH231967   7.502   7.223   3.703
10697TIP3    H131968   7.544   7.224   3.792
10697TIP3    H231969   7.569   7.272   3.650
10698TIP3   OH231970   7.682   7.370   3.558
10698TIP3    H131971   7.757   7.321   3.520
10698TIP3    H231972   7.730   7.430   3.620
10699TIP3   OH231973   8.477   5.735   3.660
10699TIP3    H131974   8.385   5.726   3.631
10699TIP3    H231975   8.509   5.642   3.650
10700TIP3   OH231976   6.733   7.234   3.586
10700TIP3    H131977   6.644   7.270   3.563
10700TIP3    H231978   6.741   7.267   3.677
10701TIP3   OH231979   6.969   7.212   3.444
10701TIP3    H131980   6.883   7.226   3.490
10701TIP3    H231981   6.948   7.246   3.355
10702TIP3   OH231982   7.395   7.243   3.242
10702TIP3    H131983   7.326   7.264   3.177
10702TIP3    H231984   7.408   7.330   3.285
10703TIP3   OH231985   7.663   7.174   3.281
10703TIP3    H131986   7.568   7.197   3.270
10703TIP3    H231987   7.706   7.256   3.250
10704TIP3   OH231988   7.870   7.373   3.210
10704TIP3    H131989   7.856   7.459   3.164
10704TIP3    H231990   7.896   7.315   3.136
10705TIP3   OH231991   6.642   7.028   3.334
10705TIP3    H131992   6.671   7.003   3.425
10705TIP3    H231993   6.714   6.985   3.283
10706TIP3   OH231994   6.835   6.900   3.189
10706TIP3    H131995   6.852   6.815   3.236
10706TIP3    H231996   6.926   6.937   3.183
10707TIP3   OH231997   7.101   6.996   3.190
10707TIP3    H131998   7.132   6.905   3.177
10707TIP3    H231999   7.144   7.016   3.275
10708TIP3   OH232000   7.669   5.647   3.267
10708TIP3    H132001   7.633   5.582   3.331
10708TIP3    H232002   7.749   5.601   3.235
10709TIP3   OH232003   8.204   5.523   3.179
10709TIP3    H132004   8.240   5.581   3.109
10709TIP3    H232005   8.110   5.549   3.181
10710TIP3   OH232006   8.298   5.635   2.946
10710TIP3    H132007   8.372   5.582   2.909
10710TIP3    H232008   8.334   5.726   2.932
10711TIP3   OH232009   6.929   5.361   3.297
10711TIP3    H132010   6.837   5.327   3.297
10711TIP3    H232011   6.979   5.276   3.294
10712TIP3   OH232012   6.715   5.228   2.943
10712TIP3    H132013   6.743   5.287   2.871
10712TIP3    H232014   6.683   5.292   3.009
10713TIP3   OH232015   7.368   5.395   3.177
10713TIP3    H132016   7.430   5.445   3.121
10713TIP3    H232017   7.390   5.428   3.265
10714TIP3   OH232018   7.918   5.540   3.162
10714TIP3    H132019   7.917   5.500   3.074
10714TIP3    H232020   7.904   5.459   3.218
10715TIP3   OH232021   7.948   5.459   2.721
10715TIP3    H132022   7.861   5.501   2.734
10715TIP3    H232023   7.934   5.375   2.771
10716TIP3   OH232024   6.430   6.799   2.728
10716TIP3    H132025   6.347   6.765   2.690
10716TIP3    H232026   6.419   6.893   2.707
10717TIP3   OH232027   6.829   5.390   2.708
10717TIP3    H132028   6.879   5.327   2.652
10717TIP3    H232029   6.902   5.444   2.745
10718TIP3   OH232030   7.345   5.564   2.806
10718TIP3    H132031   7.403   5.517   2.868
10718TIP3    H232032   7.365   5.656   2.832
10719TIP3   OH232033   7.203   6.992   2.306
10719TIP3    H132034   7.291   7.013   2.269
10719TIP3    H232035   7.180   6.916   2.247
10720TIP3   OH232036   7.921   7.106   2.398
10720TIP3    H132037   7.912   7.009   2.384
10720TIP3    H232038   7.876   7.140   2.318
10721TIP3   OH232039   6.509   6.826   2.364
10721TIP3    H132040   6.509   6.856   2.456
10721TIP3    H232041   6.597   6.785   2.354
10722TIP3   OH232042   8.208   5.700   4.095
10722TIP3    H132043   8.229   5.666   4.185
10722TIP3    H232044   8.296   5.695   4.051
10723TIP3   OH232045   8.149   7.252   3.589
10723TIP3    H132046   8.070   7.219   3.541
10723TIP3    H232047   8.130   7.348   3.589
10724TIP3   OH232048   9.423   6.614   2.336
10724TIP3    H132049   9.403   6.709   2.329
10724TIP3    H232050   9.335   6.575   2.324
10725TIP3   OH232051   9.370   6.624   2.742
10725TIP3    H132052   9.433   6.606   2.814
10725TIP3    H232053   9.366   6.539   2.698
10726TIP3   OH232054   8.711   6.521   3.097
10726TIP3    H132055   8.739   6.453   3.161
10726TIP3    H232056   8.790   6.575   3.092
10727TIP3   OH232057   8.682   6.927   2.825
10727TIP3    H132058   8.674   6.829   2.828
10727TIP3    H232059   8.779   6.936   2.822
10728TIP3   OH232060   8.391   6.133   2.608
10728TIP3    H132061   8.345   6.217   2.624
10728TIP3    H232062   8.318   6.078   2.578
10729TIP3   OH232063   8.450   6.417   2.773
10729TIP3    H132064   8.498   6.342   2.816
10729TIP3    H232065   8.516   6.448   2.710
10730TIP3   OH232066   9.297   7.377   2.442
10730TIP3    H132067   9.339   7.297   2.408
10730TIP3    H232068   9.291   7.356   2.537
10731TIP3   OH232069   9.209   6.850   2.782
10731TIP3    H132070   9.250   6.766   2.751
10731TIP3    H232071   9.292   6.899   2.800
10732TIP3   OH232072   9.631   6.373   2.814
10732TIP3    H132073   9.620   6.279   2.842
10732TIP3    H232074   9.607   6.364   2.720
10733TIP3   OH232075   8.955   6.010   2.783
10733TIP3    H132076   8.941   6.083   2.719
10733TIP3    H232077   8.908   5.938   2.736
10734TIP3   OH232078   9.646   6.096   2.419
10734TIP3    H132079   9.714   6.061   2.479
10734TIP3    H232080   9.698   6.158   2.366
10735TIP3   OH232081   8.598   6.216   2.884
10735TIP3    H132082   8.678   6.195   2.935
10735TIP3    H232083   8.611   6.158   2.807
10736TIP3   OH232084   9.038   6.411   2.677
10736TIP3    H132085   9.132   6.386   2.692
10736TIP3    H232086   9.000   6.325   2.647
10737TIP3   OH232087   8.960   5.994   3.213
10737TIP3    H132088   8.897   6.031   3.148
10737TIP3    H232089   8.909   6.008   3.296
10738TIP3   OH232090   9.313   6.854   2.222
10738TIP3    H132091   9.262   6.821   2.147
10738TIP3    H232092   9.265   6.936   2.243
10739TIP3   OH232093   9.065   6.768   3.012
10739TIP3    H132094   9.002   6.833   3.049
10739TIP3    H232095   9.109   6.819   2.942
10740TIP3   OH232096   8.827   6.111   3.001
10740TIP3    H132097   8.891   6.182   3.023
10740TIP3    H232098   8.875   6.068   2.926
10741TIP3   OH232099   8.891   6.961   3.108
10741TIP3    H132100   8.866   7.047   3.069
10741TIP3    H232101   8.812   6.946   3.165
10742TIP3   OH232102   8.290   6.652   2.344
10742TIP3    H132103   8.247   6.680   2.261
10742TIP3    H232104   8.319   6.737   2.382
10743TIP3   OH232105   9.315   5.715   2.929
10743TIP3    H132106   9.306   5.619   2.942
10743TIP3    H232107   9.235   5.748   2.976
10744TIP3   OH232108   9.430   7.216   2.245
10744TIP3    H132109   9.501   7.155   2.271
10744TIP3    H232110   9.474   7.303   2.244
10745TIP3   OH232111   9.235   6.466   2.174
10745TIP3    H132112   9.156   6.523   2.163
10745TIP3    H232113   9.281   6.482   2.091
10746TIP3   OH232114   9.202   6.262   1.896
10746TIP3    H132115   9.261   6.299   1.964
10746TIP3    H232116   9.259   6.192   1.858
10747TIP3   OH232117   8.827   6.556   2.570
10747TIP3    H132118   8.788   6.496   2.504
10747TIP3    H232119   8.904   6.503   2.602
10748TIP3   OH232120   8.956   6.968   2.720
10748TIP3    H132121   8.937   6.915   2.641
10748TIP3    H232122   9.047   6.938   2.742
10749TIP3   OH232123   8.960   6.528   2.924
10749TIP3    H132124   8.998   6.507   2.836
10749TIP3    H232125   9.006   6.612   2.947
10750TIP3   OH232126   9.445   7.168   2.693
10750TIP3    H132127   9.478   7.246   2.742
10750TIP3    H232128   9.466   7.095   2.755
10751TIP3   OH232129   9.096   7.083   3.254
10751TIP3    H132130   9.036   7.147   3.297
10751TIP3    H232131   9.032   7.029   3.203
10752TIP3   OH232132   9.449   6.420   1.989
10752TIP3    H132133   9.489   6.481   2.053
10752TIP3    H232134   9.475   6.460   1.904
10753TIP3   OH232135   8.852   6.643   3.347
10753TIP3    H132136   8.856   6.728   3.395
10753TIP3    H232137   8.758   6.620   3.360
10754TIP3   OH232138   9.169   7.096   2.253
10754TIP3    H132139   9.245   7.149   2.279
10754TIP3    H232140   9.106   7.162   2.222
10755TIP3   OH232141   8.892   7.256   3.336
10755TIP3    H132142   8.859   7.251   3.245
10755TIP3    H232143   8.812   7.233   3.389
10756TIP3   OH232144   8.694   6.398   2.371
10756TIP3    H132145   8.624   6.441   2.317
10756TIP3    H232146   8.652   6.314   2.395
10757TIP3   OH232147   8.472   6.780   3.284
10757TIP3    H132148   8.413   6.749   3.213
10757TIP3    H232149   8.511   6.695   3.315
10758TIP3   OH232150   8.326   6.974   2.918
10758TIP3    H132151   8.422   6.964   2.908
10758TIP3    H232152   8.322   7.054   2.974
10759TIP3   OH232153   9.294   7.213   3.107
10759TIP3    H132154   9.296   7.306   3.139
10759TIP3    H232155   9.225   7.174   3.164
10760TIP3   OH232156   9.052   7.348   2.056
10760TIP3    H132157   9.006   7.326   1.973
10760TIP3    H232158   9.017   7.436   2.078
10761TIP3   OH232159   8.495   7.191   2.441
10761TIP3    H132160   8.544   7.182   2.526
10761TIP3    H232161   8.434   7.115   2.448
10762TIP3   OH232162   9.264   7.240   1.714
10762TIP3    H132163   9.339   7.186   1.686
10762TIP3    H232164   9.290   7.260   1.807
10763TIP3   OH232165   9.303   7.287   1.980
10763TIP3    H132166   9.214   7.301   2.018
10763TIP3    H232167   9.347   7.244   2.055
10764TIP3   OH232168   8.675   6.966   3.276
10764TIP3    H132169   8.728   6.946   3.356
10764TIP3    H232170   8.604   6.900   3.282
10765TIP3   OH232171   9.076   5.789   3.054
10765TIP3    H132172   8.985   5.759   3.032
10765TIP3    H232173   9.054   5.873   3.100
10766TIP3   OH232174   9.597   5.909   3.249
10766TIP3    H132175   9.653   5.879   3.321
10766TIP3    H232176   9.507   5.886   3.282
10767TIP3   OH232177   9.227   5.841   2.027
10767TIP3    H132178   9.200   5.841   2.121
10767TIP3    H232179   9.187   5.757   1.999
10768TIP3   OH232180   9.007   6.305   3.074
10768TIP3    H132181   8.956   6.326   3.155
10768TIP3    H232182   8.990   6.386   3.020
10769TIP3   OH232183   8.891   6.190   2.588
10769TIP3    H132184   8.799   6.162   2.607
10769TIP3    H232185   8.906   6.147   2.501
10770TIP3   OH232186   9.375   6.270   2.308
10770TIP3    H132187   9.324   6.346   2.273
10770TIP3    H232188   9.439   6.253   2.238
10771TIP3   OH232189   9.560   6.560   3.409
10771TIP3    H132190   9.533   6.485   3.467
10771TIP3    H232191   9.656   6.562   3.424
10772TIP3   OH232192   9.521   6.302   2.571
10772TIP3    H132193   9.493   6.352   2.493
10772TIP3    H232194   9.557   6.222   2.527
10773TIP3   OH232195   8.827   6.334   3.284
10773TIP3    H132196   8.851   6.395   3.354
10773TIP3    H232197   8.814   6.251   3.333
10774TIP3   OH232198   8.877   5.808   1.992
10774TIP3    H132199   8.875   5.807   2.090
10774TIP3    H232200   8.798   5.862   1.974
10775TIP3   OH232201   8.420   5.858   2.858
10775TIP3    H132202   8.492   5.890   2.918
10775TIP3    H232203   8.470   5.821   2.784
10776TIP3   OH232204   8.396   5.837   2.381
10776TIP3    H132205   8.445   5.877   2.306
10776TIP3    H232206   8.337   5.911   2.405
10777TIP3   OH232207   9.528   6.560   2.977
10777TIP3    H132208   9.580   6.499   2.920
10777TIP3    H232209   9.515   6.502   3.055
10778TIP3   OH232210   9.206   6.018   2.647
10778TIP3    H132211   9.133   6.015   2.712
10778TIP3    H232212   9.284   6.011   2.705
10779TIP3   OH232213   8.654   6.067   2.657
10779TIP3    H132214   8.559   6.072   2.633
10779TIP3    H232215   8.679   5.975   2.636
10780TIP3   OH232216   8.923   6.060   2.348
10780TIP3    H132217   9.019   6.077   2.336
10780TIP3    H232218   8.883   6.090   2.263
10781TIP3   OH232219   9.602   6.111   2.862
10781TIP3    H132220   9.615   6.111   2.959
10781TIP3    H232221   9.636   6.025   2.835
10782TIP3   OH232222   8.759   6.099   2.124
10782TIP3    H132223   8.686   6.056   2.076
10782TIP3    H232224   8.812   6.133   2.050
10783TIP3   OH232225   8.837   6.890   3.493
10783TIP3    H132226   8.918   6.918   3.541
10783TIP3    H232227   8.774   6.884   3.567
10784TIP3   OH232228   9.300   6.330   2.744
10784TIP3    H132229   9.377   6.302   2.691
10784TIP3    H232230   9.321   6.291   2.831
10785TIP3   OH232231   8.824   5.829   2.622
10785TIP3    H132232   8.795   5.749   2.670
10785TIP3    H232233   8.891   5.794   2.562
10786TIP3   OH232234   9.278   6.230   3.048
10786TIP3    H132235   9.190   6.271   3.052
10786TIP3    H232236   9.336   6.296   3.090
10787TIP3   OH232237   9.014   6.627   2.133
10787TIP3    H132238   8.941   6.562   2.123
10787TIP3    H232239   8.997   6.662   2.224
10788TIP3   OH232240   9.466   5.963   1.965
10788TIP3    H132241   9.381   5.933   2.005
10788TIP3    H232242   9.489   6.042   2.019
10789TIP3   OH232243   9.413   6.942   3.133
10789TIP3    H132244   9.425   6.926   3.227
10789TIP3    H232245   9.384   7.035   3.130
10790TIP3   OH232246   9.569   6.189   2.080
10790TIP3    H132247   9.652   6.223   2.117
10790TIP3    H232248   9.534   6.268   2.034
10791TIP3   OH232249   8.705   6.647   2.808
10791TIP3    H132250   8.749   6.620   2.725
10791TIP3    H232251   8.747   6.588   2.872
10792TIP3   OH232252   9.155   6.774   1.951
10792TIP3    H132253   9.112   6.862   1.959
10792TIP3    H232254   9.101   6.721   2.014
10793TIP3   OH232255   8.593   6.577   3.426
10793TIP3    H132256   8.604   6.551   3.520
10793TIP3    H232257   8.522   6.515   3.396
10794TIP3   OH232258   9.312   6.683   3.442
10794TIP3    H132259   9.252   6.626   3.391
10794TIP3    H232260   9.399   6.650   3.412
10795TIP3   OH232261   9.579   7.203   3.030
10795TIP3    H132262   9.483   7.206   3.024
10795TIP3    H232263   9.595   7.261   3.107
10796TIP3   OH232264   8.806   6.951   2.429
10796TIP3    H132265   8.809   7.035   2.379
10796TIP3    H232266   8.712   6.940   2.444
10797TIP3   OH232267   8.369   6.259   2.133
10797TIP3    H132268   8.418   6.340   2.155
10797TIP3    H232269   8.294   6.265   2.196
10798TIP3   OH232270   8.949   6.720   2.376
10798TIP3    H132271   8.913   6.809   2.396
10798TIP3    H232272   8.917   6.669   2.453
10799TIP3   OH232273   9.078   7.297   2.904
10799TIP3    H132274   9.121   7.368   2.852
10799TIP3    H232275   9.154   7.260   2.950
10800TIP3   OH232276   8.729   7.192   2.285
10800TIP3    H132277   8.643   7.199   2.331
10800TIP3    H232278   8.760   7.285   2.290
10801TIP3   OH232279   9.466   6.935   2.860
10801TIP3    H132280   9.460   6.935   2.958
10801TIP3    H232281   9.540   6.875   2.845
10802TIP3   OH232282   8.802   6.076   3.432
10802TIP3    H132283   8.706   6.079   3.447
10802TIP3    H232284   8.830   6.013   3.500
10803TIP3   OH232285   8.515   7.161   3.064
10803TIP3    H132286   8.567   7.084   3.091
10803TIP3    H232287   8.549   7.227   3.126
10804TIP3   OH232288   8.806   6.804   1.742
10804TIP3    H132289   8.822   6.712   1.715
10804TIP3    H232290   8.791   6.793   1.838
10805TIP3   OH232291   8.754   6.809   2.015
10805TIP3    H132292   8.821   6.781   2.079
10805TIP3    H232293   8.758   6.907   2.022
10806TIP3   OH232294   8.488   6.503   2.217
10806TIP3    H132295   8.424   6.547   2.276
10806TIP3    H232296   8.505   6.574   2.153
10807TIP3   OH232297   9.645   6.152   3.134
10807TIP3    H132298   9.709   6.182   3.200
10807TIP3    H232299   9.618   6.066   3.171
10808TIP3   OH232300   9.484   5.918   2.272
10808TIP3    H132301   9.521   5.917   2.184
10808TIP3    H232302   9.546   5.977   2.320
10809TIP3   OH232303   9.018   7.008   1.962
10809TIP3    H132304   8.932   7.036   2.000
10809TIP3    H232305   9.035   7.081   1.901
10810TIP3   OH232306   9.198   6.071   2.377
10810TIP3    H132307   9.269   6.137   2.360
10810TIP3    H232308   9.207   6.059   2.474
10811TIP3   OH232309   9.475   6.387   3.186
10811TIP3    H132310   9.496   6.440   3.265
10811TIP3    H232311   9.536   6.312   3.193
10812TIP3   OH232312   9.347   5.795   2.477
10812TIP3    H132313   9.361   5.856   2.552
10812TIP3    H232314   9.401   5.840   2.408
10813TIP3   OH232315   8.759   7.082   2.031
10813TIP3    H132316   8.730   7.152   1.968
10813TIP3    H232317   8.744   7.126   2.117
10814TIP3   OH232318   8.865   5.795   2.267
10814TIP3    H132319   8.860   5.884   2.307
10814TIP3    H232320   8.960   5.777   2.280
10815TIP3   OH232321   8.478   6.717   2.025
10815TIP3    H132322   8.542   6.790   2.035
10815TIP3    H232323   8.527   6.664   1.958
10816TIP3   OH232324   8.427   5.989   2.150
10816TIP3    H132325   8.426   6.086   2.149
10816TIP3    H232326   8.335   5.968   2.129
10817TIP3   OH232327   8.813   5.709   3.033
10817TIP3    H132328   8.780   5.674   2.947
10817TIP3    H232329   8.803   5.632   3.092
10818TIP3   OH232330   8.353   6.928   2.416
10818TIP3    H132331   8.277   6.960   2.466
10818TIP3    H232332   8.334   6.966   2.327
10819TIP3   OH232333   8.505   7.464   3.485
10819TIP3    H132334   8.593   7.462   3.529
10819TIP3    H232335   8.485   7.369   3.481
10820TIP3   OH232336   8.991   7.435   3.529
10820TIP3    H132337   9.085   7.415   3.534
10820TIP3    H232338   8.965   7.379   3.453
10821TIP3   OH232339   8.968   7.009   1.659
10821TIP3    H132340   8.912   6.939   1.698
10821TIP3    H232341   9.043   6.956   1.628
10822TIP3   OH232342   9.624   7.342   3.267
10822TIP3    H132343   9.606   7.267   3.329
10822TIP3    H232344   9.710   7.372   3.297
10823TIP3   OH232345   8.638   6.875   3.685
10823TIP3    H132346   8.657   6.779   3.688
10823TIP3    H232347   8.551   6.875   3.640
10824TIP3   OH232348   8.615   6.527   1.875
10824TIP3    H132349   8.668   6.493   1.949
10824TIP3    H232350   8.684   6.531   1.805
10825TIP3   OH232351   9.246   6.957   3.457
10825TIP3    H132352   9.204   6.973   3.370
10825TIP3    H232353   9.275   6.864   3.450
10826TIP3   OH232354   9.118   6.723   1.682
10826TIP3    H132355   9.131   6.741   1.777
10826TIP3    H232356   9.113   6.625   1.683
10827TIP3   OH232357   8.759   6.611   3.666
10827TIP3    H132358   8.826   6.544   3.648
10827TIP3    H232359   8.783   6.640   3.756
10828TIP3   OH232360   8.822   6.428   2.099
10828TIP3    H132361   8.797   6.391   2.186
10828TIP3    H232362   8.856   6.349   2.053
10829TIP3   OH232363   9.093   6.496   3.328
10829TIP3    H132364   9.015   6.554   3.330
10829TIP3    H232365   9.140   6.527   3.247
10830TIP3   OH232366   8.922   6.219   1.939
10830TIP3    H132367   8.894   6.222   1.845
10830TIP3    H232368   9.018   6.232   1.931
10831TIP3   OH232369   9.610   6.899   3.472
10831TIP3    H132370   9.672   6.867   3.406
10831TIP3    H232371   9.602   6.824   3.533
10832TIP3   OH232372   9.217   6.281   3.455
10832TIP3    H132373   9.215   6.200   3.401
10832TIP3    H232374   9.173   6.346   3.396
10833TIP3   OH232375   9.218   6.065   3.263
10833TIP3    H132376   9.244   6.110   3.180
10833TIP3    H232377   9.124   6.043   3.244
10834TIP3   OH232378   9.251   6.605   3.133
10834TIP3    H132379   9.331   6.606   3.078
10834TIP3    H232380   9.196   6.672   3.088
10835TIP3   OH232381   9.838   6.577   3.513
10835TIP3    H132382   9.864   6.486   3.532
10835TIP3    H232383   9.923   6.620   3.501
10836TIP3   OH232384   9.092   6.397   3.682
10836TIP3    H132385   9.024   6.328   3.697
10836TIP3    H232386   9.128   6.370   3.595
10837TIP3   OH232387   9.348   5.831   3.324
10837TIP3    H132388   9.298   5.913   3.304
10837TIP3    H232389   9.278   5.763   3.314
10838TIP3   OH232390   9.477   6.339   3.542
10838TIP3    H132391   9.463   6.325   3.637
10838TIP3    H232392   9.387   6.314   3.510
10839TIP3   OH232393   9.716   6.274   3.395
10839TIP3    H132394   9.634   6.284   3.448
10839TIP3    H232395   9.781   6.250   3.464
10840TIP3   OH232396   9.923   6.212   3.570
10840TIP3    H132397   9.970   6.137   3.609
10840TIP3    H232398   9.923   6.274   3.646
10841TIP3   OH232399   8.935   6.177   3.734
10841TIP3    H132400   8.937   6.085   3.700
10841TIP3    H232401   8.969   6.162   3.825
10842TIP3   OH232402   9.451   5.845   3.579
10842TIP3    H132403   9.512   5.769   3.575
10842TIP3    H232404   9.404   5.836   3.493
10843TIP3   OH232405   9.514   6.060   3.739
10843TIP3    H132406   9.488   5.988   3.677
10843TIP3    H232407   9.435   6.117   3.737
10844TIP3   OH232408   8.730   7.283   1.844
10844TIP3    H132409   8.825   7.282   1.825
10844TIP3    H232410   8.698   7.332   1.765
10845TIP3   OH232411   8.210   6.668   2.059
10845TIP3    H132412   8.305   6.690   2.048
10845TIP3    H232413   8.207   6.578   2.019
10846TIP3   OH232414   8.124   7.279   2.472
10846TIP3    H132415   8.056   7.216   2.439
10846TIP3    H232416   8.168   7.223   2.540
10847TIP3   OH232417   8.261   7.134   2.660
10847TIP3    H132418   8.251   7.058   2.719
10847TIP3    H232419   8.312   7.194   2.717
10848TIP3   OH232420   8.448   6.553   3.019
10848TIP3    H132421   8.452   6.516   2.929
10848TIP3    H232422   8.543   6.547   3.045
10849TIP3   OH232423   8.667   6.229   3.710
10849TIP3    H132424   8.765   6.219   3.709
10849TIP3    H232425   8.641   6.143   3.748
10850TIP3   OH232426   8.627   5.915   3.029
10850TIP3    H132427   8.691   5.843   3.047
10850TIP3    H232428   8.686   5.992   3.033
10851TIP3   OH232429   8.440   6.178   3.113
10851TIP3    H132430   8.485   6.188   3.027
10851TIP3    H232431   8.455   6.264   3.154
10852TIP3   OH232432   8.412   5.688   2.606
10852TIP3    H132433   8.320   5.694   2.639
10852TIP3    H232434   8.411   5.751   2.532
10853TIP3   OH232435   8.632   5.778   3.425
10853TIP3    H132436   8.584   5.767   3.509
10853TIP3    H232437   8.562   5.815   3.368
10854TIP3   OH232438   8.672   7.205   3.505
10854TIP3    H132439   8.583   7.171   3.484
10854TIP3    H232440   8.683   7.178   3.597
10855TIP3   OH232441   8.850   7.232   3.052
10855TIP3    H132442   8.804   7.309   3.012
10855TIP3    H232443   8.937   7.245   3.009
10856TIP3   OH232444   9.295   7.478   3.194
10856TIP3    H132445   9.343   7.486   3.279
10856TIP3    H232446   9.358   7.525   3.134
10857TIP3   OH232447   9.462   7.622   3.034
10857TIP3    H132448   9.540   7.586   2.989
10857TIP3    H232449   9.505   7.676   3.105
10858TIP3   OH232450   8.528   7.492   3.072
10858TIP3    H132451   8.439   7.527   3.050
10858TIP3    H232452   8.536   7.521   3.164
10859TIP3   OH232453   8.763   7.468   2.931
10859TIP3    H132454   8.677   7.482   2.976
10859TIP3    H232455   8.743   7.502   2.841
10860TIP3   OH232456   9.191   7.498   2.722
10860TIP3    H132457   9.116   7.522   2.665
10860TIP3    H232458   9.205   7.582   2.772
10861TIP3   OH232459   9.460   7.438   2.776
10861TIP3    H132460   9.366   7.456   2.760
10861TIP3    H232461   9.503   7.520   2.748
10862TIP3   OH232462   8.439   7.285   2.820
10862TIP3    H132463   8.466   7.260   2.911
10862TIP3    H232464   8.512   7.241   2.770
10863TIP3   OH232465   8.633   7.156   2.675
10863TIP3    H132466   8.648   7.071   2.723
10863TIP3    H232467   8.723   7.193   2.672
10864TIP3   OH232468   8.898   7.251   2.679
10864TIP3    H132469   8.931   7.160   2.667
10864TIP3    H232470   8.942   7.272   2.763
10865TIP3   OH232471   9.442   5.873   2.731
10865TIP3    H132472   9.410   5.824   2.809
10865TIP3    H232473   9.520   5.823   2.706
10866TIP3   OH232474   8.725   5.616   2.782
10866TIP3    H132475   8.633   5.581   2.785
10866TIP3    H232476   8.776   5.533   2.780
10867TIP3   OH232477   8.501   5.486   2.425
10867TIP3    H132478   8.538   5.547   2.359
10867TIP3    H232479   8.476   5.547   2.497
10868TIP3   OH232480   9.161   5.652   2.663
10868TIP3    H132481   9.221   5.700   2.603
10868TIP3    H232482   9.187   5.687   2.749
10869TIP3   OH232483   8.228   7.054   2.211
10869TIP3    H132484   8.143   7.022   2.176
10869TIP3    H232485   8.216   7.149   2.199
10870TIP3   OH232486   8.626   5.650   2.192
10870TIP3    H132487   8.678   5.586   2.140
10870TIP3    H232488   8.698   5.704   2.232
10871TIP3   OH232489   9.142   5.819   2.291
10871TIP3    H132490   9.204   5.776   2.354
10871TIP3    H232491   9.159   5.912   2.317
10872TIP3   OH232492   8.998   7.248   1.791
10872TIP3    H132493   9.086   7.270   1.754
10872TIP3    H232494   8.975   7.174   1.732
10873TIP3   OH232495   8.930   5.905   3.680
10873TIP3    H132496   8.896   5.828   3.729
10873TIP3    H232497   9.025   5.900   3.703
10874TIP3   OH232498   9.182   5.897   3.795
10874TIP3    H132499   9.265   5.863   3.757
10874TIP3    H232500   9.164   5.828   3.863
10875TIP3   OH232501   8.303   7.084   1.851
10875TIP3    H132502   8.301   7.111   1.944
10875TIP3    H232503   8.392   7.044   1.843
10876TIP3   OH232504   0.372   7.460   4.604
10876TIP3    H132505   0.421   7.396   4.659
10876TIP3    H232506   0.416   7.543   4.627
10877TIP3   OH232507   0.882   6.704   4.981
10877TIP3    H132508   0.910   6.785   5.028
10877TIP3    H232509   0.897   6.729   4.889
10878TIP3   OH232510   0.358   6.882   5.006
10878TIP3    H132511   0.384   6.792   5.033
10878TIP3    H232512   0.324   6.864   4.917
10879TIP3   OH232513   0.308   6.626   4.610
10879TIP3    H132514   0.383   6.613   4.673
10879TIP3    H232515   0.356   6.665   4.535
10880TIP3   OH232516   0.957   6.908   5.151
10880TIP3    H132517   0.874   6.958   5.129
10880TIP3    H232518   0.965   6.929   5.245
10881TIP3   OH232519   0.526   6.632   4.777
10881TIP3    H132520   0.507   6.594   4.864
10881TIP3    H232521   0.579   6.710   4.800
10882TIP3   OH232522   0.680   6.592   5.146
10882TIP3    H132523   0.595   6.640   5.145
10882TIP3    H232524   0.729   6.633   5.072
10883TIP3   OH232525   0.246   7.525   4.340
10883TIP3    H132526   0.180   7.456   4.325
10883TIP3    H232527   0.287   7.497   4.424
10884TIP3   OH232528   0.822   7.241   4.978
10884TIP3    H132529   0.733   7.282   4.975
10884TIP3    H232530   0.851   7.265   4.887
10885TIP3   OH232531   0.259   7.088   4.347
10885TIP3    H132532   0.198   7.118   4.418
10885TIP3    H232533   0.337   7.060   4.398
10886TIP3   OH232534   0.503   7.155   5.241
10886TIP3    H132535   0.490   7.219   5.313
10886TIP3    H232536   0.413   7.145   5.208
10887TIP3   OH232537   0.154   6.907   4.167
10887TIP3    H132538   0.173   6.973   4.237
10887TIP3    H232539   0.110   6.964   4.103
10888TIP3   OH232540   0.605   6.189   4.230
10888TIP3    H132541   0.525   6.209   4.284
10888TIP3    H232542   0.618   6.274   4.184
10889TIP3   OH232543   0.404   7.556   3.774
10889TIP3    H132544   0.415   7.653   3.770
10889TIP3    H232545   0.497   7.526   3.764
10890TIP3   OH232546   0.865   7.950   5.169
10890TIP3    H132547   0.857   7.853   5.177
10890TIP3    H232548   0.774   7.978   5.195
10891TIP3   OH232549   0.746   7.098   5.446
10891TIP3    H132550   0.660   7.112   5.403
10891TIP3    H232551   0.744   7.002   5.457
10892TIP3   OH232552   0.280   6.421   5.447
10892TIP3    H132553   0.354   6.396   5.507
10892TIP3    H232554   0.204   6.405   5.504
10893TIP3   OH232555   0.554   6.901   5.364
10893TIP3    H132556   0.509   6.877   5.448
10893TIP3    H232557   0.487   6.960   5.325
10894TIP3   OH232558   0.150   7.022   3.903
10894TIP3    H132559   0.145   6.961   3.827
10894TIP3    H232560   0.245   7.044   3.905
10895TIP3   OH232561   0.210   6.839   4.767
10895TIP3    H132562   0.135   6.868   4.713
10895TIP3    H232563   0.232   6.755   4.722
10896TIP3   OH232564   0.373   6.610   5.037
10896TIP3    H132565   0.379   6.615   5.136
10896TIP3    H232566   0.299   6.547   5.026
10897TIP3   OH232567   0.588   7.362   4.952
10897TIP3    H132568   0.610   7.456   4.930
10897TIP3    H232569   0.495   7.372   4.978
10898TIP3   OH232570   0.085   6.483   4.184
10898TIP3    H132571   0.012   6.539   4.216
10898TIP3    H232572   0.159   6.546   4.205
10899TIP3   OH232573   0.239   6.677   4.275
10899TIP3    H132574   0.320   6.712   4.317
10899TIP3    H232575   0.197   6.760   4.244
10900TIP3   OH232576   0.645   6.805   4.136
10900TIP3    H132577   0.582   6.761   4.074
10900TIP3    H232578   0.640   6.895   4.098
10901TIP3   OH232579   0.847   7.658   5.206
10901TIP3    H132580   0.753   7.665   5.181
10901TIP3    H232581   0.885   7.633   5.119
10902TIP3   OH232582   0.336   7.632   4.044
10902TIP3    H132583   0.317   7.573   4.118
10902TIP3    H232584   0.357   7.572   3.971
10903TIP3   OH232585   0.323   7.260   4.866
10903TIP3    H132586   0.256   7.211   4.913
10903TIP3    H232587   0.381   7.189   4.833
10904TIP3   OH232588   0.436   7.835   3.767
10904TIP3    H132589   0.488   7.906   3.725
10904TIP3    H232590   0.348   7.875   3.761
10905TIP3   OH232591   0.250   7.281   4.144
10905TIP3    H132592   0.239   7.216   4.217
10905TIP3    H232593   0.347   7.290   4.144
10906TIP3   OH232594   0.400   6.645   5.301
10906TIP3    H132595   0.406   6.728   5.352
10906TIP3    H232596   0.340   6.593   5.358
10907TIP3   OH232597   0.185   6.417   4.462
10907TIP3    H132598   0.159   6.469   4.385
10907TIP3    H232599   0.210   6.489   4.524
10908TIP3   OH232600   0.796   6.797   5.364
10908TIP3    H132601   0.702   6.825   5.373
10908TIP3    H232602   0.797   6.775   5.270
10909TIP3   OH232603   0.430   7.019   4.751
10909TIP3    H132604   0.354   6.958   4.760
10909TIP3    H232605   0.500   6.974   4.804
10910TIP3   OH232606   0.429   7.925   4.650
10910TIP3    H132607   0.377   8.005   4.649
10910TIP3    H232608   0.519   7.964   4.658
10911TIP3   OH232609   0.405   7.090   3.801
10911TIP3    H132610   0.384   7.039   3.721
10911TIP3    H232611   0.378   7.179   3.771
10912TIP3   OH232612   0.510   7.096   5.686
10912TIP3    H132613   0.545   7.026   5.742
10912TIP3    H232614   0.563   7.172   5.713
10913TIP3   OH232615   0.530   7.354   5.439
10913TIP3    H132616   0.470   7.406   5.386
10913TIP3    H232617   0.618   7.374   5.398
10914TIP3   OH232618   0.418   6.822   5.575
10914TIP3    H132619   0.338   6.821   5.630
10914TIP3    H232620   0.488   6.801   5.641
10915TIP3   OH232621   0.601   6.753   5.762
10915TIP3    H132622   0.617   6.658   5.782
10915TIP3    H232623   0.591   6.795   5.850
10916TIP3   OH232624   0.645   8.094   4.656
10916TIP3    H132625   0.675   8.117   4.746
10916TIP3    H232626   0.720   8.124   4.602
10917TIP3   OH232627   0.677   8.089   4.935
10917TIP3    H132628   0.639   8.001   4.917
10917TIP3    H232629   0.740   8.067   5.005
10918TIP3   OH232630   0.716   7.766   5.505
10918TIP3    H132631   0.662   7.761   5.585
10918TIP3    H232632   0.762   7.852   5.516
10919TIP3   OH232633   0.538   7.275   4.136
10919TIP3    H132634   0.610   7.337   4.114
10919TIP3    H232635   0.573   7.233   4.217
10920TIP3   OH232636   0.661   7.141   4.338
10920TIP3    H132637   0.599   7.097   4.400
10920TIP3    H232638   0.728   7.179   4.399
10921TIP3   OH232639   0.603   7.047   3.989
10921TIP3    H132640   0.530   7.053   3.924
10921TIP3    H232641   0.579   7.122   4.048
10922TIP3   OH232642   0.481   6.718   3.937
10922TIP3    H132643   0.430   6.760   3.867
10922TIP3    H232644   0.450   6.626   3.931
10923TIP3   OH232645   0.484   6.993   4.487
10923TIP3    H132646   0.491   6.896   4.484
10923TIP3    H232647   0.472   7.010   4.583
10924TIP3   OH232648   0.771   7.425   5.341
10924TIP3    H132649   0.841   7.356   5.334
10924TIP3    H232650   0.804   7.494   5.281
10925TIP3   OH232651   0.960   7.234   5.365
10925TIP3    H132652   0.883   7.183   5.400
10925TIP3    H232653   1.030   7.167   5.378
10926TIP3   OH232654   0.418   6.453   3.930
10926TIP3    H132655   0.500   6.431   3.979
10926TIP3    H232656   0.353   6.392   3.968
10927TIP3   OH232657   0.485   6.716   4.397
10927TIP3    H132658   0.524   6.626   4.408
10927TIP3    H232659   0.537   6.748   4.322
10928TIP3   OH232660   0.640   6.884   4.873
10928TIP3    H132661   0.727   6.914   4.839
10928TIP3    H232662   0.645   6.923   4.963
10929TIP3   OH232663   0.709   7.025   5.106
10929TIP3    H132664   0.634   7.062   5.157
10929TIP3    H232665   0.743   7.107   5.064
10930TIP3   OH232666   1.159   6.618   5.671
10930TIP3    H132667   1.215   6.553   5.624
10930TIP3    H232668   1.130   6.676   5.597
10931TIP3   OH232669   0.587   6.460   4.419
10931TIP3    H132670   0.634   6.447   4.504
10931TIP3    H232671   0.524   6.385   4.419
10932TIP3   OH232672   1.038   6.762   5.479
10932TIP3    H132673   0.949   6.800   5.496
10932TIP3    H232674   1.011   6.693   5.416
10933TIP3   OH232675   0.664   6.401   4.049
10933TIP3    H132676   0.709   6.326   4.004
10933TIP3    H232677   0.733   6.470   4.047
10934TIP3   OH232678   0.932   6.522   5.351
10934TIP3    H132679   0.839   6.528   5.320
10934TIP3    H232680   0.952   6.428   5.335
10935TIP3   OH232681   0.174   6.413   4.993
10935TIP3    H132682   0.164   6.337   5.052
10935TIP3    H232683   0.249   6.383   4.936
10936TIP3   OH232684   0.659   6.311   4.870
10936TIP3    H132685   0.696   6.370   4.801
10936TIP3    H232686   0.566   6.340   4.872
10937TIP3   OH232687   0.751   6.420   4.637
10937TIP3    H132688   0.825   6.371   4.597
10937TIP3    H232689   0.783   6.513   4.624
10938TIP3   OH232690   0.382   6.319   4.843
10938TIP3    H132691   0.386   6.285   4.753
10938TIP3    H232692   0.366   6.237   4.895
10939TIP3   OH232693   0.401   6.248   4.408
10939TIP3    H132694   0.318   6.298   4.425
10939TIP3    H232695   0.385   6.165   4.457
10940TIP3   OH232696   0.378   7.900   4.069
10940TIP3    H132697   0.371   7.803   4.083
10940TIP3    H232698   0.328   7.909   3.988
10941TIP3   OH232699   0.662   6.486   5.786
10941TIP3    H132700   0.682   6.454   5.877
10941TIP3    H232701   0.749   6.480   5.743
10942TIP3   OH232702   0.615   8.036   5.220
10942TIP3    H132703   0.534   7.986   5.218
10942TIP3    H232704   0.593   8.101   5.289
10943TIP3   OH232705   1.868   7.411   4.043
10943TIP3    H132706   1.841   7.503   4.025
10943TIP3    H232707   1.788   7.364   4.015
10944TIP3   OH232708   1.866   7.409   4.421
10944TIP3    H132709   1.896   7.382   4.509
10944TIP3    H232710   1.822   7.329   4.388
10945TIP3   OH232711   1.175   7.308   4.781
10945TIP3    H132712   1.200   7.243   4.849
10945TIP3    H232713   1.244   7.374   4.793
10946TIP3   OH232714   2.108   7.712   4.104
10946TIP3    H132715   2.095   7.643   4.171
10946TIP3    H232716   2.135   7.788   4.158
10947TIP3   OH232717   1.138   7.716   4.513
10947TIP3    H132718   1.126   7.619   4.518
10947TIP3    H232719   1.235   7.723   4.513
10948TIP3   OH232720   0.846   6.921   4.299
10948TIP3    H132721   0.800   7.005   4.317
10948TIP3    H232722   0.771   6.867   4.269
10949TIP3   OH232723   0.901   7.205   4.459
10949TIP3    H132724   0.949   7.135   4.509
10949TIP3    H232725   0.969   7.236   4.399
10950TIP3   OH232726   1.755   8.175   4.118
10950TIP3    H132727   1.805   8.103   4.074
10950TIP3    H232728   1.749   8.142   4.209
10951TIP3   OH232729   1.666   7.636   4.469
10951TIP3    H132730   1.703   7.560   4.423
10951TIP3    H232731   1.749   7.681   4.495
10952TIP3   OH232732   2.676   6.958   4.469
10952TIP3    H132733   2.704   7.040   4.515
10952TIP3    H232734   2.696   6.981   4.376
10953TIP3   OH232735   2.078   7.140   4.506
10953TIP3    H132736   2.119   7.054   4.526
10953TIP3    H232737   2.047   7.125   4.415
10954TIP3   OH232738   1.413   6.798   4.470
10954TIP3    H132739   1.392   6.871   4.409
10954TIP3    H232740   1.364   6.725   4.427
10955TIP3   OH232741   2.107   6.887   4.094
10955TIP3    H132742   2.180   6.871   4.159
10955TIP3    H232743   2.158   6.925   4.020
10956TIP3   OH232744   1.048   7.003   4.576
10956TIP3    H132745   1.130   6.982   4.625
10956TIP3    H232746   1.061   6.946   4.497
10957TIP3   OH232747   1.491   7.199   4.362
10957TIP3    H132748   1.583   7.172   4.382
10957TIP3    H232749   1.450   7.114   4.335
10958TIP3   OH232750   2.749   7.164   4.639
10958TIP3    H132751   2.666   7.213   4.621
10958TIP3    H232752   2.763   7.186   4.732
10959TIP3   OH232753   1.411   6.781   4.904
10959TIP3    H132754   1.351   6.819   4.838
10959TIP3    H232755   1.360   6.799   4.986
10960TIP3   OH232756   1.764   7.635   3.911
10960TIP3    H132757   1.714   7.609   3.833
10960TIP3    H232758   1.720   7.719   3.934
10961TIP3   OH232759   1.517   7.556   4.702
10961TIP3    H132760   1.452   7.619   4.741
10961TIP3    H232761   1.558   7.611   4.633
10962TIP3   OH232762   2.321   6.889   4.262
10962TIP3    H132763   2.309   6.841   4.345
10962TIP3    H232764   2.374   6.966   4.290
10963TIP3   OH232765   1.281   6.897   4.689
10963TIP3    H132766   1.342   6.970   4.712
10963TIP3    H232767   1.331   6.856   4.615
10964TIP3   OH232768   1.344   7.747   4.795
10964TIP3    H132769   1.318   7.834   4.757
10964TIP3    H232770   1.267   7.734   4.855
10965TIP3   OH232771   0.746   7.440   4.034
10965TIP3    H132772   0.700   7.471   3.954
10965TIP3    H232773   0.776   7.525   4.074
10966TIP3   OH232774   2.181   7.954   4.273
10966TIP3    H132775   2.091   7.946   4.313
10966TIP3    H232776   2.173   8.041   4.229
10967TIP3   OH232777   2.470   6.857   4.635
10967TIP3    H132778   2.382   6.889   4.608
10967TIP3    H232779   2.528   6.889   4.563
10968TIP3   OH232780   1.770   6.503   4.617
10968TIP3    H132781   1.757   6.408   4.635
10968TIP3    H232782   1.692   6.540   4.664
10969TIP3   OH232783   1.886   8.002   3.950
10969TIP3    H132784   1.936   7.921   3.927
10969TIP3    H232785   1.944   8.069   3.907
10970TIP3   OH232786   2.027   7.787   3.850
10970TIP3    H132787   1.980   7.710   3.817
10970TIP3    H232788   2.062   7.753   3.936
10971TIP3   OH232789   2.407   7.871   4.616
10971TIP3    H132790   2.396   7.793   4.558
10971TIP3    H232791   2.390   7.945   4.554
10972TIP3   OH232792   1.696   7.261   3.872
10972TIP3    H132793   1.616   7.313   3.851
10972TIP3    H232794   1.743   7.262   3.787
10973TIP3   OH232795   1.656   7.048   3.590
10973TIP3    H132796   1.723   7.096   3.641
10973TIP3    H232797   1.712   6.983   3.544
10974TIP3   OH232798   2.602   7.505   4.460
10974TIP3    H132799   2.519   7.557   4.467
10974TIP3    H232800   2.630   7.529   4.369
10975TIP3   OH232801   2.045   7.344   3.846
10975TIP3    H132802   1.990   7.370   3.924
10975TIP3    H232803   2.128   7.319   3.891
10976TIP3   OH232804   2.281   7.386   4.755
10976TIP3    H132805   2.278   7.469   4.806
10976TIP3    H232806   2.194   7.390   4.710
10977TIP3   OH232807   1.279   7.344   4.259
10977TIP3    H132808   1.237   7.285   4.192
10977TIP3    H232809   1.356   7.290   4.288
10978TIP3   OH232810   1.411   7.759   4.408
10978TIP3    H132811   1.387   7.707   4.330
10978TIP3    H232812   1.501   7.724   4.428
10979TIP3   OH232813   1.424   7.312   4.614
10979TIP3    H132814   1.452   7.299   4.522
10979TIP3    H232815   1.460   7.400   4.637
10980TIP3   OH232816   1.939   7.952   4.393
10980TIP3    H132817   1.925   8.031   4.447
10980TIP3    H232818   1.925   7.878   4.456
10981TIP3   OH232819   1.550   7.872   4.939
10981TIP3    H132820   1.491   7.935   4.986
10981TIP3    H232821   1.483   7.819   4.891
10982TIP3   OH232822   1.888   7.202   3.671
10982TIP3    H132823   1.946   7.262   3.725
10982TIP3    H232824   1.914   7.229   3.580
10983TIP3   OH232825   1.302   7.430   5.035
10983TIP3    H132826   1.307   7.515   5.084
10983TIP3    H232827   1.207   7.409   5.050
10984TIP3   OH232828   1.628   7.884   3.943
10984TIP3    H132829   1.704   7.939   3.969
10984TIP3    H232830   1.564   7.949   3.911
10985TIP3   OH232831   1.347   8.043   5.026
10985TIP3    H132832   1.312   8.037   4.936
10985TIP3    H232833   1.268   8.020   5.081
10986TIP3   OH232834   2.401   6.446   3.719
10986TIP3    H132835   2.320   6.464   3.771
10986TIP3    H232836   2.412   6.530   3.670
10987TIP3   OH232837   1.146   7.185   4.062
10987TIP3    H132838   1.078   7.230   4.008
10987TIP3    H232839   1.100   7.103   4.085
10988TIP3   OH232840   2.199   7.812   3.265
10988TIP3    H132841   2.206   7.909   3.254
10988TIP3    H232842   2.292   7.784   3.254
10989TIP3   OH232843   0.945   7.572   4.970
10989TIP3    H132844   0.857   7.575   4.925
10989TIP3    H232845   0.959   7.477   4.986
10990TIP3   OH232846   0.786   7.787   4.572
10990TIP3    H132847   0.867   7.742   4.599
10990TIP3    H232848   0.739   7.793   4.657
10991TIP3   OH232849   2.644   8.212   4.660
10991TIP3    H132850   2.642   8.116   4.675
10991TIP3    H232851   2.561   8.238   4.706
10992TIP3   OH232852   1.750   8.001   4.796
10992TIP3    H132853   1.749   8.093   4.829
10992TIP3    H232854   1.678   7.962   4.851
10993TIP3   OH232855   1.508   8.131   3.748
10993TIP3    H132856   1.462   8.114   3.664
10993TIP3    H232857   1.477   8.220   3.771
10994TIP3   OH232858   0.947   7.980   4.131
10994TIP3    H132859   0.998   7.970   4.215
10994TIP3    H232860   0.882   7.909   4.143
10995TIP3   OH232861   1.711   8.030   3.389
10995TIP3    H132862   1.771   7.960   3.354
10995TIP3    H232863   1.745   8.040   3.481
10996TIP3   OH232864   1.760   8.077   3.660
10996TIP3    H132865   1.672   8.088   3.702
10996TIP3    H232866   1.811   8.037   3.732
10997TIP3   OH232867   2.536   7.347   4.935
10997TIP3    H132868   2.453   7.360   4.886
10997TIP3    H232869   2.549   7.251   4.926
10998TIP3   OH232870   1.136   7.761   4.968
10998TIP3    H132871   1.185   7.737   5.050
10998TIP3    H232872   1.065   7.693   4.968
10999TIP3   OH232873   1.530   6.578   4.744
10999TIP3    H132874   1.440   6.547   4.721
10999TIP3    H232875   1.506   6.661   4.790
11000TIP3   OH232876   2.062   6.692   4.940
11000TIP3    H132877   2.129   6.666   5.006
11000TIP3    H232878   1.977   6.672   4.986
11001TIP3   OH232879   2.305   7.122   4.860
11001TIP3    H132880   2.256   7.117   4.945
11001TIP3    H232881   2.277   7.209   4.825
11002TIP3   OH232882   1.959   7.251   3.413
11002TIP3    H132883   1.931   7.224   3.323
11002TIP3    H232884   2.038   7.304   3.392
11003TIP3   OH232885   1.675   6.628   3.716
11003TIP3    H132886   1.644   6.626   3.809
11003TIP3    H232887   1.638   6.543   3.685
11004TIP3   OH232888   1.461   7.090   4.765
11004TIP3    H132889   1.410   7.112   4.846
11004TIP3    H232890   1.446   7.172   4.711
11005TIP3   OH232891   1.345   6.978   4.278
11005TIP3    H132892   1.252   6.952   4.296
11005TIP3    H232893   1.357   6.936   4.190
11006TIP3   OH232894   1.835   7.064   4.005
11006TIP3    H132895   1.780   7.136   3.965
11006TIP3    H232896   1.889   7.036   3.929
11007TIP3   OH232897   2.009   7.344   5.093
11007TIP3    H132898   1.987   7.272   5.155
11007TIP3    H232899   2.103   7.359   5.116
11008TIP3   OH232900   1.994   7.094   4.246
11008TIP3    H132901   1.935   7.125   4.176
11008TIP3    H232902   2.025   7.011   4.204
11009TIP3   OH232903   1.282   7.121   4.974
11009TIP3    H132904   1.298   7.187   5.043
11009TIP3    H232905   1.266   7.040   5.025
11010TIP3   OH232906   1.329   6.598   3.683
11010TIP3    H132907   1.325   6.594   3.781
11010TIP3    H232908   1.249   6.650   3.663
11011TIP3   OH232909   0.873   6.644   4.551
11011TIP3    H132910   0.946   6.676   4.608
11011TIP3    H232911   0.920   6.611   4.473
11012TIP3   OH232912   0.849   6.625   4.071
11012TIP3    H132913   0.896   6.665   3.996
11012TIP3    H232914   0.789   6.698   4.095
11013TIP3   OH232915   2.004   7.342   4.669
11013TIP3    H132916   2.036   7.268   4.612
11013TIP3    H232917   1.975   7.291   4.748
11014TIP3   OH232918   1.669   6.801   4.340
11014TIP3    H132919   1.586   6.799   4.392
11014TIP3    H232920   1.736   6.802   4.411
11015TIP3   OH232921   1.107   6.856   4.347
11015TIP3    H132922   1.012   6.864   4.322
11015TIP3    H232923   1.129   6.764   4.325
11016TIP3   OH232924   1.378   6.851   4.036
11016TIP3    H132925   1.472   6.869   4.016
11016TIP3    H232926   1.332   6.877   3.953
11017TIP3   OH232927   2.163   6.875   4.539
11017TIP3    H132928   2.131   6.887   4.631
11017TIP3    H232929   2.097   6.814   4.504
11018TIP3   OH232930   1.214   6.884   3.816
11018TIP3    H132931   1.139   6.843   3.769
11018TIP3    H232932   1.265   6.920   3.740
11019TIP3   OH232933   2.331   8.565   4.760
11019TIP3    H132934   2.331   8.587   4.665
11019TIP3    H232935   2.411   8.613   4.791
11020TIP3   OH232936   1.292   7.674   5.184
11020TIP3    H132937   1.371   7.705   5.234
11020TIP3    H232938   1.226   7.672   5.256
11021TIP3   OH232939   1.756   7.128   4.438
11021TIP3    H132940   1.828   7.086   4.389
11021TIP3    H232941   1.765   7.088   4.527
11022TIP3   OH232942   1.279   6.616   4.314
11022TIP3    H132943   1.247   6.536   4.360
11022TIP3    H232944   1.335   6.579   4.244
11023TIP3   OH232945   1.732   7.024   4.727
11023TIP3    H132946   1.642   7.060   4.742
11023TIP3    H232947   1.789   7.084   4.779
11024TIP3   OH232948   1.470   7.416   3.822
11024TIP3    H132949   1.397   7.352   3.812
11024TIP3    H232950   1.453   7.450   3.913
11025TIP3   OH232951   2.371   7.652   4.454
11025TIP3    H132952   2.394   7.701   4.372
11025TIP3    H232953   2.284   7.612   4.430
11026TIP3   OH232954   1.926   6.732   3.676
11026TIP3    H132955   1.830   6.715   3.690
11026TIP3    H232956   1.938   6.825   3.706
11027TIP3   OH232957   1.872   7.736   4.819
11027TIP3    H132958   1.887   7.709   4.910
11027TIP3    H232959   1.829   7.822   4.829
11028TIP3   OH232960   1.998   6.974   3.785
11028TIP3    H132961   2.094   6.980   3.803
11028TIP3    H232962   1.980   7.055   3.734
11029TIP3   OH232963   1.161   7.437   4.501
11029TIP3    H132964   1.201   7.406   4.418
11029TIP3    H232965   1.194   7.373   4.566
11030TIP3   OH232966   1.612   7.565   3.639
11030TIP3    H132967   1.566   7.652   3.648
11030TIP3    H232968   1.559   7.510   3.701
11031TIP3   OH232969   1.046   7.349   5.112
11031TIP3    H132970   1.056   7.335   5.208
11031TIP3    H232971   0.971   7.290   5.091
11032TIP3   OH232972   1.765   7.472   5.131
11032TIP3    H132973   1.706   7.412   5.083
11032TIP3    H232974   1.853   7.439   5.103
11033TIP3   OH232975   2.030   7.996   4.712
11033TIP3    H132976   1.934   7.991   4.726
11033TIP3    H232977   2.057   8.046   4.793
11034TIP3   OH232978   2.441   7.063   3.623
11034TIP3    H132979   2.378   7.018   3.563
11034TIP3    H232980   2.437   7.152   3.583
11035TIP3   OH232981   2.657   7.921   4.706
11035TIP3    H132982   2.559   7.917   4.698
11035TIP3    H232983   2.682   7.892   4.615
11036TIP3   OH232984   2.136   7.884   3.530
11036TIP3    H132985   2.115   7.815   3.595
11036TIP3    H232986   2.151   7.835   3.448
11037TIP3   OH232987   2.135   7.514   4.372
11037TIP3    H132988   2.042   7.488   4.386
11037TIP3    H232989   2.169   7.434   4.327
11038TIP3   OH232990   1.259   7.737   4.117
11038TIP3    H132991   1.260   7.822   4.069
11038TIP3    H232992   1.166   7.729   4.139
11039TIP3   OH232993   0.823   7.047   3.824
11039TIP3    H132994   0.871   7.129   3.846
11039TIP3    H232995   0.747   7.052   3.886
11040TIP3   OH232996   1.405   7.508   4.068
11040TIP3    H132997   1.366   7.597   4.084
11040TIP3    H232998   1.367   7.458   4.143
11041TIP3   OH232999   1.530   8.086   4.593
11041TIP3    H133000   1.571   8.158   4.542
11041TIP3    H233001   1.606   8.052   4.643
11042TIP3   OH233002   1.181   7.980   3.975
11042TIP3    H133003   1.095   7.986   4.022
11042TIP3    H233004   1.212   8.073   3.980
11043TIP3   OH233005   1.922   7.719   4.550
11043TIP3    H133006   1.912   7.719   4.648
11043TIP3    H233007   2.002   7.667   4.539
11044TIP3   OH233008   1.891   7.607   3.433
11044TIP3    H133009   1.945   7.584   3.512
11044TIP3    H233010   1.803   7.587   3.467
11045TIP3   OH233011   2.168   8.255   4.603
11045TIP3    H133012   2.091   8.196   4.596
11045TIP3    H233013   2.152   8.319   4.530
11046TIP3   OH233014   2.233   8.088   3.254
11046TIP3    H133015   2.273   8.160   3.203
11046TIP3    H233016   2.153   8.135   3.287
11047TIP3   OH233017   1.254   6.862   5.121
11047TIP3    H133018   1.158   6.871   5.136
11047TIP3    H233019   1.280   6.803   5.193
11048TIP3   OH233020   2.052   7.542   3.648
11048TIP3    H133021   2.042   7.479   3.722
11048TIP3    H233022   2.149   7.544   3.639
11049TIP3   OH233023   0.979   7.962   4.754
11049TIP3    H133024   1.008   7.873   4.776
11049TIP3    H233025   1.008   8.011   4.831
11050TIP3   OH233026   1.260   7.592   3.432
11050TIP3    H133027   1.276   7.500   3.405
11050TIP3    H233028   1.243   7.582   3.527
11051TIP3   OH233029   1.207   7.597   3.703
11051TIP3    H133030   1.273   7.570   3.769
11051TIP3    H233031   1.210   7.695   3.712
11052TIP3   OH233032   0.942   7.291   3.907
11052TIP3    H133033   0.877   7.335   3.967
11052TIP3    H233034   0.957   7.363   3.843
11053TIP3   OH233035   2.091   6.926   4.797
11053TIP3    H133036   2.166   6.966   4.843
11053TIP3    H233037   2.074   6.847   4.853
11054TIP3   OH233038   1.969   6.682   3.962
11054TIP3    H133039   1.956   6.708   3.869
11054TIP3    H233040   2.008   6.763   4.001
11055TIP3   OH233041   1.470   7.795   3.652
11055TIP3    H133042   1.384   7.823   3.690
11055TIP3    H233043   1.489   7.871   3.595
11056TIP3   OH233044   1.661   6.858   4.067
11056TIP3    H133045   1.726   6.929   4.050
11056TIP3    H233046   1.664   6.851   4.165
11057TIP3   OH233047   1.929   7.179   4.876
11057TIP3    H133048   1.944   7.235   4.955
11057TIP3    H233049   1.985   7.102   4.896
11058TIP3   OH233050   1.806   6.589   4.172
11058TIP3    H133051   1.799   6.665   4.233
11058TIP3    H233052   1.865   6.627   4.103
11059TIP3   OH233053   1.211   7.870   3.720
11059TIP3    H133054   1.182   7.940   3.658
11059TIP3    H233055   1.196   7.913   3.807
11060TIP3   OH233056   1.316   6.583   3.959
11060TIP3    H133057   1.313   6.673   3.996
11060TIP3    H233058   1.412   6.564   3.969
11061TIP3   OH233059   2.571   7.077   4.854
11061TIP3    H133060   2.473   7.077   4.864
11061TIP3    H233061   2.578   7.038   4.766
11062TIP3   OH233062   2.221   7.273   4.244
11062TIP3    H133063   2.144   7.214   4.258
11062TIP3    H233064   2.292   7.226   4.292
11063TIP3   OH233065   0.930   7.505   3.714
11063TIP3    H133066   0.991   7.579   3.726
11063TIP3    H233067   0.979   7.453   3.648
11064TIP3   OH233068   0.879   6.777   3.842
11064TIP3    H133069   0.877   6.875   3.840
11064TIP3    H233070   0.789   6.754   3.819
11065TIP3   OH233071   2.188   8.226   4.195
11065TIP3    H133072   2.145   8.274   4.120
11065TIP3    H233073   2.282   8.246   4.175
11066TIP3   OH233074   1.267   6.496   4.722
11066TIP3    H133075   1.233   6.464   4.636
11066TIP3    H233076   1.255   6.418   4.780
11067TIP3   OH233077   0.804   7.708   4.103
11067TIP3    H133078   0.739   7.745   4.164
11067TIP3    H233079   0.781   7.754   4.020
11068TIP3   OH233080   0.957   8.251   5.177
11068TIP3    H133081   1.045   8.250   5.220
11068TIP3    H233082   0.938   8.156   5.170
11069TIP3   OH233083   1.445   8.226   5.215
11069TIP3    H133084   1.538   8.200   5.225
11069TIP3    H233085   1.418   8.166   5.142
11070TIP3   OH233086   1.422   7.798   3.345
11070TIP3    H133087   1.365   7.728   3.386
11070TIP3    H233088   1.498   7.744   3.319
11071TIP3   OH233089   2.082   8.127   4.949
11071TIP3    H133090   2.072   8.057   5.018
11071TIP3    H233091   2.159   8.177   4.982
11072TIP3   OH233092   1.859   7.838   3.256
11072TIP3    H133093   1.907   7.778   3.315
11072TIP3    H233094   1.917   7.842   3.178
11073TIP3   OH233095   1.085   7.662   5.370
11073TIP3    H133096   1.107   7.566   5.374
11073TIP3    H233097   0.998   7.660   5.325
11074TIP3   OH233098   1.067   7.315   3.564
11074TIP3    H133099   1.119   7.281   3.639
11074TIP3    H233100   1.137   7.319   3.495
11075TIP3   OH233101   1.700   7.747   5.146
11075TIP3    H133102   1.655   7.760   5.060
11075TIP3    H233103   1.730   7.654   5.141
11076TIP3   OH233104   1.573   7.511   3.371
11076TIP3    H133105   1.577   7.526   3.468
11076TIP3    H233106   1.571   7.413   3.369
11077TIP3   OH233107   2.192   7.751   4.751
11077TIP3    H133108   2.264   7.801   4.708
11077TIP3    H233109   2.118   7.814   4.742
11078TIP3   OH233110   1.212   7.400   5.355
11078TIP3    H133111   1.281   7.335   5.339
11078TIP3    H233112   1.235   7.430   5.446
11079TIP3   OH233113   1.276   7.217   3.790
11079TIP3    H133114   1.248   7.179   3.875
11079TIP3    H233115   1.310   7.139   3.742
11080TIP3   OH233116   1.546   7.283   5.019
11080TIP3    H133117   1.467   7.341   5.023
11080TIP3    H233118   1.591   7.315   4.937
11081TIP3   OH233119   1.375   7.008   3.630
11081TIP3    H133120   1.348   7.010   3.536
11081TIP3    H233121   1.472   7.017   3.623
11082TIP3   OH233122   2.060   7.683   5.151
11082TIP3    H133123   2.143   7.663   5.106
11082TIP3    H233124   2.059   7.616   5.222
11083TIP3   OH233125   2.200   7.342   3.289
11083TIP3    H133126   2.176   7.295   3.207
11083TIP3    H233127   2.168   7.433   3.266
11084TIP3   OH233128   1.668   7.069   5.145
11084TIP3    H133129   1.666   6.988   5.089
11084TIP3    H233130   1.624   7.135   5.087
11085TIP3   OH233131   1.670   6.853   4.949
11085TIP3    H133132   1.696   6.896   4.865
11085TIP3    H233133   1.576   6.832   4.932
11086TIP3   OH233134   1.701   7.392   4.821
11086TIP3    H133135   1.782   7.400   4.769
11086TIP3    H233136   1.643   7.460   4.780
11087TIP3   OH233137   2.280   7.359   5.204
11087TIP3    H133138   2.329   7.277   5.222
11087TIP3    H233139   2.350   7.418   5.174
11088TIP3   OH233140   2.322   7.610   4.941
11088TIP3    H133141   2.264   7.663   4.881
11088TIP3    H233142   2.410   7.630   4.899
11089TIP3   OH233143   1.545   7.185   5.372
11089TIP3    H133144   1.475   7.117   5.387
11089TIP3    H233145   1.580   7.157   5.285
11090TIP3   OH233146   1.802   6.619   5.015
11090TIP3    H133147   1.754   6.702   4.994
11090TIP3    H233148   1.731   6.553   5.005
11091TIP3   OH233149   1.929   7.126   5.233
11091TIP3    H133150   1.920   7.115   5.329
11091TIP3    H233151   1.838   7.101   5.205
11092TIP3   OH233152   2.167   7.069   5.086
11092TIP3    H133153   2.092   7.075   5.148
11092TIP3    H233154   2.240   7.041   5.145
11093TIP3   OH233155   2.399   7.012   5.238
11093TIP3    H133156   2.409   6.917   5.261
11093TIP3    H233157   2.392   7.054   5.326
11094TIP3   OH233158   1.386   6.964   5.424
11094TIP3    H133159   1.393   6.873   5.389
11094TIP3    H233160   1.420   6.951   5.515
11095TIP3   OH233161   1.898   6.629   5.272
11095TIP3    H133162   1.966   6.559   5.267
11095TIP3    H233163   1.858   6.622   5.184
11096TIP3   OH233164   1.963   6.844   5.433
11096TIP3    H133165   1.939   6.774   5.368
11096TIP3    H233166   1.885   6.904   5.427
11097TIP3   OH233167   1.181   8.070   3.531
11097TIP3    H133168   1.277   8.071   3.514
11097TIP3    H233169   1.151   8.122   3.454
11098TIP3   OH233170   0.661   7.456   3.746
11098TIP3    H133171   0.757   7.479   3.738
11098TIP3    H233172   0.661   7.366   3.708
11099TIP3   OH233173   0.585   8.063   4.157
11099TIP3    H133174   0.513   8.004   4.126
11099TIP3    H233175   0.625   8.009   4.229
11100TIP3   OH233176   0.717   7.924   4.348
11100TIP3    H133177   0.718   7.850   4.413
11100TIP3    H233178   0.761   7.989   4.405
11101TIP3   OH233179   2.439   8.320   4.149
11101TIP3    H133180   2.466   8.354   4.236
11101TIP3    H233181   2.499   8.367   4.089
11102TIP3   OH233182   2.470   8.341   4.431
11102TIP3    H133183   2.427   8.253   4.427
11102TIP3    H233184   2.545   8.319   4.489
11103TIP3   OH233185   2.516   8.016   5.004
11103TIP3    H133186   2.443   8.023   5.068
11103TIP3    H233187   2.557   8.105   5.009
11104TIP3   OH233188   2.333   7.530   3.625
11104TIP3    H133189   2.402   7.593   3.599
11104TIP3    H233190   2.374   7.490   3.705
11105TIP3   OH233191   2.459   7.397   3.828
11105TIP3    H133192   2.394   7.354   3.888
11105TIP3    H233193   2.524   7.436   3.890
11106TIP3   OH233194   2.512   7.787   4.261
11106TIP3    H133195   2.567   7.725   4.209
11106TIP3    H233196   2.503   7.863   4.200
11107TIP3   OH233197   2.347   8.089   4.456
11107TIP3    H133198   2.276   8.130   4.509
11107TIP3    H233199   2.295   8.040   4.388
11108TIP3   OH233200   2.398   7.304   3.476
11108TIP3    H133201   2.326   7.308   3.409
11108TIP3    H233202   2.373   7.380   3.532
11109TIP3   OH233203   2.270   6.977   3.431
11109TIP3    H133204   2.227   7.017   3.355
11109TIP3    H233205   2.244   6.883   3.420
11110TIP3   OH233206   2.275   7.252   3.975
11110TIP3    H133207   2.283   7.155   3.973
11110TIP3    H233208   2.261   7.268   4.071
11111TIP3   OH233209   0.908   7.301   4.730
11111TIP3    H133210   0.894   7.304   4.634
11111TIP3    H233211   1.004   7.316   4.737
11112TIP3   OH233212   2.563   7.677   4.831
11112TIP3    H133213   2.637   7.612   4.823
11112TIP3    H233214   2.592   7.748   4.771
11113TIP3   OH233215   2.751   7.486   4.851
11113TIP3    H133216   2.676   7.435   4.890
11113TIP3    H233217   2.823   7.421   4.864
11114TIP3   OH233218   2.214   6.711   3.416
11114TIP3    H133219   2.290   6.682   3.471
11114TIP3    H233220   2.141   6.653   3.445
11115TIP3   OH233221   2.269   6.967   3.872
11115TIP3    H133222   2.310   6.879   3.887
11115TIP3    H233223   2.329   7.001   3.803
11116TIP3   OH233224   2.433   7.144   4.365
11116TIP3    H133225   2.520   7.171   4.326
11116TIP3    H233226   2.445   7.181   4.455
11117TIP3   OH233227   2.499   7.286   4.598
11117TIP3    H133228   2.422   7.320   4.648
11117TIP3    H233229   2.531   7.368   4.554
11118TIP3   OH233230   1.118   7.015   5.396
11118TIP3    H133231   1.216   7.008   5.398
11118TIP3    H233232   1.094   6.931   5.440
11119TIP3   OH233233   2.954   6.877   5.155
11119TIP3    H133234   3.010   6.810   5.110
11119TIP3    H233235   2.926   6.934   5.080
11120TIP3   OH233236   2.380   6.718   3.908
11120TIP3    H133237   2.428   6.703   3.992
11120TIP3    H233238   2.319   6.641   3.907
11121TIP3   OH233239   1.080   6.703   4.722
11121TIP3    H133240   1.144   6.631   4.738
11121TIP3    H233241   1.139   6.781   4.723
11122TIP3   OH233242   0.887   6.979   4.803
11122TIP3    H133243   0.935   6.978   4.718
11122TIP3    H233244   0.903   7.070   4.831
11123TIP3   OH233245   2.826   7.020   4.962
11123TIP3    H133246   2.740   7.058   4.987
11123TIP3    H233247   2.796   6.949   4.902
11124TIP3   OH233248   2.462   6.657   3.538
11124TIP3    H133249   2.503   6.582   3.490
11124TIP3    H233250   2.530   6.726   3.532
11125TIP3   OH233251   0.865   6.478   4.297
11125TIP3    H133252   0.773   6.482   4.329
11125TIP3    H233253   0.863   6.540   4.222
11126TIP3   OH233254   2.024   8.185   3.807
11126TIP3    H133255   2.076   8.169   3.725
11126TIP3    H233256   2.078   8.253   3.852
11127TIP3   OH233257   1.085   6.560   5.115
11127TIP3    H133258   1.037   6.556   5.199
11127TIP3    H233259   1.017   6.602   5.058
11128TIP3   OH233260   1.133   7.992   5.198
11128TIP3    H133261   1.043   7.962   5.175
11128TIP3    H233262   1.138   7.968   5.292
11129TIP3   OH233263   1.305   8.018   4.743
11129TIP3    H133264   1.250   8.089   4.705
11129TIP3    H233265   1.389   8.037   4.696
11130TIP3   OH233266   1.751   8.267   4.879
11130TIP3    H133267   1.792   8.267   4.968
11130TIP3    H233268   1.818   8.317   4.827
11131TIP3   OH233269   1.929   8.418   4.735
11131TIP3    H133270   2.000   8.365   4.695
11131TIP3    H233271   1.981   8.474   4.797
11132TIP3   OH233272   2.723   6.782   4.837
11132TIP3    H133273   2.631   6.778   4.806
11132TIP3    H233274   2.751   6.688   4.824
11133TIP3   OH233275   0.988   8.290   4.761
11133TIP3    H133276   0.897   8.318   4.737
11133TIP3    H233277   0.984   8.301   4.856
11134TIP3   OH233278   1.220   8.259   4.620
11134TIP3    H133279   1.135   8.271   4.668
11134TIP3    H233280   1.196   8.291   4.531
11135TIP3   OH233281   1.645   8.290   4.417
11135TIP3    H133282   1.573   8.308   4.354
11135TIP3    H233283   1.655   8.377   4.460
11136TIP3   OH233284   1.911   8.228   4.469
11136TIP3    H133285   1.816   8.243   4.450
11136TIP3    H233286   1.952   8.305   4.428
11137TIP3   OH233287   2.121   8.421   4.387
11137TIP3    H133288   2.106   8.505   4.338
11137TIP3    H233289   2.145   8.360   4.314
11138TIP3   OH233290   0.897   8.079   4.509
11138TIP3    H133291   0.916   8.044   4.599
11138TIP3    H233292   0.964   8.027   4.459
11139TIP3   OH233293   1.086   7.941   4.360
11139TIP3    H133294   1.098   7.859   4.414
11139TIP3    H233295   1.177   7.978   4.362
11140TIP3   OH233296   1.353   8.040   4.366
11140TIP3    H133297   1.383   7.948   4.356
11140TIP3    H233298   1.392   8.062   4.452
11141TIP3   OH233299   1.927   6.696   4.453
11141TIP3    H133300   1.883   6.628   4.509
11141TIP3    H233301   1.999   6.645   4.411
11142TIP3   OH233302   2.453   6.574   4.361
11142TIP3    H133303   2.489   6.628   4.287
11142TIP3    H233304   2.358   6.593   4.356
11143TIP3   OH233305   2.547   6.678   4.125
11143TIP3    H133306   2.620   6.627   4.085
11143TIP3    H233307   2.579   6.769   4.111
11144TIP3   OH233308   1.177   6.405   4.473
11144TIP3    H133309   1.085   6.371   4.474
11144TIP3    H233310   1.227   6.320   4.470
11145TIP3   OH233311   0.957   6.273   4.118
11145TIP3    H133312   0.990   6.333   4.049
11145TIP3    H233313   0.930   6.337   4.187
11146TIP3   OH233314   1.618   6.438   4.352
11146TIP3    H133315   1.678   6.490   4.297
11146TIP3    H233316   1.636   6.474   4.440
11147TIP3   OH233317   2.171   6.582   4.338
11147TIP3    H133318   2.164   6.547   4.248
11147TIP3    H233319   2.155   6.502   4.392
11148TIP3   OH233320   2.196   6.504   3.898
11148TIP3    H133321   2.109   6.547   3.910
11148TIP3    H233322   2.182   6.420   3.947
11149TIP3   OH233323   0.683   7.841   3.900
11149TIP3    H133324   0.596   7.811   3.868
11149TIP3    H233325   0.671   7.937   3.896
11150TIP3   OH233326   1.078   6.436   3.883
11150TIP3    H133327   1.128   6.373   3.828
11150TIP3    H233328   1.150   6.490   3.921
11151TIP3   OH233329   1.594   6.607   3.982
11151TIP3    H133330   1.652   6.561   4.044
11151TIP3    H233331   1.613   6.700   4.008
11152TIP3   OH233332   1.451   8.035   3.482
11152TIP3    H133333   1.540   8.057   3.447
11152TIP3    H233334   1.429   7.960   3.423
11153TIP3   OH233335   2.170   8.151   3.574
11153TIP3    H133336   2.160   8.054   3.560
11153TIP3    H233337   2.126   8.185   3.494
11154TIP3   OH233338   1.385   6.685   5.362
11154TIP3    H133339   1.350   6.616   5.422
11154TIP3    H233340   1.479   6.686   5.390
11155TIP3   OH233341   1.632   6.682   5.483
11155TIP3    H133342   1.718   6.657   5.445
11155TIP3    H233343   1.620   6.612   5.550
11156TIP3   OH233344   0.755   7.870   3.542
11156TIP3    H133345   0.755   7.898   3.635
11156TIP3    H233346   0.844   7.831   3.531
11157TIP3   OH233347   2.456   6.741   5.271
11157TIP3    H133348   2.476   6.711   5.363
11157TIP3    H233349   2.545   6.737   5.230
11158TIP3   OH233350   2.399   8.297   4.762
11158TIP3    H133351   2.319   8.264   4.716
11158TIP3    H233352   2.378   8.392   4.766
11159TIP3   OH233353   3.664   7.668   3.529
11159TIP3    H133354   3.637   7.760   3.511
11159TIP3    H233355   3.585   7.620   3.499
11160TIP3   OH233356   3.664   7.666   3.907
11160TIP3    H133357   3.692   7.638   3.996
11160TIP3    H233358   3.618   7.586   3.874
11161TIP3   OH233359   2.963   7.564   4.273
11161TIP3    H133360   2.994   7.498   4.338
11161TIP3    H233361   3.038   7.625   4.272
11162TIP3   OH233362   3.906   7.967   3.591
11162TIP3    H133363   3.890   7.901   3.659
11162TIP3    H233364   3.931   8.045   3.644
11163TIP3   OH233365   2.932   7.972   4.002
11163TIP3    H133366   2.923   7.875   4.005
11163TIP3    H233367   3.028   7.981   3.998
11164TIP3   OH233368   2.640   7.179   3.788
11164TIP3    H133369   2.591   7.262   3.801
11164TIP3    H233370   2.569   7.122   3.753
11165TIP3   OH233371   2.699   7.464   3.954
11165TIP3    H133372   2.748   7.388   3.994
11165TIP3    H233373   2.760   7.491   3.884
11166TIP3   OH233374   3.551   8.430   3.604
11166TIP3    H133375   3.602   8.359   3.561
11166TIP3    H233376   3.546   8.399   3.695
11167TIP3   OH233377   3.461   7.893   3.957
11167TIP3    H133378   3.499   7.817   3.909
11167TIP3    H233379   3.545   7.937   3.982
11168TIP3   OH233380   4.473   7.215   3.955
11168TIP3    H133381   4.500   7.296   4.003
11168TIP3    H233382   4.490   7.241   3.863
11169TIP3   OH233383   3.875   7.397   3.992
11169TIP3    H133384   3.915   7.310   4.012
11169TIP3    H233385   3.843   7.382   3.902
11170TIP3   OH233386   3.210   7.055   3.957
11170TIP3    H133387   3.188   7.127   3.895
11170TIP3    H233388   3.161   6.981   3.914
11171TIP3   OH233389   3.903   7.144   3.582
11171TIP3    H133390   3.976   7.128   3.646
11171TIP3    H233391   3.953   7.182   3.507
11172TIP3   OH233392   2.844   7.258   4.063
11172TIP3    H133393   2.927   7.237   4.111
11172TIP3    H233394   2.856   7.201   3.984
11173TIP3   OH233395   3.286   7.455   3.852
11173TIP3    H133396   3.379   7.428   3.869
11173TIP3    H233397   3.246   7.371   3.823
11174TIP3   OH233398   4.545   7.421   4.125
11174TIP3    H133399   4.462   7.469   4.107
11174TIP3    H233400   4.558   7.442   4.219
11175TIP3   OH233401   3.208   7.038   4.391
11175TIP3    H133402   3.147   7.075   4.324
11175TIP3    H233403   3.157   7.055   4.473
11176TIP3   OH233404   3.561   7.892   3.397
11176TIP3    H133405   3.511   7.866   3.319
11176TIP3    H233406   3.516   7.976   3.421
11177TIP3   OH233407   3.314   7.813   4.189
11177TIP3    H133408   3.249   7.876   4.227
11177TIP3    H233409   3.355   7.866   4.119
11178TIP3   OH233410   4.119   7.145   3.748
11178TIP3    H133411   4.105   7.097   3.831
11178TIP3    H233412   4.169   7.223   3.779
11179TIP3   OH233413   3.077   7.153   4.176
11179TIP3    H133414   3.139   7.226   4.199
11179TIP3    H233415   3.127   7.112   4.101
11180TIP3   OH233416   3.140   8.005   4.283
11180TIP3    H133417   3.115   8.091   4.244
11180TIP3    H233418   3.062   7.990   4.341
11181TIP3   OH233419   2.539   7.696   3.521
11181TIP3    H133420   2.496   7.724   3.438
11181TIP3    H233421   2.568   7.782   3.558
11182TIP3   OH233422   3.977   8.210   3.759
11182TIP3    H133423   3.888   8.203   3.799
11182TIP3    H233424   3.970   8.297   3.715
11183TIP3   OH233425   4.266   7.115   4.123
11183TIP3    H133426   4.178   7.145   4.095
11183TIP3    H233427   4.323   7.146   4.049
11184TIP3   OH233428   3.566   6.759   4.104
11184TIP3    H133429   3.554   6.664   4.121
11184TIP3    H233430   3.488   6.796   4.150
11185TIP3   OH233431   3.684   8.258   3.437
11185TIP3    H133432   3.734   8.177   3.412
11185TIP3    H233433   3.741   8.326   3.394
11186TIP3   OH233434   3.824   8.042   3.337
11186TIP3    H133435   3.772   7.966   3.306
11186TIP3    H233436   3.858   8.008   3.423
11187TIP3   OH233437   4.204   8.127   4.104
11187TIP3    H133438   4.192   8.049   4.045
11187TIP3    H233439   4.185   8.201   4.043
11188TIP3   OH233440   3.493   7.518   3.359
11188TIP3    H133441   3.412   7.569   3.338
11188TIP3    H233442   3.538   7.518   3.273
11189TIP3   OH233443   3.452   7.303   3.079
11189TIP3    H133444   3.521   7.353   3.128
11189TIP3    H233445   3.509   7.239   3.031
11190TIP3   OH233446   4.398   7.761   3.946
11190TIP3    H133447   4.315   7.814   3.954
11190TIP3    H233448   4.426   7.786   3.855
11191TIP3   OH233449   3.841   7.601   3.333
11191TIP3    H133450   3.785   7.627   3.410
11191TIP3    H233451   3.924   7.575   3.379
11192TIP3   OH233452   4.077   7.643   4.241
11192TIP3    H133453   4.074   7.727   4.291
11192TIP3    H233454   3.990   7.647   4.197
11193TIP3   OH233455   3.074   7.601   3.748
11193TIP3    H133456   3.032   7.543   3.680
11193TIP3    H233457   3.151   7.547   3.776
11194TIP3   OH233458   3.203   8.011   3.898
11194TIP3    H133459   3.182   7.965   3.815
11194TIP3    H233460   3.294   7.979   3.916
11195TIP3   OH233461   3.214   7.570   4.102
11195TIP3    H133462   3.245   7.554   4.011
11195TIP3    H233463   3.254   7.657   4.124
11196TIP3   OH233464   3.737   8.208   3.880
11196TIP3    H133465   3.720   8.289   3.932
11196TIP3    H233466   3.721   8.136   3.944
11197TIP3   OH233467   3.346   8.127   4.427
11197TIP3    H133468   3.288   8.191   4.473
11197TIP3    H233469   3.279   8.075   4.378
11198TIP3   OH233470   3.685   7.458   3.158
11198TIP3    H133471   3.742   7.519   3.211
11198TIP3    H233472   3.710   7.484   3.066
11199TIP3   OH233473   3.100   7.686   4.524
11199TIP3    H133474   3.105   7.772   4.571
11199TIP3    H233475   3.005   7.666   4.535
11200TIP3   OH233476   3.424   8.140   3.432
11200TIP3    H133477   3.499   8.197   3.457
11200TIP3    H233478   3.361   8.204   3.396
11201TIP3   OH233479   3.142   8.298   4.513
11201TIP3    H133480   3.107   8.295   4.422
11201TIP3    H233481   3.063   8.276   4.567
11202TIP3   OH233482   4.197   6.701   3.206
11202TIP3    H133483   4.115   6.717   3.258
11202TIP3    H233484   4.211   6.787   3.164
11203TIP3   OH233485   2.941   7.442   3.552
11203TIP3    H133486   2.875   7.488   3.496
11203TIP3    H233487   2.896   7.358   3.569
11204TIP3   OH233488   3.995   8.070   2.752
11204TIP3    H133489   4.001   8.168   2.740
11204TIP3    H233490   4.089   8.045   2.746
11205TIP3   OH233491   2.721   7.826   4.460
11205TIP3    H133492   2.656   7.803   4.392
11205TIP3    H233493   2.757   7.739   4.486
11206TIP3   OH233494   2.575   8.019   4.094
11206TIP3    H133495   2.671   8.015   4.085
11206TIP3    H233496   2.564   8.099   4.148
11207TIP3   OH233497   4.441   8.469   4.149
11207TIP3    H133498   4.438   8.373   4.162
11207TIP3    H233499   4.357   8.496   4.193
11208TIP3   OH233500   3.547   8.257   4.284
11208TIP3    H133501   3.547   8.350   4.316
11208TIP3    H233502   3.475   8.218   4.338
11209TIP3   OH233503   3.305   8.387   3.235
11209TIP3    H133504   3.258   8.369   3.151
11209TIP3    H233505   3.273   8.476   3.259
11210TIP3   OH233506   2.743   8.236   3.617
11210TIP3    H133507   2.792   8.226   3.702
11210TIP3    H233508   2.680   8.163   3.626
11211TIP3   OH233509   3.508   8.287   2.877
11211TIP3    H133510   3.567   8.217   2.841
11211TIP3    H233511   3.541   8.297   2.968
11212TIP3   OH233512   3.557   8.333   3.146
11212TIP3    H133513   3.468   8.345   3.189
11212TIP3    H233514   3.608   8.296   3.220
11213TIP3   OH233515   4.331   7.604   4.422
11213TIP3    H133516   4.249   7.618   4.372
11213TIP3    H233517   4.344   7.507   4.412
11214TIP3   OH233518   2.927   8.009   4.451
11214TIP3    H133519   2.976   7.993   4.534
11214TIP3    H233520   2.852   7.946   4.459
11215TIP3   OH233521   3.326   6.834   4.231
11215TIP3    H133522   3.236   6.803   4.207
11215TIP3    H233523   3.301   6.917   4.277
11216TIP3   OH233524   3.858   6.949   4.427
11216TIP3    H133525   3.925   6.922   4.492
11216TIP3    H233526   3.773   6.929   4.472
11217TIP3   OH233527   4.102   7.379   4.347
11217TIP3    H133528   4.052   7.374   4.432
11217TIP3    H233529   4.073   7.465   4.311
11218TIP3   OH233530   3.758   7.507   2.902
11218TIP3    H133531   3.726   7.481   2.814
11218TIP3    H233532   3.835   7.562   2.877
11219TIP3   OH233533   3.473   6.883   3.203
11219TIP3    H133534   3.440   6.882   3.295
11219TIP3    H233535   3.433   6.799   3.171
11220TIP3   OH233536   3.257   7.348   4.252
11220TIP3    H133537   3.207   7.369   4.333
11220TIP3    H233538   3.241   7.429   4.198
11221TIP3   OH233539   3.141   7.234   3.765
11221TIP3    H133540   3.048   7.208   3.783
11221TIP3    H233541   3.154   7.194   3.677
11222TIP3   OH233542   3.632   7.321   3.492
11222TIP3    H133543   3.577   7.393   3.452
11222TIP3    H233544   3.684   7.293   3.415
11223TIP3   OH233545   3.806   7.601   4.580
11223TIP3    H133546   3.783   7.528   4.642
11223TIP3    H233547   3.899   7.615   4.603
11224TIP3   OH233548   3.790   7.351   3.733
11224TIP3    H133549   3.730   7.382   3.662
11224TIP3    H233550   3.820   7.267   3.691
11225TIP3   OH233551   3.077   7.378   4.461
11225TIP3    H133552   3.099   7.442   4.530
11225TIP3    H233553   3.063   7.296   4.512
11226TIP3   OH233554   3.126   6.855   3.170
11226TIP3    H133555   3.120   6.851   3.268
11226TIP3    H233556   3.046   6.906   3.148
11227TIP3   OH233557   2.669   6.903   4.039
11227TIP3    H133558   2.744   6.932   4.094
11227TIP3    H233559   2.711   6.866   3.960
11228TIP3   OH233560   2.646   6.882   3.559
11228TIP3    H133561   2.691   6.922   3.482
11228TIP3    H233562   2.585   6.954   3.582
11229TIP3   OH233563   3.801   7.598   4.156
11229TIP3    H133564   3.833   7.525   4.099
11229TIP3    H233565   3.772   7.546   4.234
11230TIP3   OH233566   3.466   7.058   3.828
11230TIP3    H133567   3.382   7.055   3.879
11230TIP3    H233568   3.532   7.059   3.899
11231TIP3   OH233569   2.903   7.112   3.835
11231TIP3    H133570   2.808   7.120   3.810
11231TIP3    H233571   2.925   7.020   3.813
11232TIP3   OH233572   3.175   7.109   3.523
11232TIP3    H133573   3.268   7.126   3.501
11232TIP3    H233574   3.127   7.133   3.440
11233TIP3   OH233575   3.959   7.132   4.026
11233TIP3    H133576   3.927   7.144   4.118
11233TIP3    H233577   3.893   7.070   3.991
11234TIP3   OH233578   3.011   7.141   3.303
11234TIP3    H133579   2.937   7.099   3.256
11234TIP3    H233580   3.062   7.177   3.228
11235TIP3   OH233581   4.128   8.820   4.246
11235TIP3    H133582   4.126   8.844   4.152
11235TIP3    H233583   4.205   8.872   4.278
11236TIP3   OH233584   3.088   7.931   4.670
11236TIP3    H133585   3.167   7.962   4.718
11236TIP3    H233586   3.022   7.930   4.743
11237TIP3   OH233587   3.552   7.385   3.925
11237TIP3    H133588   3.623   7.342   3.876
11237TIP3    H233589   3.561   7.344   4.014
11238TIP3   OH233590   3.076   6.873   3.801
11238TIP3    H133591   3.043   6.793   3.847
11238TIP3    H233592   3.130   6.835   3.730
11239TIP3   OH233593   3.528   7.280   4.214
11239TIP3    H133594   3.439   7.316   4.228
11239TIP3    H233595   3.585   7.340   4.266
11240TIP3   OH233596   3.266   7.672   3.310
11240TIP3    H133597   3.193   7.608   3.299
11240TIP3    H233598   3.248   7.706   3.401
11241TIP3   OH233599   4.167   7.908   3.941
11241TIP3    H133600   4.190   7.957   3.859
11241TIP3    H233601   4.080   7.868   3.917
11242TIP3   OH233602   3.723   6.987   3.166
11242TIP3    H133603   3.626   6.970   3.177
11242TIP3    H233604   3.732   7.081   3.193
11243TIP3   OH233605   3.666   7.991   4.306
11243TIP3    H133606   3.682   7.967   4.398
11243TIP3    H233607   3.626   8.079   4.314
11244TIP3   OH233608   3.793   7.231   3.273
11244TIP3    H133609   3.889   7.239   3.289
11244TIP3    H233610   3.774   7.311   3.221
11245TIP3   OH233611   2.956   7.693   3.987
11245TIP3    H133612   2.995   7.665   3.902
11245TIP3    H233613   2.994   7.629   4.049
11246TIP3   OH233614   3.410   7.822   3.129
11246TIP3    H133615   3.363   7.909   3.136
11246TIP3    H233616   3.355   7.767   3.189
11247TIP3   OH233617   2.837   7.614   4.598
11247TIP3    H133618   2.858   7.602   4.693
11247TIP3    H233619   2.767   7.548   4.584
11248TIP3   OH233620   3.561   7.728   4.619
11248TIP3    H133621   3.502   7.669   4.569
11248TIP3    H233622   3.649   7.695   4.590
11249TIP3   OH233623   3.826   8.248   4.202
11249TIP3    H133624   3.730   8.248   4.213
11249TIP3    H233625   3.854   8.301   4.280
11250TIP3   OH233626   4.246   7.312   3.107
11250TIP3    H133627   4.184   7.267   3.046
11250TIP3    H233628   4.244   7.400   3.064
11251TIP3   OH233629   4.453   8.177   4.193
11251TIP3    H133630   4.355   8.173   4.185
11251TIP3    H233631   4.479   8.149   4.102
11252TIP3   OH233632   3.935   8.137   3.018
11252TIP3    H133633   3.903   8.069   3.079
11252TIP3    H233634   3.946   8.090   2.934
11253TIP3   OH233635   3.931   7.770   3.860
11253TIP3    H133636   3.838   7.744   3.873
11253TIP3    H233637   3.965   7.691   3.814
11254TIP3   OH233638   3.056   7.995   3.607
11254TIP3    H133639   3.059   8.079   3.556
11254TIP3    H233640   2.961   7.984   3.620
11255TIP3   OH233641   2.619   7.303   3.311
11255TIP3    H133642   2.667   7.386   3.331
11255TIP3    H233643   2.543   7.309   3.372
11256TIP3   OH233644   3.200   7.765   3.556
11256TIP3    H133645   3.163   7.854   3.572
11256TIP3    H233646   3.162   7.715   3.630
11257TIP3   OH233647   3.326   8.342   4.080
11257TIP3    H133648   3.365   8.415   4.029
11257TIP3    H233649   3.403   8.310   4.130
11258TIP3   OH233650   2.979   8.235   3.463
11258TIP3    H133651   2.892   8.244   3.508
11258TIP3    H233652   3.011   8.329   3.466
11259TIP3   OH233653   3.717   7.975   4.038
11259TIP3    H133654   3.708   7.975   4.136
11259TIP3    H233655   3.798   7.924   4.026
11260TIP3   OH233656   3.686   7.866   2.919
11260TIP3    H133657   3.738   7.841   2.999
11260TIP3    H233658   3.597   7.843   2.949
11261TIP3   OH233659   3.965   8.511   4.088
11261TIP3    H133660   3.886   8.455   4.080
11261TIP3    H233661   3.950   8.576   4.016
11262TIP3   OH233662   4.032   8.346   2.743
11262TIP3    H133663   4.073   8.419   2.693
11262TIP3    H233664   3.951   8.394   2.773
11263TIP3   OH233665   3.051   7.120   4.608
11263TIP3    H133666   2.955   7.127   4.624
11263TIP3    H233667   3.078   7.060   4.679
11264TIP3   OH233668   3.845   7.798   3.135
11264TIP3    H133669   3.835   7.736   3.209
11264TIP3    H233670   3.942   7.798   3.124
11265TIP3   OH233671   2.766   8.206   4.240
11265TIP3    H133672   2.817   8.129   4.271
11265TIP3    H233673   2.794   8.273   4.302
11266TIP3   OH233674   3.058   7.849   2.919
11266TIP3    H133675   3.071   7.757   2.890
11266TIP3    H233676   3.039   7.837   3.014
11267TIP3   OH233677   3.004   7.853   3.191
11267TIP3    H133678   3.071   7.828   3.256
11267TIP3    H233679   3.006   7.952   3.198
11268TIP3   OH233680   2.738   7.548   3.395
11268TIP3    H133681   2.673   7.593   3.453
11268TIP3    H233682   2.753   7.619   3.329
11269TIP3   OH233683   3.887   7.183   4.284
11269TIP3    H133684   3.963   7.222   4.329
11269TIP3    H233685   3.869   7.103   4.339
11270TIP3   OH233686   3.766   6.938   3.449
11270TIP3    H133687   3.750   6.963   3.356
11270TIP3    H233688   3.803   7.020   3.487
11271TIP3   OH233689   3.267   8.052   3.141
11271TIP3    H133690   3.181   8.080   3.177
11271TIP3    H233691   3.284   8.125   3.079
11272TIP3   OH233692   3.458   7.114   3.554
11272TIP3    H133693   3.522   7.186   3.537
11272TIP3    H233694   3.461   7.108   3.652
11273TIP3   OH233695   3.725   7.436   4.363
11273TIP3    H133696   3.741   7.491   4.442
11273TIP3    H233697   3.780   7.358   4.382
11274TIP3   OH233698   3.602   6.846   3.659
11274TIP3    H133699   3.594   6.923   3.719
11274TIP3    H233700   3.661   6.883   3.590
11275TIP3   OH233701   3.008   8.126   3.208
11275TIP3    H133702   2.979   8.196   3.144
11275TIP3    H233703   2.993   8.171   3.294
11276TIP3   OH233704   3.111   6.839   3.446
11276TIP3    H133705   3.108   6.930   3.483
11276TIP3    H233706   3.207   6.821   3.455
11277TIP3   OH233707   4.367   7.334   4.341
11277TIP3    H133708   4.270   7.334   4.351
11277TIP3    H233709   4.374   7.292   4.254
11278TIP3   OH233710   4.017   7.529   3.729
11278TIP3    H133711   3.940   7.471   3.744
11278TIP3    H233712   4.088   7.482   3.779
11279TIP3   OH233713   2.726   7.760   3.202
11279TIP3    H133714   2.787   7.836   3.211
11279TIP3    H233715   2.775   7.709   3.135
11280TIP3   OH233716   2.675   7.034   3.332
11280TIP3    H133717   2.672   7.132   3.328
11280TIP3    H233718   2.588   7.010   3.298
11281TIP3   OH233719   3.985   8.482   3.681
11281TIP3    H133720   3.942   8.529   3.606
11281TIP3    H233721   4.079   8.502   3.661
11282TIP3   OH233722   3.062   6.753   4.209
11282TIP3    H133723   3.029   6.720   4.123
11282TIP3    H233724   3.051   6.675   4.267
11283TIP3   OH233725   2.601   7.969   3.592
11283TIP3    H133726   2.527   8.003   3.644
11283TIP3    H233727   2.583   8.010   3.505
11284TIP3   OH233728   2.754   8.510   4.660
11284TIP3    H133729   2.840   8.509   4.708
11284TIP3    H233730   2.733   8.416   4.659
11285TIP3   OH233731   3.240   8.480   4.704
11285TIP3    H133732   3.334   8.460   4.712
11285TIP3    H233733   3.215   8.423   4.629
11286TIP3   OH233734   3.220   8.055   2.834
11286TIP3    H133735   3.163   7.984   2.872
11286TIP3    H233736   3.294   8.001   2.801
11287TIP3   OH233737   3.879   8.383   4.436
11287TIP3    H133738   3.869   8.314   4.505
11287TIP3    H233739   3.955   8.435   4.469
11288TIP3   OH233740   3.657   8.098   2.744
11288TIP3    H133741   3.702   8.034   2.800
11288TIP3    H233742   3.710   8.097   2.662
11289TIP3   OH233743   2.887   7.919   4.860
11289TIP3    H133744   2.904   7.823   4.865
11289TIP3    H233745   2.799   7.921   4.818
11290TIP3   OH233746   2.863   7.572   3.051
11290TIP3    H133747   2.917   7.538   3.125
11290TIP3    H233748   2.931   7.576   2.981
11291TIP3   OH233749   3.497   8.003   4.633
11291TIP3    H133750   3.452   8.017   4.547
11291TIP3    H233751   3.526   7.910   4.627
11292TIP3   OH233752   3.372   7.768   2.859
11292TIP3    H133753   3.373   7.782   2.956
11292TIP3    H233754   3.369   7.670   2.856
11293TIP3   OH233755   3.988   8.008   4.239
11293TIP3    H133756   4.060   8.058   4.195
11293TIP3    H233757   3.915   8.072   4.229
11294TIP3   OH233758   3.006   7.652   4.841
11294TIP3    H133759   3.078   7.590   4.826
11294TIP3    H233760   3.028   7.685   4.930
11295TIP3   OH233761   3.074   7.473   3.277
11295TIP3    H133762   3.045   7.432   3.361
11295TIP3    H233763   3.107   7.396   3.227
11296TIP3   OH233764   3.341   7.538   4.505
11296TIP3    H133765   3.263   7.598   4.509
11296TIP3    H233766   3.387   7.571   4.424
11297TIP3   OH233767   3.171   7.264   3.117
11297TIP3    H133768   3.144   7.267   3.023
11297TIP3    H233769   3.268   7.274   3.109
11298TIP3   OH233770   3.856   7.940   4.639
11298TIP3    H133771   3.938   7.919   4.592
11298TIP3    H233772   3.855   7.872   4.709
11299TIP3   OH233773   3.999   7.598   2.776
11299TIP3    H133774   3.975   7.552   2.694
11299TIP3    H233775   3.967   7.689   2.753
11300TIP3   OH233776   3.465   7.325   4.631
11300TIP3    H133777   3.463   7.245   4.576
11300TIP3    H233778   3.420   7.391   4.573
11301TIP3   OH233779   3.466   7.111   4.436
11301TIP3    H133780   3.492   7.152   4.351
11301TIP3    H233781   3.372   7.088   4.419
11302TIP3   OH233782   3.497   7.649   4.309
11302TIP3    H133783   3.578   7.657   4.257
11302TIP3    H233784   3.439   7.716   4.267
11303TIP3   OH233785   4.077   7.616   4.693
11303TIP3    H133786   4.126   7.533   4.704
11303TIP3    H233787   4.146   7.675   4.660
11304TIP3   OH233788   4.118   7.867   4.428
11304TIP3    H133789   4.059   7.920   4.369
11304TIP3    H233790   4.205   7.887   4.387
11305TIP3   OH233791   3.341   7.441   4.858
11305TIP3    H133792   3.272   7.374   4.874
11305TIP3    H233793   3.376   7.413   4.772
11306TIP3   OH233794   3.599   6.876   4.502
11306TIP3    H133795   3.550   6.959   4.480
11306TIP3    H233796   3.528   6.809   4.491
11307TIP3   OH233797   3.725   7.383   4.720
11307TIP3    H133798   3.714   7.371   4.816
11307TIP3    H233799   3.635   7.357   4.691
11308TIP3   OH233800   3.964   7.328   4.574
11308TIP3    H133801   3.888   7.331   4.635
11308TIP3    H233802   4.036   7.297   4.633
11309TIP3   OH233803   4.197   7.270   4.727
11309TIP3    H133804   4.206   7.175   4.747
11309TIP3    H233805   4.189   7.310   4.816
11310TIP3   OH233806   3.182   7.220   4.911
11310TIP3    H133807   3.189   7.129   4.876
11310TIP3    H233808   3.216   7.208   5.002
11311TIP3   OH233809   3.695   6.887   4.759
11311TIP3    H133810   3.762   6.816   4.754
11311TIP3    H233811   3.654   6.879   4.670
11312TIP3   OH233812   3.759   7.102   4.919
11312TIP3    H133813   3.736   7.031   4.855
11312TIP3    H233814   3.681   7.161   4.913
11313TIP3   OH233815   2.978   8.326   3.019
11313TIP3    H133816   3.073   8.328   3.000
11313TIP3    H233817   2.946   8.377   2.943
11314TIP3   OH233818   2.459   7.711   3.237
11314TIP3    H133819   2.554   7.734   3.225
11314TIP3    H233820   2.455   7.622   3.196
11315TIP3   OH233821   2.373   8.323   3.649
11315TIP3    H133822   2.304   8.261   3.615
11315TIP3    H233823   2.417   8.267   3.717
11316TIP3   OH233824   2.511   8.177   3.836
11316TIP3    H133825   2.498   8.103   3.897
11316TIP3    H233826   2.560   8.239   3.893
11317TIP3   OH233827   4.237   8.572   3.636
11317TIP3    H133828   4.261   8.612   3.722
11317TIP3    H233829   4.290   8.624   3.574
11318TIP3   OH233830   4.266   8.597   3.918
11318TIP3    H133831   4.224   8.508   3.913
11318TIP3    H233832   4.341   8.577   3.975
11319TIP3   OH233833   4.314   8.272   4.491
11319TIP3    H133834   4.239   8.280   4.554
11319TIP3    H233835   4.353   8.362   4.496
11320TIP3   OH233836   4.126   7.782   3.113
11320TIP3    H133837   4.171   7.868   3.109
11320TIP3    H233838   4.169   7.740   3.191
11321TIP3   OH233839   4.257   7.654   3.315
11321TIP3    H133840   4.191   7.610   3.374
11321TIP3    H233841   4.321   7.692   3.379
11322TIP3   OH233842   4.309   8.043   3.749
11322TIP3    H133843   4.363   7.983   3.695
11322TIP3    H233844   4.299   8.121   3.690
11323TIP3   OH233845   4.143   8.344   3.944
11323TIP3    H133846   4.073   8.389   3.995
11323TIP3    H233847   4.091   8.297   3.875
11324TIP3   OH233848   4.198   7.560   2.960
11324TIP3    H133849   4.127   7.562   2.892
11324TIP3    H233850   4.167   7.635   3.016
11325TIP3   OH233851   4.069   7.229   2.918
11325TIP3    H133852   4.027   7.277   2.846
11325TIP3    H233853   4.036   7.138   2.904
11326TIP3   OH233854   4.074   7.508   3.462
11326TIP3    H133855   4.078   7.411   3.460
11326TIP3    H233856   4.059   7.525   3.558
11327TIP3   OH233857   2.698   7.583   4.208
11327TIP3    H133858   2.697   7.554   4.114
11327TIP3    H233859   2.795   7.584   4.225
11328TIP3   OH233860   4.359   7.933   4.318
11328TIP3    H133861   4.433   7.869   4.310
11328TIP3    H233862   4.387   8.005   4.258
11329TIP3   OH233863   4.547   7.742   4.338
11329TIP3    H133864   4.472   7.692   4.377
11329TIP3    H233865   4.619   7.677   4.351
11330TIP3   OH233866   4.011   6.962   2.908
11330TIP3    H133867   4.072   6.928   2.975
11330TIP3    H233868   3.929   6.911   2.925
11331TIP3   OH233869   4.067   7.223   3.360
11331TIP3    H133870   4.107   7.135   3.375
11331TIP3    H233871   4.125   7.257   3.290
11332TIP3   OH233872   4.230   7.400   3.852
11332TIP3    H133873   4.316   7.428   3.814
11332TIP3    H233874   4.240   7.437   3.942
11333TIP3   OH233875   4.295   7.543   4.085
11333TIP3    H133876   4.218   7.576   4.134
11333TIP3    H233877   4.327   7.625   4.041
11334TIP3   OH233878   2.914   7.271   4.882
11334TIP3    H133879   3.012   7.264   4.885
11334TIP3    H233880   2.889   7.187   4.926
11335TIP3   OH233881   4.751   7.134   4.642
11335TIP3    H133882   4.807   7.067   4.598
11335TIP3    H233883   4.722   7.190   4.567
11336TIP3   OH233884   4.181   6.972   3.393
11336TIP3    H133885   4.222   6.958   3.481
11336TIP3    H233886   4.116   6.898   3.392
11337TIP3   OH233887   2.876   6.961   4.212
11337TIP3    H133888   2.939   6.887   4.225
11337TIP3    H233889   2.937   7.037   4.209
11338TIP3   OH233890   2.680   7.236   4.288
11338TIP3    H133891   2.729   7.230   4.204
11338TIP3    H233892   2.708   7.323   4.320
11339TIP3   OH233893   4.622   7.276   4.449
11339TIP3    H133894   4.535   7.314   4.471
11339TIP3    H233895   4.594   7.204   4.389
11340TIP3   OH233896   4.267   6.910   3.030
11340TIP3    H133897   4.293   6.830   2.979
11340TIP3    H233898   4.285   6.981   2.967
11341TIP3   OH233899   2.661   6.740   3.789
11341TIP3    H133900   2.568   6.738   3.815
11341TIP3    H233901   2.660   6.798   3.710
11342TIP3   OH233902   3.820   8.441   3.295
11342TIP3    H133903   3.871   8.426   3.212
11342TIP3    H233904   3.873   8.510   3.338
11343TIP3   OH233905   2.881   6.819   4.603
11343TIP3    H133906   2.832   6.813   4.686
11343TIP3    H233907   2.814   6.858   4.544
11344TIP3   OH233908   2.922   8.244   4.682
11344TIP3    H133909   2.831   8.217   4.664
11344TIP3    H233910   2.930   8.227   4.776
11345TIP3   OH233911   3.099   8.275   4.228
11345TIP3    H133912   3.050   8.351   4.190
11345TIP3    H233913   3.185   8.291   4.183
11346TIP3   OH233914   3.547   8.523   4.366
11346TIP3    H133915   3.588   8.525   4.455
11346TIP3    H233916   3.613   8.574   4.313
11347TIP3   OH233917   3.725   8.673   4.223
11347TIP3    H133918   3.798   8.623   4.182
11347TIP3    H233919   3.776   8.731   4.284
11348TIP3   OH233920   4.519   7.038   4.324
11348TIP3    H133921   4.427   7.033   4.293
11348TIP3    H233922   4.548   6.944   4.311
11349TIP3   OH233923   2.778   8.535   4.250
11349TIP3    H133924   2.689   8.570   4.226
11349TIP3    H233925   2.784   8.567   4.341
11350TIP3   OH233926   3.013   8.513   4.107
11350TIP3    H133927   2.928   8.527   4.153
11350TIP3    H233928   2.993   8.548   4.018
11351TIP3   OH233929   3.440   8.545   3.905
11351TIP3    H133930   3.370   8.565   3.840
11351TIP3    H233931   3.452   8.632   3.948
11352TIP3   OH233932   3.707   8.483   3.955
11352TIP3    H133933   3.613   8.500   3.937
11352TIP3    H233934   3.749   8.561   3.916
11353TIP3   OH233935   3.917   8.676   3.874
11353TIP3    H133936   3.902   8.761   3.827
11353TIP3    H233937   3.940   8.617   3.800
11354TIP3   OH233938   2.688   8.329   3.996
11354TIP3    H133939   2.714   8.305   4.087
11354TIP3    H233940   2.760   8.286   3.946
11355TIP3   OH233941   2.881   8.200   3.851
11355TIP3    H133942   2.897   8.117   3.900
11355TIP3    H233943   2.971   8.239   3.847
11356TIP3   OH233944   3.146   8.296   3.853
11356TIP3    H133945   3.178   8.205   3.842
11356TIP3    H233946   3.187   8.319   3.939
11357TIP3   OH233947   3.724   6.953   3.942
11357TIP3    H133948   3.679   6.885   3.996
11357TIP3    H233949   3.793   6.901   3.898
11358TIP3   OH233950   4.249   6.831   3.848
11358TIP3    H133951   4.284   6.886   3.774
11358TIP3    H233952   4.153   6.848   3.843
11359TIP3   OH233953   4.343   6.937   3.613
11359TIP3    H133954   4.417   6.885   3.575
11359TIP3    H233955   4.376   7.029   3.599
11360TIP3   OH233956   2.973   6.661   3.960
11360TIP3    H133957   2.881   6.628   3.961
11360TIP3    H233958   3.023   6.577   3.957
11361TIP3   OH233959   2.756   6.530   3.606
11361TIP3    H133960   2.787   6.589   3.535
11361TIP3    H233961   2.728   6.594   3.674
11362TIP3   OH233962   3.414   6.695   3.839
11362TIP3    H133963   3.475   6.746   3.784
11362TIP3    H233964   3.432   6.730   3.927
11363TIP3   OH233965   3.968   6.839   3.824
11363TIP3    H133966   3.959   6.802   3.735
11363TIP3    H233967   3.952   6.759   3.879
11364TIP3   OH233968   3.993   6.762   3.386
11364TIP3    H133969   3.905   6.804   3.396
11364TIP3    H233970   3.979   6.678   3.434
11365TIP3   OH233971   2.476   8.099   3.389
11365TIP3    H133972   2.391   8.067   3.353
11365TIP3    H233973   2.465   8.194   3.376
11366TIP3   OH233974   2.874   6.692   3.370
11366TIP3    H133975   2.924   6.629   3.315
11366TIP3    H233976   2.947   6.746   3.408
11367TIP3   OH233977   3.389   6.864   3.469
11367TIP3    H133978   3.447   6.817   3.531
11367TIP3    H233979   3.410   6.957   3.495
11368TIP3   OH233980   3.247   8.292   2.969
11368TIP3    H133981   3.337   8.314   2.934
11368TIP3    H233982   3.225   8.217   2.911
11369TIP3   OH233983   3.959   8.404   3.061
11369TIP3    H133984   3.955   8.307   3.045
11369TIP3    H233985   3.921   8.439   2.978
11370TIP3   OH233986   3.181   6.943   4.850
11370TIP3    H133987   3.147   6.873   4.908
11370TIP3    H233988   3.275   6.943   4.877
11371TIP3   OH233989   3.429   6.939   4.970
11371TIP3    H133990   3.514   6.912   4.932
11371TIP3    H233991   3.415   6.869   5.038
11372TIP3   OH233992   2.550   8.125   3.028
11372TIP3    H133993   2.550   8.159   3.118
11372TIP3    H233994   2.641   8.087   3.019
11373TIP3   OH233995   4.252   6.999   4.758
11373TIP3    H133996   4.272   6.968   4.849
11373TIP3    H233997   4.341   6.994   4.716
11374TIP3   OH233998   4.195   8.553   4.249
11374TIP3    H133999   4.116   8.520   4.203
11374TIP3    H234000   4.175   8.649   4.252
11375TIP3   OH234001   5.457   7.922   3.020
11375TIP3    H134002   5.432   8.014   3.000
11375TIP3    H234003   5.381   7.875   2.982
11376TIP3   OH234004   5.453   7.925   3.397
11376TIP3    H134005   5.487   7.894   3.483
11376TIP3    H234006   5.417   7.844   3.359
11377TIP3   OH234007   4.761   7.821   3.759
11377TIP3    H134008   4.789   7.754   3.825
11377TIP3    H234009   4.835   7.883   3.763
11378TIP3   OH234010   5.699   8.224   3.078
11378TIP3    H134011   5.690   8.156   3.145
11378TIP3    H234012   5.728   8.301   3.130
11379TIP3   OH234013   4.729   8.227   3.484
11379TIP3    H134014   4.718   8.130   3.492
11379TIP3    H234015   4.825   8.236   3.489
11380TIP3   OH234016   4.437   7.434   3.273
11380TIP3    H134017   4.387   7.516   3.289
11380TIP3    H234018   4.367   7.378   3.235
11381TIP3   OH234019   4.497   7.721   3.440
11381TIP3    H134020   4.543   7.645   3.483
11381TIP3    H234021   4.564   7.751   3.377
11382TIP3   OH234022   5.347   8.688   3.092
11382TIP3    H134023   5.396   8.616   3.046
11382TIP3    H234024   5.344   8.656   3.183
11383TIP3   OH234025   5.258   8.149   3.444
11383TIP3    H134026   5.298   8.072   3.400
11383TIP3    H234027   5.341   8.195   3.468
11384TIP3   OH234028   6.267   7.471   3.442
11384TIP3    H134029   6.297   7.553   3.486
11384TIP3    H234030   6.292   7.489   3.349
11385TIP3   OH234031   5.666   7.653   3.480
11385TIP3    H134032   5.711   7.568   3.500
11385TIP3    H234033   5.639   7.637   3.388
11386TIP3   OH234034   5.001   7.309   3.444
11386TIP3    H134035   4.985   7.382   3.381
11386TIP3    H234036   4.954   7.236   3.399
11387TIP3   OH234037   5.699   7.403   3.067
11387TIP3    H134038   5.772   7.387   3.131
11387TIP3    H234039   5.750   7.438   2.992
11388TIP3   OH234040   4.641   7.515   3.549
11388TIP3    H134041   4.723   7.495   3.598
11388TIP3    H234042   4.652   7.457   3.472
11389TIP3   OH234043   5.083   7.713   3.338
11389TIP3    H134044   5.177   7.689   3.355
11389TIP3    H234045   5.045   7.627   3.311
11390TIP3   OH234046   6.341   7.676   3.614
11390TIP3    H134047   6.259   7.725   3.595
11390TIP3    H234048   6.358   7.702   3.705
11391TIP3   OH234049   5.003   7.294   3.877
11391TIP3    H134050   4.942   7.333   3.812
11391TIP3    H234051   4.953   7.311   3.960
11392TIP3   OH234052   5.346   8.141   2.891
11392TIP3    H134053   5.316   8.126   2.800
11392TIP3    H234054   5.309   8.230   2.909
11393TIP3   OH234055   5.109   8.069   3.675
11393TIP3    H134056   5.045   8.133   3.714
11393TIP3    H234057   5.153   8.123   3.607
11394TIP3   OH234058   5.910   7.403   3.237
11394TIP3    H134059   5.909   7.352   3.319
11394TIP3    H234060   5.969   7.478   3.260
11395TIP3   OH234061   4.873   7.411   3.663
11395TIP3    H134062   4.935   7.484   3.687
11395TIP3    H234063   4.923   7.369   3.590
11396TIP3   OH234064   4.935   8.262   3.767
11396TIP3    H134065   4.911   8.350   3.732
11396TIP3    H234066   4.858   8.247   3.826
11397TIP3   OH234067   5.773   8.467   3.248
11397TIP3    H134068   5.682   8.460   3.286
11397TIP3    H234069   5.766   8.553   3.202
11398TIP3   OH234070   6.062   7.371   3.608
11398TIP3    H134071   5.975   7.403   3.579
11398TIP3    H234072   6.122   7.403   3.537
11399TIP3   OH234073   5.360   7.014   3.588
11399TIP3    H134074   5.351   6.919   3.610
11399TIP3    H234075   5.283   7.051   3.636
11400TIP3   OH234076   5.474   8.515   2.922
11400TIP3    H134077   5.525   8.433   2.899
11400TIP3    H234078   5.534   8.582   2.881
11401TIP3   OH234079   5.613   8.299   2.826
11401TIP3    H134080   5.591   8.219   2.778
11401TIP3    H234081   5.649   8.264   2.910
11402TIP3   OH234082   5.999   8.383   3.591
11402TIP3    H134083   5.989   8.306   3.531
11402TIP3    H234084   5.982   8.458   3.530
11403TIP3   OH234085   5.288   7.777   2.845
11403TIP3    H134086   5.211   7.829   2.818
11403TIP3    H234087   5.339   7.772   2.762
11404TIP3   OH234088   5.250   7.556   2.571
11404TIP3    H134089   5.320   7.609   2.613
11404TIP3    H234090   5.306   7.494   2.519
11405TIP3   OH234091   6.193   8.017   3.434
11405TIP3    H134092   6.111   8.071   3.439
11405TIP3    H234093   6.224   8.040   3.344
11406TIP3   OH234094   5.636   7.858   2.821
11406TIP3    H134095   5.583   7.883   2.900
11406TIP3    H234096   5.720   7.831   2.863
11407TIP3   OH234097   5.872   7.900   3.729
11407TIP3    H134098   5.869   7.984   3.777
11407TIP3    H234099   5.786   7.903   3.682
11408TIP3   OH234100   4.871   7.855   3.233
11408TIP3    H134101   4.835   7.794   3.166
11408TIP3    H234102   4.949   7.806   3.266
11409TIP3   OH234103   5.004   8.266   3.378
11409TIP3    H134104   4.992   8.198   3.311
11409TIP3    H234105   5.094   8.244   3.409
11410TIP3   OH234106   5.008   7.828   3.587
11410TIP3    H134107   5.045   7.810   3.498
11410TIP3    H234108   5.050   7.914   3.611
11411TIP3   OH234109   5.530   8.465   3.366
11411TIP3    H134110   5.516   8.546   3.419
11411TIP3    H234111   5.517   8.393   3.431
11412TIP3   OH234112   5.142   8.383   3.914
11412TIP3    H134113   5.083   8.447   3.960
11412TIP3    H234114   5.075   8.331   3.865
11413TIP3   OH234115   5.477   7.718   2.645
11413TIP3    H134116   5.538   7.775   2.697
11413TIP3    H234117   5.503   7.741   2.553
11414TIP3   OH234118   4.895   7.943   4.009
11414TIP3    H134119   4.901   8.029   4.057
11414TIP3    H234120   4.800   7.923   4.023
11415TIP3   OH234121   5.214   8.402   2.925
11415TIP3    H134122   5.296   8.451   2.942
11415TIP3    H234123   5.159   8.469   2.881
11416TIP3   OH234124   4.938   8.554   4.000
11416TIP3    H134125   4.902   8.553   3.909
11416TIP3    H234126   4.859   8.532   4.054
11417TIP3   OH234127   5.996   6.961   2.693
11417TIP3    H134128   5.912   6.981   2.739
11417TIP3    H234129   6.009   7.042   2.639
11418TIP3   OH234130   4.739   7.688   3.034
11418TIP3    H134131   4.679   7.744   2.982
11418TIP3    H234132   4.676   7.627   3.075
11419TIP3   OH234133   5.792   8.326   2.242
11419TIP3    H134134   5.800   8.423   2.226
11419TIP3    H234135   5.884   8.297   2.228
11420TIP3   OH234136   4.518   8.083   3.947
11420TIP3    H134137   4.451   8.061   3.879
11420TIP3    H234138   4.553   7.995   3.973
11421TIP3   OH234139   4.372   8.273   3.586
11421TIP3    H134140   4.467   8.279   3.575
11421TIP3    H234141   4.352   8.356   3.631
11422TIP3   OH234142   6.236   8.726   3.636
11422TIP3    H134143   6.234   8.629   3.646
11422TIP3    H234144   6.152   8.750   3.681
11423TIP3   OH234145   5.343   8.513   3.771
11423TIP3    H134146   5.343   8.606   3.802
11423TIP3    H234147   5.271   8.475   3.825
11424TIP3   OH234148   5.100   8.640   2.723
11424TIP3    H134149   5.058   8.626   2.636
11424TIP3    H234150   5.070   8.730   2.748
11425TIP3   OH234151   4.547   8.417   3.087
11425TIP3    H134152   4.577   8.444   3.176
11425TIP3    H234153   4.455   8.450   3.092
11426TIP3   OH234154   5.304   8.543   2.363
11426TIP3    H134155   5.363   8.474   2.326
11426TIP3    H234156   5.340   8.552   2.454
11427TIP3   OH234157   5.353   8.591   2.634
11427TIP3    H134158   5.265   8.602   2.676
11427TIP3    H234159   5.405   8.553   2.706
11428TIP3   OH234160   6.125   7.859   3.910
11428TIP3    H134161   6.046   7.872   3.855
11428TIP3    H234162   6.141   7.763   3.899
11429TIP3   OH234163   4.723   8.265   3.937
11429TIP3    H134164   4.772   8.250   4.021
11429TIP3    H234165   4.649   8.202   3.945
11430TIP3   OH234166   5.121   7.091   3.717
11430TIP3    H134167   5.031   7.059   3.695
11430TIP3    H234168   5.097   7.173   3.765
11431TIP3   OH234169   5.655   7.206   3.914
11431TIP3    H134170   5.723   7.178   3.978
11431TIP3    H234171   5.571   7.185   3.960
11432TIP3   OH234172   5.894   7.633   3.831
11432TIP3    H134173   5.847   7.630   3.917
11432TIP3    H234174   5.870   7.721   3.797
11433TIP3   OH234175   5.554   7.767   2.390
11433TIP3    H134176   5.521   7.739   2.303
11433TIP3    H234177   5.635   7.814   2.364
11434TIP3   OH234178   5.264   7.141   2.691
11434TIP3    H134179   5.234   7.135   2.784
11434TIP3    H234180   5.230   7.056   2.657
11435TIP3   OH234181   5.052   7.606   3.737
11435TIP3    H134182   5.003   7.627   3.820
11435TIP3    H234183   5.035   7.687   3.684
11436TIP3   OH234184   4.939   7.489   3.249
11436TIP3    H134185   4.846   7.463   3.267
11436TIP3    H234186   4.950   7.457   3.158
11437TIP3   OH234187   5.423   7.573   2.976
11437TIP3    H134188   5.373   7.647   2.936
11437TIP3    H234189   5.482   7.547   2.903
11438TIP3   OH234190   5.602   7.858   4.068
11438TIP3    H134191   5.579   7.784   4.129
11438TIP3    H234192   5.697   7.870   4.088
11439TIP3   OH234193   5.584   7.607   3.220
11439TIP3    H134194   5.528   7.639   3.147
11439TIP3    H234195   5.618   7.525   3.178
11440TIP3   OH234196   4.872   7.635   3.948
11440TIP3    H134197   4.896   7.698   4.016
11440TIP3    H234198   4.860   7.553   3.999
11441TIP3   OH234199   4.932   7.113   2.651
11441TIP3    H134200   4.921   7.103   2.746
11441TIP3    H234201   4.848   7.152   2.620
11442TIP3   OH234202   4.467   7.160   3.522
11442TIP3    H134203   4.541   7.189   3.581
11442TIP3    H234204   4.513   7.117   3.448
11443TIP3   OH234205   5.594   7.854   3.643
11443TIP3    H134206   5.627   7.781   3.585
11443TIP3    H234207   5.567   7.802   3.722
11444TIP3   OH234208   5.259   7.319   3.316
11444TIP3    H134209   5.181   7.312   3.375
11444TIP3    H234210   5.333   7.313   3.380
11445TIP3   OH234211   4.700   7.369   3.312
11445TIP3    H134212   4.602   7.375   3.297
11445TIP3    H234213   4.717   7.273   3.309
11446TIP3   OH234214   4.975   7.380   2.984
11446TIP3    H134215   5.070   7.374   3.010
11446TIP3    H234216   4.984   7.436   2.905
11447TIP3   OH234217   5.757   7.391   3.516
11447TIP3    H134218   5.720   7.401   3.607
11447TIP3    H234219   5.694   7.328   3.477
11448TIP3   OH234220   5.925   9.077   3.733
11448TIP3    H134221   5.922   9.100   3.638
11448TIP3    H234222   6.003   9.127   3.763
11449TIP3   OH234223   4.884   8.187   4.157
11449TIP3    H134224   4.963   8.219   4.205
11449TIP3    H234225   4.818   8.187   4.229
11450TIP3   OH234226   5.347   7.640   3.410
11450TIP3    H134227   5.421   7.603   3.359
11450TIP3    H234228   5.360   7.600   3.498
11451TIP3   OH234229   4.869   7.125   3.280
11451TIP3    H134230   4.836   7.050   3.333
11451TIP3    H234231   4.946   7.085   3.235
11452TIP3   OH234232   5.324   7.535   3.703
11452TIP3    H134233   5.235   7.574   3.716
11452TIP3    H234234   5.383   7.595   3.753
11453TIP3   OH234235   5.057   7.932   2.791
11453TIP3    H134236   4.984   7.867   2.782
11453TIP3    H234237   5.043   7.963   2.884
11454TIP3   OH234238   5.963   8.166   3.427
11454TIP3    H134239   5.988   8.214   3.346
11454TIP3    H234240   5.877   8.125   3.402
11455TIP3   OH234241   5.521   7.240   2.661
11455TIP3    H134242   5.423   7.228   2.662
11455TIP3    H234243   5.533   7.336   2.676
11456TIP3   OH234244   5.459   8.246   3.794
11456TIP3    H134245   5.479   8.225   3.886
11456TIP3    H234246   5.423   8.336   3.799
11457TIP3   OH234247   5.590   7.489   2.761
11457TIP3    H134248   5.687   7.494   2.775
11457TIP3    H234249   5.573   7.567   2.703
11458TIP3   OH234250   4.750   7.946   3.473
11458TIP3    H134251   4.793   7.916   3.391
11458TIP3    H234252   4.790   7.887   3.540
11459TIP3   OH234253   5.209   8.080   2.616
11459TIP3    H134254   5.160   8.166   2.622
11459TIP3    H234255   5.155   8.024   2.676
11460TIP3   OH234256   4.633   7.870   4.085
11460TIP3    H134257   4.654   7.858   4.179
11460TIP3    H234258   4.563   7.804   4.071
11461TIP3   OH234259   5.357   7.984   4.106
11461TIP3    H134260   5.299   7.925   4.054
11461TIP3    H234261   5.446   7.952   4.078
11462TIP3   OH234262   5.622   8.503   3.690
11462TIP3    H134263   5.525   8.505   3.700
11462TIP3    H234264   5.649   8.557   3.767
11463TIP3   OH234265   6.032   7.577   2.599
11463TIP3    H134266   5.969   7.532   2.538
11463TIP3    H234267   6.030   7.665   2.555
11464TIP3   OH234268   6.249   8.435   3.679
11464TIP3    H134269   6.151   8.430   3.669
11464TIP3    H234270   6.276   8.406   3.589
11465TIP3   OH234271   5.729   8.397   2.505
11465TIP3    H134272   5.708   8.324   2.564
11465TIP3    H234273   5.744   8.353   2.419
11466TIP3   OH234274   5.727   8.027   3.348
11466TIP3    H134275   5.634   8.001   3.359
11466TIP3    H234276   5.762   7.948   3.302
11467TIP3   OH234277   4.789   8.248   3.067
11467TIP3    H134278   4.851   8.314   3.030
11467TIP3    H234279   4.765   8.292   3.152
11468TIP3   OH234280   4.426   7.548   2.805
11468TIP3    H134281   4.461   7.637   2.818
11468TIP3    H234282   4.344   7.550   2.860
11469TIP3   OH234283   4.994   8.019   3.042
11469TIP3    H134284   4.957   8.107   3.055
11469TIP3    H234285   4.958   7.970   3.118
11470TIP3   OH234286   5.123   8.598   3.566
11470TIP3    H134287   5.161   8.672   3.515
11470TIP3    H234288   5.201   8.568   3.616
11471TIP3   OH234289   4.773   8.495   2.943
11471TIP3    H134290   4.690   8.513   2.991
11471TIP3    H234291   4.816   8.584   2.950
11472TIP3   OH234292   5.512   8.233   3.524
11472TIP3    H134293   5.505   8.230   3.622
11472TIP3    H234294   5.593   8.182   3.510
11473TIP3   OH234295   5.484   8.123   2.409
11473TIP3    H134296   5.538   8.099   2.487
11473TIP3    H234297   5.396   8.098   2.439
11474TIP3   OH234298   5.761   8.769   3.576
11474TIP3    H134299   5.682   8.713   3.565
11474TIP3    H234300   5.747   8.834   3.503
11475TIP3   OH234301   5.825   8.601   2.228
11475TIP3    H134302   5.863   8.672   2.173
11475TIP3    H234303   5.746   8.648   2.260
11476TIP3   OH234304   4.847   7.377   4.095
11476TIP3    H134305   4.751   7.383   4.110
11476TIP3    H234306   4.874   7.316   4.165
11477TIP3   OH234307   5.644   8.063   2.630
11477TIP3    H134308   5.636   7.992   2.697
11477TIP3    H234309   5.740   8.059   2.612
11478TIP3   OH234310   4.566   8.461   3.726
11478TIP3    H134311   4.614   8.387   3.766
11478TIP3    H234312   4.588   8.533   3.786
11479TIP3   OH234313   4.854   8.106   2.416
11479TIP3    H134314   4.870   8.021   2.370
11479TIP3    H234315   4.823   8.075   2.502
11480TIP3   OH234316   4.787   8.117   2.738
11480TIP3    H134317   4.880   8.087   2.734
11480TIP3    H234318   4.793   8.206   2.698
11481TIP3   OH234319   4.538   7.814   2.883
11481TIP3    H134320   4.451   7.855   2.893
11481TIP3    H234321   4.569   7.851   2.798
11482TIP3   OH234322   5.679   7.442   3.775
11482TIP3    H134323   5.760   7.479   3.812
11482TIP3    H234324   5.666   7.361   3.828
11483TIP3   OH234325   5.560   7.195   2.938
11483TIP3    H134326   5.549   7.217   2.843
11483TIP3    H234327   5.601   7.277   2.972
11484TIP3   OH234328   5.057   8.305   2.631
11484TIP3    H134329   4.972   8.342   2.662
11484TIP3    H234330   5.082   8.373   2.566
11485TIP3   OH234331   5.240   7.376   3.046
11485TIP3    H134332   5.309   7.442   3.022
11485TIP3    H234333   5.257   7.366   3.142
11486TIP3   OH234334   5.520   7.691   3.851
11486TIP3    H134335   5.539   7.745   3.930
11486TIP3    H234336   5.577   7.614   3.864
11487TIP3   OH234337   5.397   7.104   3.144
11487TIP3    H134338   5.402   7.175   3.210
11487TIP3    H234339   5.458   7.139   3.075
11488TIP3   OH234340   4.795   8.384   2.695
11488TIP3    H134341   4.772   8.450   2.625
11488TIP3    H234342   4.792   8.441   2.775
11489TIP3   OH234343   4.882   7.133   2.927
11489TIP3    H134344   4.937   7.204   2.969
11489TIP3    H234345   4.946   7.060   2.937
11490TIP3   OH234346   6.162   7.593   3.830
11490TIP3    H134347   6.064   7.589   3.836
11490TIP3    H234348   6.176   7.553   3.743
11491TIP3   OH234349   5.812   7.787   3.220
11491TIP3    H134350   5.738   7.725   3.230
11491TIP3    H234351   5.885   7.740   3.266
11492TIP3   OH234352   5.780   8.739   3.169
11492TIP3    H134353   5.738   8.786   3.094
11492TIP3    H234354   5.874   8.759   3.148
11493TIP3   OH234355   4.857   7.009   3.696
11493TIP3    H134356   4.824   6.974   3.611
11493TIP3    H234357   4.848   6.931   3.755
11494TIP3   OH234358   4.551   8.767   4.147
11494TIP3    H134359   4.636   8.766   4.194
11494TIP3    H234360   4.529   8.672   4.146
11495TIP3   OH234361   5.037   8.736   4.192
11495TIP3    H134362   5.131   8.716   4.198
11495TIP3    H234363   5.011   8.679   4.117
11496TIP3   OH234364   5.017   8.311   2.322
11496TIP3    H134365   4.963   8.238   2.361
11496TIP3    H234366   5.091   8.261   2.283
11497TIP3   OH234367   5.673   8.641   3.924
11497TIP3    H134368   5.664   8.571   3.992
11497TIP3    H234369   5.749   8.692   3.956
11498TIP3   OH234370   5.452   8.353   2.230
11498TIP3    H134371   5.502   8.291   2.286
11498TIP3    H234372   5.506   8.355   2.148
11499TIP3   OH234373   4.684   8.176   4.347
11499TIP3    H134374   4.700   8.080   4.351
11499TIP3    H234375   4.595   8.179   4.305
11500TIP3   OH234376   4.659   7.814   2.547
11500TIP3    H134377   4.725   7.789   2.614
11500TIP3    H234378   4.718   7.826   2.469
11501TIP3   OH234379   5.293   8.260   4.120
11501TIP3    H134380   5.249   8.275   4.034
11501TIP3    H234381   5.322   8.167   4.114
11502TIP3   OH234382   5.163   8.024   2.347
11502TIP3    H134383   5.171   8.038   2.444
11502TIP3    H234384   5.166   7.926   2.343
11503TIP3   OH234385   5.784   8.266   3.727
11503TIP3    H134386   5.857   8.312   3.681
11503TIP3    H234387   5.712   8.331   3.715
11504TIP3   OH234388   4.802   7.908   4.328
11504TIP3    H134389   4.875   7.847   4.312
11504TIP3    H234390   4.824   7.942   4.417
11505TIP3   OH234391   4.863   7.732   2.762
11505TIP3    H134392   4.849   7.692   2.849
11505TIP3    H234393   4.902   7.657   2.710
11506TIP3   OH234394   5.136   7.794   3.990
11506TIP3    H134395   5.060   7.855   3.995
11506TIP3    H234396   5.184   7.828   3.911
11507TIP3   OH234397   4.971   7.524   2.617
11507TIP3    H134398   4.939   7.521   2.525
11507TIP3    H234399   5.068   7.531   2.602
11508TIP3   OH234400   5.654   8.197   4.126
11508TIP3    H134401   5.732   8.173   4.075
11508TIP3    H234402   5.652   8.127   4.194
11509TIP3   OH234403   5.791   7.856   2.266
11509TIP3    H134404   5.771   7.808   2.183
11509TIP3    H234405   5.760   7.945   2.239
11510TIP3   OH234406   5.260   7.582   4.119
11510TIP3    H134407   5.260   7.501   4.064
11510TIP3    H234408   5.216   7.647   4.060
11511TIP3   OH234409   5.262   7.368   3.924
11511TIP3    H134410   5.290   7.409   3.840
11511TIP3    H234411   5.168   7.345   3.906
11512TIP3   OH234412   5.292   7.904   3.795
11512TIP3    H134413   5.375   7.912   3.746
11512TIP3    H234414   5.237   7.973   3.753
11513TIP3   OH234415   5.876   7.873   4.181
11513TIP3    H134416   5.921   7.787   4.189
11513TIP3    H234417   5.945   7.928   4.143
11514TIP3   OH234418   5.914   8.126   3.918
11514TIP3    H134419   5.856   8.178   3.857
11514TIP3    H234420   6.001   8.145   3.877
11515TIP3   OH234421   5.136   7.698   4.346
11515TIP3    H134422   5.067   7.630   4.360
11515TIP3    H234423   5.172   7.671   4.259
11516TIP3   OH234424   5.395   7.133   3.989
11516TIP3    H134425   5.346   7.216   3.968
11516TIP3    H234426   5.325   7.066   3.978
11517TIP3   OH234427   5.520   7.640   4.207
11517TIP3    H134428   5.511   7.628   4.303
11517TIP3    H234429   5.430   7.614   4.179
11518TIP3   OH234430   5.761   7.589   4.062
11518TIP3    H134431   5.685   7.588   4.123
11518TIP3    H234432   5.834   7.556   4.119
11519TIP3   OH234433   5.988   7.526   4.214
11519TIP3    H134434   6.002   7.431   4.233
11519TIP3    H234435   5.986   7.566   4.304
11520TIP3   OH234436   4.978   7.477   4.398
11520TIP3    H134437   4.985   7.386   4.363
11520TIP3    H234438   5.012   7.464   4.489
11521TIP3   OH234439   5.490   7.143   4.247
11521TIP3    H134440   5.558   7.073   4.242
11521TIP3    H234441   5.451   7.135   4.158
11522TIP3   OH234442   5.555   7.357   4.407
11522TIP3    H134443   5.532   7.287   4.342
11522TIP3    H234444   5.477   7.417   4.400
11523TIP3   OH234445   4.775   8.579   2.505
11523TIP3    H134446   4.871   8.583   2.485
11523TIP3    H234447   4.741   8.631   2.429
11524TIP3   OH234448   4.267   7.956   2.724
11524TIP3    H134449   4.346   7.985   2.678
11524TIP3    H234450   4.247   7.871   2.679
11525TIP3   OH234451   4.155   8.574   3.147
11525TIP3    H134452   4.092   8.508   3.110
11525TIP3    H234453   4.211   8.518   3.204
11526TIP3   OH234454   4.315   8.434   3.318
11526TIP3    H134455   4.289   8.363   3.379
11526TIP3    H234456   4.361   8.495   3.380
11527TIP3   OH234457   6.031   8.833   3.123
11527TIP3    H134458   6.060   8.870   3.208
11527TIP3    H234459   6.090   8.877   3.060
11528TIP3   OH234460   6.061   8.855   3.407
11528TIP3    H134461   6.020   8.766   3.400
11528TIP3    H234462   6.140   8.832   3.458
11529TIP3   OH234463   6.111   8.529   3.980
11529TIP3    H134464   6.034   8.539   4.039
11529TIP3    H234465   6.148   8.619   3.980
11530TIP3   OH234466   5.923   8.044   2.600
11530TIP3    H134467   5.993   8.107   2.570
11530TIP3    H234468   5.967   8.003   2.677
11531TIP3   OH234469   6.052   7.911   2.802
11531TIP3    H134470   5.987   7.868   2.862
11531TIP3    H234471   6.118   7.949   2.863
11532TIP3   OH234472   6.104   8.299   3.234
11532TIP3    H134473   6.159   8.237   3.183
11532TIP3    H234474   6.097   8.376   3.174
11533TIP3   OH234475   5.939   8.601   3.431
11533TIP3    H134476   5.868   8.645   3.481
11533TIP3    H234477   5.890   8.553   3.361
11534TIP3   OH234478   5.991   7.818   2.451
11534TIP3    H134479   5.920   7.820   2.383
11534TIP3    H234480   5.963   7.895   2.504
11535TIP3   OH234481   5.858   7.495   2.408
11535TIP3    H134482   5.826   7.531   2.325
11535TIP3    H234483   5.833   7.400   2.398
11536TIP3   OH234484   5.866   7.766   2.949
11536TIP3    H134485   5.877   7.669   2.944
11536TIP3    H234486   5.854   7.780   3.046
11537TIP3   OH234487   4.496   7.838   3.695
11537TIP3    H134488   4.494   7.813   3.600
11537TIP3    H234489   4.592   7.841   3.712
11538TIP3   OH234490   6.156   8.191   3.809
11538TIP3    H134491   6.229   8.126   3.800
11538TIP3    H234492   6.182   8.259   3.745
11539TIP3   OH234493   6.342   7.999   3.834
11539TIP3    H134494   6.267   7.945   3.867
11539TIP3    H234495   6.415   7.934   3.842
11540TIP3   OH234496   5.803   7.230   2.401
11540TIP3    H134497   5.883   7.194   2.444
11540TIP3    H234498   5.736   7.162   2.417
11541TIP3   OH234499   5.862   7.482   2.846
11541TIP3    H134500   5.904   7.394   2.861
11541TIP3    H234501   5.920   7.515   2.775
11542TIP3   OH234502   6.025   7.660   3.339
11542TIP3    H134503   6.112   7.685   3.299
11542TIP3    H234504   6.040   7.694   3.429
11543TIP3   OH234505   6.093   7.800   3.574
11543TIP3    H134506   6.014   7.835   3.620
11543TIP3    H234507   6.125   7.880   3.526
11544TIP3   OH234508   4.711   7.527   4.370
11544TIP3    H134509   4.808   7.520   4.372
11544TIP3    H234510   4.686   7.443   4.412
11545TIP3   OH234511   6.541   7.386   4.128
11545TIP3    H134512   6.602   7.322   4.086
11545TIP3    H234513   6.519   7.446   4.054
11546TIP3   OH234514   5.970   7.233   2.884
11546TIP3    H134515   6.021   7.215   2.966
11546TIP3    H234516   5.914   7.154   2.879
11547TIP3   OH234517   4.673   7.217   3.694
11547TIP3    H134518   4.735   7.143   3.711
11547TIP3    H234519   4.734   7.293   3.697
11548TIP3   OH234520   4.477   7.492   3.776
11548TIP3    H134521   4.526   7.489   3.691
11548TIP3    H234522   4.502   7.579   3.809
11549TIP3   OH234523   6.417   7.534   3.935
11549TIP3    H134524   6.328   7.569   3.952
11549TIP3    H234525   6.395   7.460   3.876
11550TIP3   OH234526   6.056   7.167   2.514
11550TIP3    H134527   6.094   7.095   2.460
11550TIP3    H234528   6.122   7.238   2.503
11551TIP3   OH234529   4.448   7.007   3.263
11551TIP3    H134530   4.368   6.984   3.313
11551TIP3    H234531   4.411   7.072   3.201
11552TIP3   OH234532   5.617   8.696   2.782
11552TIP3    H134533   5.667   8.681   2.699
11552TIP3    H234534   5.670   8.766   2.824
11553TIP3   OH234535   4.678   7.077   4.090
11553TIP3    H134536   4.628   7.069   4.174
11553TIP3    H234537   4.609   7.115   4.031
11554TIP3   OH234538   4.719   8.498   4.168
11554TIP3    H134539   4.627   8.474   4.150
11554TIP3    H234540   4.725   8.485   4.263
11555TIP3   OH234541   4.896   8.531   3.714
11555TIP3    H134542   4.845   8.606   3.677
11555TIP3    H234543   4.981   8.549   3.669
11556TIP3   OH234544   5.343   8.779   3.853
11556TIP3    H134545   5.385   8.782   3.941
11556TIP3    H234546   5.409   8.830   3.800
11557TIP3   OH234547   5.521   8.929   3.710
11557TIP3    H134548   5.593   8.880   3.667
11557TIP3    H234549   5.573   8.987   3.770
11558TIP3   OH234550   6.315   7.294   3.812
11558TIP3    H134551   6.223   7.288   3.778
11558TIP3    H234552   6.345   7.201   3.799
11559TIP3   OH234553   4.574   8.788   3.740
11559TIP3    H134554   4.488   8.823   3.709
11559TIP3    H234555   4.577   8.827   3.828
11560TIP3   OH234556   4.808   8.767   3.593
11560TIP3    H134557   4.723   8.782   3.640
11560TIP3    H234558   4.788   8.805   3.505
11561TIP3   OH234559   5.237   8.800   3.394
11561TIP3    H134560   5.165   8.819   3.330
11561TIP3    H234561   5.249   8.889   3.434
11562TIP3   OH234562   5.504   8.740   3.444
11562TIP3    H134563   5.409   8.756   3.425
11562TIP3    H234564   5.546   8.816   3.401
11563TIP3   OH234565   5.713   8.933   3.361
11563TIP3    H134566   5.698   9.018   3.313
11563TIP3    H234567   5.738   8.873   3.287
11564TIP3   OH234568   4.483   8.580   3.481
11564TIP3    H134569   4.511   8.561   3.573
11564TIP3    H234570   4.559   8.542   3.432
11565TIP3   OH234571   4.680   8.452   3.330
11565TIP3    H134572   4.694   8.377   3.392
11565TIP3    H234573   4.766   8.499   3.337
11566TIP3   OH234574   4.939   8.548   3.343
11566TIP3    H134575   4.981   8.460   3.336
11566TIP3    H234576   4.981   8.581   3.424
11567TIP3   OH234577   5.512   7.206   3.420
11567TIP3    H134578   5.474   7.138   3.479
11567TIP3    H234579   5.591   7.161   3.384
11568TIP3   OH234580   6.043   7.086   3.334
11568TIP3    H134581   6.082   7.138   3.260
11568TIP3    H234582   5.949   7.109   3.328
11569TIP3   OH234583   6.138   7.191   3.100
11569TIP3    H134584   6.210   7.138   3.059
11569TIP3    H234585   6.173   7.282   3.084
11570TIP3   OH234586   4.768   6.919   3.444
11570TIP3    H134587   4.678   6.881   3.449
11570TIP3    H234588   4.820   6.836   3.444
11571TIP3   OH234589   4.552   6.775   3.114
11571TIP3    H134590   4.583   6.825   3.038
11571TIP3    H234591   4.513   6.845   3.171
11572TIP3   OH234592   5.203   6.962   3.326
11572TIP3    H134593   5.268   7.006   3.269
11572TIP3    H234594   5.235   6.987   3.414
11573TIP3   OH234595   5.757   7.096   3.315
11573TIP3    H134596   5.759   7.062   3.225
11573TIP3    H234597   5.744   7.014   3.368
11574TIP3   OH234598   5.785   7.021   2.869
11574TIP3    H134599   5.699   7.064   2.881
11574TIP3    H234600   5.782   6.949   2.934
11575TIP3   OH234601   4.285   8.338   2.871
11575TIP3    H134602   4.196   8.315   2.839
11575TIP3    H234603   4.274   8.433   2.882
11576TIP3   OH234604   5.174   7.126   2.960
11576TIP3    H134605   5.235   7.070   3.012
11576TIP3    H234606   5.209   7.214   2.985
11577TIP3   OH234607   5.045   8.548   2.457
11577TIP3    H134608   5.133   8.571   2.420
11577TIP3    H234609   5.023   8.473   2.397
11578TIP3   OH234610   5.761   8.664   2.549
11578TIP3    H134611   5.752   8.567   2.534
11578TIP3    H234612   5.718   8.698   2.468
11579TIP3   OH234613   4.977   7.200   4.338
11579TIP3    H134614   4.943   7.129   4.395
11579TIP3    H234615   5.071   7.200   4.364
11580TIP3   OH234616   5.225   7.196   4.457
11580TIP3    H134617   5.310   7.169   4.417
11580TIP3    H234618   5.212   7.126   4.524
11581TIP3   OH234619   4.347   8.378   2.514
11581TIP3    H134620   4.343   8.419   2.602
11581TIP3    H234621   4.440   8.346   2.508
11582TIP3   OH234622   6.049   7.256   4.245
11582TIP3    H134623   6.070   7.224   4.335
11582TIP3    H234624   6.137   7.252   4.202
11583TIP3   OH234625   5.988   8.808   3.741
11583TIP3    H134626   5.911   8.777   3.689
11583TIP3    H234627   5.972   8.905   3.739
11584TIP3   OH234628   7.256   8.180   2.505
11584TIP3    H134629   7.229   8.272   2.486
11584TIP3    H234630   7.178   8.132   2.471
11585TIP3   OH234631   7.253   8.181   2.882
11585TIP3    H134632   7.283   8.151   2.970
11585TIP3    H234633   7.212   8.100   2.847
11586TIP3   OH234634   6.554   8.079   3.252
11586TIP3    H134635   6.587   8.012   3.314
11586TIP3    H234636   6.634   8.132   3.238
11587TIP3   OH234637   7.497   8.482   2.565
11587TIP3    H134638   7.484   8.413   2.631
11587TIP3    H234639   7.525   8.558   2.619
11588TIP3   OH234640   6.524   8.485   2.978
11588TIP3    H134641   6.516   8.387   2.980
11588TIP3    H234642   6.621   8.494   2.970
11589TIP3   OH234643   6.230   7.691   2.763
11589TIP3    H134644   6.181   7.774   2.773
11589TIP3    H234645   6.162   7.635   2.723
11590TIP3   OH234646   6.292   7.977   2.929
11590TIP3    H134647   6.340   7.901   2.967
11590TIP3    H234648   6.350   8.004   2.857
11591TIP3   OH234649   7.146   8.946   2.580
11591TIP3    H134650   7.193   8.875   2.533
11591TIP3    H234651   7.141   8.911   2.670
11592TIP3   OH234652   7.053   8.406   2.932
11592TIP3    H134653   7.091   8.330   2.884
11592TIP3    H234654   7.137   8.450   2.956
11593TIP3   OH234655   8.064   7.728   2.929
11593TIP3    H134656   8.093   7.810   2.974
11593TIP3    H234657   8.086   7.748   2.837
11594TIP3   OH234658   7.465   7.909   2.967
11594TIP3    H134659   7.508   7.824   2.986
11594TIP3    H234660   7.435   7.895   2.875
11595TIP3   OH234661   6.801   7.568   2.932
11595TIP3    H134662   6.781   7.640   2.869
11595TIP3    H234663   6.754   7.494   2.887
11596TIP3   OH234664   7.495   7.658   2.555
11596TIP3    H134665   7.569   7.642   2.619
11596TIP3    H234666   7.546   7.694   2.480
11597TIP3   OH234667   6.436   7.770   3.038
11597TIP3    H134668   6.520   7.750   3.084
11597TIP3    H234669   6.447   7.715   2.958
11598TIP3   OH234670   6.878   7.968   2.829
11598TIP3    H134671   6.971   7.942   2.842
11598TIP3    H234672   6.838   7.884   2.797
11599TIP3   OH234673   8.138   7.934   3.100
11599TIP3    H134674   8.055   7.983   3.081
11599TIP3    H234675   8.154   7.960   3.192
11600TIP3   OH234676   6.800   7.551   3.364
11600TIP3    H134677   6.739   7.588   3.297
11600TIP3    H234678   6.748   7.569   3.446
11601TIP3   OH234679   7.150   8.403   2.374
11601TIP3    H134680   7.105   8.378   2.292
11601TIP3    H234681   7.106   8.487   2.395
11602TIP3   OH234682   6.906   8.326   3.162
11602TIP3    H134683   6.842   8.391   3.200
11602TIP3    H234684   6.949   8.378   3.092
11603TIP3   OH234685   7.710   7.659   2.723
11603TIP3    H134686   7.701   7.610   2.805
11603TIP3    H234687   7.764   7.735   2.750
11604TIP3   OH234688   6.669   7.666   3.150
11604TIP3    H134689   6.732   7.739   3.172
11604TIP3    H234690   6.718   7.625   3.074
11605TIP3   OH234691   6.732   8.519   3.258
11605TIP3    H134692   6.707   8.604   3.217
11605TIP3    H234693   6.653   8.505   3.315
11606TIP3   OH234694   6.130   8.209   2.494
11606TIP3    H134695   6.089   8.234   2.409
11606TIP3    H234696   6.159   8.295   2.530
11607TIP3   OH234697   7.567   8.721   2.734
11607TIP3    H134698   7.477   8.712   2.774
11607TIP3    H234699   7.557   8.807   2.689
11608TIP3   OH234700   7.859   7.626   3.096
11608TIP3    H134701   7.771   7.658   3.068
11608TIP3    H234702   7.917   7.658   3.024
11609TIP3   OH234703   7.159   7.272   3.078
11609TIP3    H134704   7.146   7.177   3.094
11609TIP3    H234705   7.080   7.309   3.124
11610TIP3   OH234706   7.272   8.773   2.408
11610TIP3    H134707   7.322   8.691   2.387
11610TIP3    H234708   7.331   8.840   2.366
11611TIP3   OH234709   7.413   8.558   2.312
11611TIP3    H134710   7.375   8.479   2.273
11611TIP3    H234711   7.448   8.523   2.397
11612TIP3   OH234712   7.784   8.642   3.075
11612TIP3    H134713   7.779   8.564   3.015
11612TIP3    H234714   7.774   8.717   3.013
11613TIP3   OH234715   7.086   8.033   2.333
11613TIP3    H134716   7.005   8.083   2.310
11613TIP3    H234717   7.132   8.029   2.247
11614TIP3   OH234718   7.045   7.817   2.053
11614TIP3    H134719   7.115   7.866   2.101
11614TIP3    H234720   7.100   7.751   2.005
11615TIP3   OH234721   7.992   8.275   2.921
11615TIP3    H134722   7.909   8.327   2.928
11615TIP3    H234723   8.019   8.299   2.830
11616TIP3   OH234724   7.433   8.115   2.307
11616TIP3    H134725   7.378   8.140   2.385
11616TIP3    H234726   7.516   8.089   2.351
11617TIP3   OH234727   7.669   8.156   3.215
11617TIP3    H134728   7.667   8.239   3.266
11617TIP3    H234729   7.583   8.161   3.170
11618TIP3   OH234730   6.665   8.114   2.722
11618TIP3    H134731   6.623   8.057   2.655
11618TIP3    H234732   6.742   8.061   2.750
11619TIP3   OH234733   6.794   8.523   2.872
11619TIP3    H134734   6.775   8.479   2.788
11619TIP3    H234735   6.885   8.492   2.891
11620TIP3   OH234736   6.801   8.085   3.077
11620TIP3    H134737   6.835   8.065   2.987
11620TIP3    H234738   6.845   8.170   3.098
11621TIP3   OH234739   7.325   8.721   2.853
11621TIP3    H134740   7.313   8.801   2.907
11621TIP3    H234741   7.313   8.649   2.918
11622TIP3   OH234742   6.939   8.642   3.400
11622TIP3    H134743   6.880   8.705   3.447
11622TIP3    H234744   6.873   8.588   3.352
11623TIP3   OH234745   7.276   7.972   2.133
11623TIP3    H134746   7.334   8.031   2.186
11623TIP3    H234747   7.301   7.998   2.041
11624TIP3   OH234748   6.694   8.199   3.501
11624TIP3    H134749   6.697   8.286   3.547
11624TIP3    H234750   6.598   8.181   3.504
11625TIP3   OH234751   7.015   8.655   2.408
11625TIP3    H134752   7.093   8.709   2.428
11625TIP3    H234753   6.954   8.719   2.370
11626TIP3   OH234754   6.734   8.812   3.486
11626TIP3    H134755   6.700   8.808   3.394
11626TIP3    H234756   6.654   8.790   3.538
11627TIP3   OH234757   7.790   7.215   2.179
11627TIP3    H134758   7.709   7.234   2.231
11627TIP3    H234759   7.801   7.299   2.130
11628TIP3   OH234760   6.530   7.956   2.530
11628TIP3    H134761   6.467   8.002   2.471
11628TIP3    H234762   6.490   7.869   2.538
11629TIP3   OH234763   7.588   8.581   1.727
11629TIP3    H134764   7.590   8.677   1.707
11629TIP3    H234765   7.681   8.555   1.708
11630TIP3   OH234766   6.313   8.341   3.434
11630TIP3    H134767   6.250   8.317   3.363
11630TIP3    H234768   6.349   8.253   3.460
11631TIP3   OH234769   6.167   8.530   3.072
11631TIP3    H134770   6.262   8.525   3.057
11631TIP3    H234771   6.159   8.613   3.121
11632TIP3   OH234772   7.138   8.772   3.256
11632TIP3    H134773   7.138   8.865   3.289
11632TIP3    H234774   7.068   8.732   3.311
11633TIP3   OH234775   6.897   8.900   2.208
11633TIP3    H134776   6.850   8.880   2.125
11633TIP3    H234777   6.864   8.989   2.231
11634TIP3   OH234778   6.336   8.749   2.591
11634TIP3    H134779   6.384   8.739   2.676
11634TIP3    H234780   6.275   8.674   2.596
11635TIP3   OH234781   7.100   8.800   1.850
11635TIP3    H134782   7.158   8.730   1.814
11635TIP3    H234783   7.134   8.808   1.942
11636TIP3   OH234784   7.149   8.846   2.121
11636TIP3    H134785   7.061   8.856   2.164
11636TIP3    H234786   7.199   8.804   2.193
11637TIP3   OH234787   7.925   8.116   3.397
11637TIP3    H134788   7.845   8.132   3.345
11637TIP3    H234789   7.938   8.020   3.385
11638TIP3   OH234790   6.518   8.523   3.426
11638TIP3    H134791   6.569   8.505   3.507
11638TIP3    H234792   6.445   8.459   3.432
11639TIP3   OH234793   6.918   7.346   3.205
11639TIP3    H134794   6.828   7.316   3.181
11639TIP3    H234795   6.894   7.430   3.249
11640TIP3   OH234796   7.451   7.462   3.400
11640TIP3    H134797   7.518   7.436   3.466
11640TIP3    H234798   7.366   7.442   3.446
11641TIP3   OH234799   7.692   7.891   3.319
11641TIP3    H134800   7.644   7.887   3.404
11641TIP3    H234801   7.668   7.979   3.284
11642TIP3   OH234802   7.352   8.025   1.879
11642TIP3    H134803   7.320   7.993   1.792
11642TIP3    H234804   7.431   8.075   1.853
11643TIP3   OH234805   7.066   7.396   2.177
11643TIP3    H134806   7.031   7.394   2.269
11643TIP3    H234807   7.025   7.314   2.144
11644TIP3   OH234808   6.848   7.861   3.224
11644TIP3    H134809   6.800   7.884   3.306
11644TIP3    H234810   6.833   7.942   3.170
11645TIP3   OH234811   6.733   7.748   2.739
11645TIP3    H134812   6.640   7.722   2.755
11645TIP3    H234813   6.747   7.708   2.650
11646TIP3   OH234814   7.224   7.834   2.466
11646TIP3    H134815   7.169   7.906   2.425
11646TIP3    H234816   7.278   7.805   2.390
11647TIP3   OH234817   7.398   8.114   3.554
11647TIP3    H134818   7.376   8.041   3.616
11647TIP3    H234819   7.491   8.129   3.575
11648TIP3   OH234820   7.382   7.864   2.707
11648TIP3    H134821   7.323   7.895   2.635
11648TIP3    H234822   7.413   7.781   2.665
11649TIP3   OH234823   6.667   7.892   3.435
11649TIP3    H134824   6.700   7.954   3.502
11649TIP3    H234825   6.657   7.809   3.486
11650TIP3   OH234826   6.721   7.370   2.144
11650TIP3    H134827   6.710   7.365   2.241
11650TIP3    H234828   6.639   7.416   2.118
11651TIP3   OH234829   6.260   7.415   3.016
11651TIP3    H134830   6.338   7.445   3.067
11651TIP3    H234831   6.298   7.382   2.934
11652TIP3   OH234832   6.239   7.396   2.537
11652TIP3    H134833   6.282   7.433   2.457
11652TIP3    H234834   6.176   7.468   2.557
11653TIP3   OH234835   7.390   8.110   3.130
11653TIP3    H134836   7.423   8.038   3.072
11653TIP3    H234837   7.363   8.059   3.208
11654TIP3   OH234838   7.058   7.571   2.802
11654TIP3    H134839   6.976   7.568   2.854
11654TIP3    H234840   7.126   7.572   2.872
11655TIP3   OH234841   6.494   7.625   2.811
11655TIP3    H134842   6.400   7.631   2.783
11655TIP3    H234843   6.519   7.534   2.785
11656TIP3   OH234844   6.767   7.624   2.496
11656TIP3    H134845   6.861   7.638   2.474
11656TIP3    H234846   6.720   7.647   2.413
11657TIP3   OH234847   7.552   7.646   3.002
11657TIP3    H134848   7.517   7.657   3.093
11657TIP3    H234849   7.487   7.584   2.965
11658TIP3   OH234850   6.603   7.656   2.277
11658TIP3    H134851   6.531   7.610   2.229
11658TIP3    H234852   6.655   7.691   2.201
11659TIP3   OH234853   7.713   9.340   3.214
11659TIP3    H134854   7.716   9.359   3.118
11659TIP3    H234855   7.790   9.392   3.244
11660TIP3   OH234856   6.678   8.444   3.645
11660TIP3    H134857   6.760   8.474   3.690
11660TIP3    H234858   6.615   8.446   3.719
11661TIP3   OH234859   7.144   7.897   2.897
11661TIP3    H134860   7.217   7.858   2.846
11661TIP3    H234861   7.157   7.856   2.985
11662TIP3   OH234862   6.670   7.387   2.774
11662TIP3    H134863   6.637   7.306   2.818
11662TIP3    H234864   6.719   7.352   2.699
11663TIP3   OH234865   7.121   7.791   3.191
11663TIP3    H134866   7.032   7.830   3.203
11663TIP3    H234867   7.179   7.853   3.240
11664TIP3   OH234868   6.857   8.187   2.282
11664TIP3    H134869   6.785   8.121   2.272
11664TIP3    H234870   6.840   8.220   2.374
11665TIP3   OH234871   7.760   8.420   2.913
11665TIP3    H134872   7.784   8.470   2.831
11665TIP3    H234873   7.673   8.381   2.890
11666TIP3   OH234874   7.316   7.500   2.142
11666TIP3    H134875   7.220   7.483   2.151
11666TIP3    H234876   7.326   7.594   2.166
11667TIP3   OH234877   7.252   8.501   3.281
11667TIP3    H134878   7.281   8.481   3.371
11667TIP3    H234879   7.220   8.592   3.287
11668TIP3   OH234880   7.386   7.745   2.247
11668TIP3    H134881   7.482   7.751   2.263
11668TIP3    H234882   7.367   7.824   2.194
11669TIP3   OH234883   6.548   8.206   2.960
11669TIP3    H134884   6.586   8.180   2.874
11669TIP3    H234885   6.590   8.142   3.020
11670TIP3   OH234886   7.002   8.335   2.102
11670TIP3    H134887   6.956   8.422   2.110
11670TIP3    H234888   6.948   8.280   2.162
11671TIP3   OH234889   6.425   8.131   3.574
11671TIP3    H134890   6.453   8.115   3.666
11671TIP3    H234891   6.361   8.060   3.558
11672TIP3   OH234892   7.154   8.240   3.592
11672TIP3    H134893   7.098   8.183   3.538
11672TIP3    H234894   7.243   8.210   3.566
11673TIP3   OH234895   7.417   8.760   3.177
11673TIP3    H134896   7.320   8.763   3.189
11673TIP3    H234897   7.446   8.814   3.253
11674TIP3   OH234898   7.830   7.833   2.084
11674TIP3    H134899   7.766   7.788   2.023
11674TIP3    H234900   7.825   7.922   2.043
11675TIP3   OH234901   8.038   8.664   3.167
11675TIP3    H134902   7.943   8.687   3.162
11675TIP3    H234903   8.062   8.666   3.072
11676TIP3   OH234904   7.522   8.652   1.989
11676TIP3    H134905   7.504   8.582   2.054
11676TIP3    H234906   7.537   8.603   1.906
11677TIP3   OH234907   7.523   8.284   2.833
11677TIP3    H134908   7.430   8.258   2.846
11677TIP3    H234909   7.558   8.204   2.788
11678TIP3   OH234910   6.649   8.510   2.584
11678TIP3    H134911   6.652   8.592   2.531
11678TIP3    H234912   6.554   8.496   2.590
11679TIP3   OH234913   6.213   7.816   2.285
11679TIP3    H134914   6.259   7.900   2.306
11679TIP3    H234915   6.135   7.822   2.346
11680TIP3   OH234916   6.792   8.278   2.530
11680TIP3    H134917   6.756   8.368   2.547
11680TIP3    H234918   6.754   8.228   2.604
11681TIP3   OH234919   6.918   8.855   3.055
11681TIP3    H134920   6.959   8.927   3.003
11681TIP3    H234921   6.996   8.821   3.103
11682TIP3   OH234922   6.571   8.749   2.437
11682TIP3    H134923   6.484   8.757   2.482
11682TIP3    H234924   6.602   8.842   2.440
11683TIP3   OH234925   7.309   8.489   3.011
11683TIP3    H134926   7.300   8.487   3.109
11683TIP3    H234927   7.391   8.439   2.998
11684TIP3   OH234928   7.280   8.381   1.893
11684TIP3    H134929   7.333   8.357   1.973
11684TIP3    H234930   7.192   8.355   1.922
11685TIP3   OH234931   7.552   9.026   3.061
11685TIP3    H134932   7.474   8.968   3.049
11685TIP3    H234933   7.540   9.091   2.989
11686TIP3   OH234934   7.604   8.855   1.700
11686TIP3    H134935   7.651   8.926   1.652
11686TIP3    H234936   7.530   8.906   1.739
11687TIP3   OH234937   6.644   7.635   3.582
11687TIP3    H134938   6.547   7.638   3.596
11687TIP3    H234939   6.672   7.573   3.652
11688TIP3   OH234940   7.440   8.316   2.111
11688TIP3    H134941   7.430   8.249   2.182
11688TIP3    H234942   7.537   8.314   2.099
11689TIP3   OH234943   6.357   8.720   3.215
11689TIP3    H134944   6.408   8.642   3.241
11689TIP3    H234945   6.392   8.787   3.275
11690TIP3   OH234946   6.648   8.363   1.893
11690TIP3    H134947   6.663   8.272   1.863
11690TIP3    H234948   6.630   8.349   1.988
11691TIP3   OH234949   6.595   8.367   2.166
11691TIP3    H134950   6.665   8.340   2.226
11691TIP3    H234951   6.599   8.465   2.173
11692TIP3   OH234952   6.332   8.062   2.369
11692TIP3    H134953   6.265   8.107   2.426
11692TIP3    H234954   6.346   8.132   2.302
11693TIP3   OH234955   7.477   7.698   3.260
11693TIP3    H134956   7.556   7.737   3.300
11693TIP3    H234957   7.462   7.618   3.314
11694TIP3   OH234958   7.357   7.451   2.423
11694TIP3    H134959   7.342   7.475   2.330
11694TIP3    H234960   7.396   7.534   2.460
11695TIP3   OH234961   6.859   8.566   2.116
11695TIP3    H134962   6.772   8.595   2.150
11695TIP3    H234963   6.876   8.635   2.050
11696TIP3   OH234964   7.050   7.627   2.527
11696TIP3    H134965   7.115   7.699   2.509
11696TIP3    H234966   7.054   7.622   2.625
11697TIP3   OH234967   7.316   7.948   3.338
11697TIP3    H134968   7.335   8.003   3.417
11697TIP3    H234969   7.373   7.871   3.353
11698TIP3   OH234970   7.195   7.359   2.633
11698TIP3    H134971   7.186   7.436   2.691
11698TIP3    H234972   7.254   7.396   2.563
11699TIP3   OH234973   6.601   8.641   2.181
11699TIP3    H134974   6.571   8.710   2.118
11699TIP3    H234975   6.585   8.685   2.267
11700TIP3   OH234976   6.703   7.352   2.421
11700TIP3    H134977   6.701   7.444   2.455
11700TIP3    H234978   6.799   7.334   2.429
11701TIP3   OH234979   7.959   7.848   3.316
11701TIP3    H134980   7.861   7.846   3.324
11701TIP3    H234981   7.970   7.810   3.227
11702TIP3   OH234982   7.609   8.043   2.705
11702TIP3    H134983   7.533   7.983   2.717
11702TIP3    H234984   7.681   7.996   2.753
11703TIP3   OH234985   6.320   8.274   2.176
11703TIP3    H134986   6.384   8.347   2.184
11703TIP3    H234987   6.366   8.220   2.108
11704TIP3   OH234988   6.266   7.547   2.313
11704TIP3    H134989   6.262   7.644   2.303
11704TIP3    H234990   6.192   7.518   2.259
11705TIP3   OH234991   7.556   8.990   2.656
11705TIP3    H134992   7.516   9.039   2.581
11705TIP3    H234993   7.651   9.007   2.636
11706TIP3   OH234994   6.652   7.267   3.184
11706TIP3    H134995   6.621   7.234   3.097
11706TIP3    H234996   6.642   7.188   3.240
11707TIP3   OH234997   6.195   8.487   2.567
11707TIP3    H134998   6.116   8.518   2.614
11707TIP3    H234999   6.178   8.524   2.478
11708TIP3   OH235000   6.347   9.023   3.636
11708TIP3    H135001   6.434   9.022   3.681
11708TIP3    H235002   6.328   8.928   3.631
11709TIP3   OH235003   6.831   8.994   3.678
11709TIP3    H135004   6.925   8.974   3.687
11709TIP3    H235005   6.808   8.936   3.603
11710TIP3   OH235006   6.814   8.567   1.810
11710TIP3    H135007   6.755   8.497   1.847
11710TIP3    H235008   6.887   8.511   1.778
11711TIP3   OH235009   7.467   8.898   3.412
11711TIP3    H135010   7.462   8.828   3.480
11711TIP3    H235011   7.548   8.947   3.439
11712TIP3   OH235012   7.249   8.610   1.718
11712TIP3    H135013   7.292   8.545   1.777
11712TIP3    H235014   7.306   8.609   1.639
11713TIP3   OH235015   6.478   8.428   3.836
11713TIP3    H135016   6.497   8.333   3.832
11713TIP3    H235017   6.391   8.432   3.790
11714TIP3   OH235018   6.455   8.086   2.027
11714TIP3    H135019   6.509   8.049   2.098
11714TIP3    H235020   6.522   8.090   1.955
11715TIP3   OH235021   7.084   8.515   3.609
11715TIP3    H135022   7.047   8.530   3.520
11715TIP3    H235023   7.119   8.423   3.602
11716TIP3   OH235024   6.963   8.284   1.831
11716TIP3    H135025   6.966   8.297   1.928
11716TIP3    H235026   6.961   8.186   1.826
11717TIP3   OH235027   7.577   8.522   3.212
11717TIP3    H135028   7.652   8.567   3.169
11717TIP3    H235029   7.508   8.590   3.201
11718TIP3   OH235030   6.597   8.162   3.812
11718TIP3    H135031   6.673   8.107   3.790
11718TIP3    H235032   6.624   8.196   3.900
11719TIP3   OH235033   6.667   7.986   2.251
11719TIP3    H135034   6.639   7.942   2.333
11719TIP3    H235035   6.701   7.911   2.198
11720TIP3   OH235036   6.930   8.048   3.475
11720TIP3    H135037   6.856   8.112   3.481
11720TIP3    H235038   6.980   8.082   3.397
11721TIP3   OH235039   6.763   7.780   2.091
11721TIP3    H135040   6.736   7.779   1.997
11721TIP3    H235041   6.861   7.786   2.082
11722TIP3   OH235042   7.448   8.452   3.612
11722TIP3    H135043   7.531   8.435   3.565
11722TIP3    H235044   7.450   8.385   3.682
11723TIP3   OH235045   7.588   8.113   1.750
11723TIP3    H135046   7.565   8.065   1.668
11723TIP3    H235047   7.556   8.203   1.725
11724TIP3   OH235048   7.054   7.838   3.606
11724TIP3    H135049   7.056   7.758   3.551
11724TIP3    H235050   7.012   7.903   3.546
11725TIP3   OH235051   7.059   7.624   3.411
11725TIP3    H135052   7.086   7.666   3.327
11725TIP3    H235053   6.965   7.601   3.392
11726TIP3   OH235054   7.088   8.161   3.283
11726TIP3    H135055   7.171   8.168   3.234
11726TIP3    H235056   7.033   8.230   3.241
11727TIP3   OH235057   7.670   8.130   3.667
11727TIP3    H135058   7.720   8.047   3.676
11727TIP3    H235059   7.737   8.191   3.633
11728TIP3   OH235060   7.706   8.379   3.402
11728TIP3    H135061   7.649   8.433   3.342
11728TIP3    H235062   7.794   8.398   3.362
11729TIP3   OH235063   6.929   7.956   3.832
11729TIP3    H135064   6.863   7.884   3.846
11729TIP3    H235065   6.969   7.928   3.747
11730TIP3   OH235066   7.191   7.390   3.476
11730TIP3    H135067   7.143   7.472   3.454
11730TIP3    H235068   7.121   7.323   3.464
11731TIP3   OH235069   7.317   7.896   3.694
11731TIP3    H135070   7.309   7.885   3.790
11731TIP3    H235071   7.227   7.870   3.667
11732TIP3   OH235072   7.557   7.842   3.548
11732TIP3    H135073   7.481   7.845   3.609
11732TIP3    H235074   7.629   7.812   3.606
11733TIP3   OH235075   7.787   7.783   3.701
11733TIP3    H135076   7.797   7.688   3.721
11733TIP3    H235077   7.781   7.824   3.790
11734TIP3   OH235078   6.772   7.734   3.886
11734TIP3    H135079   6.783   7.644   3.850
11734TIP3    H235080   6.809   7.721   3.976
11735TIP3   OH235081   7.286   7.399   3.734
11735TIP3    H135082   7.354   7.329   3.729
11735TIP3    H235083   7.246   7.392   3.644
11736TIP3   OH235084   7.351   7.614   3.894
11736TIP3    H135085   7.327   7.543   3.829
11736TIP3    H235086   7.274   7.674   3.888
11737TIP3   OH235087   6.571   8.844   1.994
11737TIP3    H135088   6.666   8.842   1.973
11737TIP3    H235089   6.538   8.890   1.915
11738TIP3   OH235090   6.052   8.223   2.213
11738TIP3    H135091   6.146   8.246   2.198
11738TIP3    H235092   6.046   8.135   2.170
11739TIP3   OH235093   5.964   8.837   2.623
11739TIP3    H135094   5.896   8.775   2.588
11739TIP3    H235095   6.009   8.781   2.690
11740TIP3   OH235096   6.101   8.692   2.810
11740TIP3    H135097   6.091   8.616   2.868
11740TIP3    H235098   6.153   8.752   2.867
11741TIP3   OH235099   7.803   9.089   2.605
11741TIP3    H135100   7.834   9.113   2.694
11741TIP3    H235101   7.853   9.151   2.551
11742TIP3   OH235102   7.857   9.110   2.885
11742TIP3    H135103   7.821   9.019   2.893
11742TIP3    H235104   7.932   9.105   2.945
11743TIP3   OH235105   7.893   8.769   3.467
11743TIP3    H135106   7.821   8.783   3.531
11743TIP3    H235107   7.920   8.861   3.450
11744TIP3   OH235108   7.721   8.300   2.086
11744TIP3    H135109   7.792   8.361   2.059
11744TIP3    H235110   7.762   8.259   2.165
11745TIP3   OH235111   7.848   8.167   2.288
11745TIP3    H135112   7.783   8.124   2.348
11745TIP3    H235113   7.913   8.206   2.350
11746TIP3   OH235114   7.903   8.559   2.723
11746TIP3    H135115   7.955   8.496   2.670
11746TIP3    H235116   7.891   8.633   2.660
11747TIP3   OH235117   7.736   8.860   2.914
11747TIP3    H135118   7.668   8.899   2.972
11747TIP3    H235119   7.682   8.810   2.848
11748TIP3   OH235120   7.787   8.073   1.937
11748TIP3    H135121   7.715   8.078   1.870
11748TIP3    H235122   7.761   8.150   1.992
11749TIP3   OH235123   7.659   7.746   1.891
11749TIP3    H135124   7.616   7.788   1.816
11749TIP3    H235125   7.632   7.653   1.880
11750TIP3   OH235126   7.664   8.022   2.436
11750TIP3    H135127   7.671   7.925   2.432
11750TIP3    H235128   7.650   8.037   2.532
11751TIP3   OH235129   6.290   8.096   3.182
11751TIP3    H135130   6.289   8.067   3.089
11751TIP3    H235131   6.387   8.099   3.199
11752TIP3   OH235132   7.946   8.439   3.293
11752TIP3    H135133   8.023   8.379   3.283
11752TIP3    H235134   7.972   8.515   3.237
11753TIP3   OH235135   8.141   8.255   3.310
11753TIP3    H135136   8.066   8.206   3.351
11753TIP3    H235137   8.213   8.190   3.324
11754TIP3   OH235138   7.603   7.480   1.876
11754TIP3    H135139   7.677   7.451   1.933
11754TIP3    H235140   7.529   7.423   1.904
11755TIP3   OH235141   7.659   7.738   2.333
11755TIP3    H135142   7.699   7.649   2.348
11755TIP3    H235143   7.718   7.771   2.263
11756TIP3   OH235144   7.822   7.915   2.826
11756TIP3    H135145   7.908   7.941   2.787
11756TIP3    H235146   7.834   7.951   2.916
11757TIP3   OH235147   7.888   8.057   3.059
11757TIP3    H135148   7.810   8.091   3.108
11757TIP3    H235149   7.921   8.138   3.015
11758TIP3   OH235150   6.505   7.785   3.857
11758TIP3    H135151   6.603   7.778   3.857
11758TIP3    H235152   6.482   7.700   3.899
11759TIP3   OH235153   8.344   7.647   3.617
11759TIP3    H135154   8.400   7.579   3.572
11759TIP3    H235155   8.315   7.702   3.541
11760TIP3   OH235156   7.769   7.488   2.369
11760TIP3    H135157   7.817   7.472   2.453
11760TIP3    H235158   7.708   7.411   2.368
11761TIP3   OH235159   6.468   7.475   3.192
11761TIP3    H135160   6.530   7.400   3.200
11761TIP3    H235161   6.530   7.550   3.184
11762TIP3   OH235162   6.272   7.750   3.262
11762TIP3    H135163   6.320   7.740   3.178
11762TIP3    H235164   6.303   7.837   3.290
11763TIP3   OH235165   8.214   7.788   3.425
11763TIP3    H135166   8.126   7.827   3.445
11763TIP3    H235167   8.187   7.718   3.363
11764TIP3   OH235168   7.851   7.426   2.000
11764TIP3    H135169   7.892   7.352   1.951
11764TIP3    H235170   7.918   7.496   1.993
11765TIP3   OH235171   6.254   7.258   2.767
11765TIP3    H135172   6.159   7.253   2.785
11765TIP3    H235173   6.256   7.312   2.685
11766TIP3   OH235174   7.412   8.958   2.269
11766TIP3    H135175   7.461   8.937   2.186
11766TIP3    H235176   7.474   9.018   2.313
11767TIP3   OH235177   6.474   7.334   3.578
11767TIP3    H135178   6.423   7.327   3.661
11767TIP3    H235179   6.407   7.371   3.517
11768TIP3   OH235180   6.514   8.759   3.653
11768TIP3    H135181   6.423   8.729   3.637
11768TIP3    H235182   6.525   8.743   3.748
11769TIP3   OH235183   6.691   8.790   3.202
11769TIP3    H135184   6.643   8.866   3.162
11769TIP3    H235185   6.777   8.803   3.158
11770TIP3   OH235186   7.139   9.039   3.340
11770TIP3    H135187   7.182   9.038   3.428
11770TIP3    H235188   7.207   9.087   3.287
11771TIP3   OH235189   7.319   9.187   3.195
11771TIP3    H135190   7.391   9.135   3.156
11771TIP3    H235191   7.370   9.244   3.257
11772TIP3   OH235192   8.111   7.551   3.298
11772TIP3    H135193   8.020   7.547   3.264
11772TIP3    H235194   8.140   7.458   3.285
11773TIP3   OH235195   6.370   9.048   3.224
11773TIP3    H135196   6.281   9.083   3.199
11773TIP3    H235197   6.376   9.081   3.314
11774TIP3   OH235198   6.606   9.027   3.081
11774TIP3    H135199   6.520   9.040   3.127
11774TIP3    H235200   6.586   9.061   2.992
11775TIP3   OH235201   7.031   9.059   2.879
11775TIP3    H135202   6.962   9.079   2.814
11775TIP3    H235203   7.044   9.146   2.922
11776TIP3   OH235204   7.299   8.996   2.930
11776TIP3    H135205   7.204   9.013   2.910
11776TIP3    H235206   7.342   9.072   2.889
11777TIP3   OH235207   7.505   9.192   2.846
11777TIP3    H135208   7.497   9.276   2.797
11777TIP3    H235209   7.529   9.129   2.774
11778TIP3   OH235210   6.280   8.842   2.970
11778TIP3    H135211   6.307   8.818   3.062
11778TIP3    H235212   6.352   8.799   2.920
11779TIP3   OH235213   6.473   8.714   2.826
11779TIP3    H135214   6.490   8.630   2.873
11779TIP3    H235215   6.563   8.752   2.820
11780TIP3   OH235216   6.738   8.810   2.827
11780TIP3    H135217   6.771   8.719   2.814
11780TIP3    H235218   6.781   8.831   2.912
11781TIP3   OH235219   7.316   7.466   2.916
11781TIP3    H135220   7.272   7.397   2.969
11781TIP3    H235221   7.386   7.417   2.870
11782TIP3   OH235222   7.841   7.345   2.824
11782TIP3    H135223   7.878   7.397   2.749
11782TIP3    H235224   7.746   7.363   2.816
11783TIP3   OH235225   7.935   7.447   2.587
11783TIP3    H135226   8.008   7.395   2.546
11783TIP3    H235227   7.968   7.538   2.572
11784TIP3   OH235228   6.565   7.175   2.936
11784TIP3    H135229   6.473   7.142   2.933
11784TIP3    H235230   6.614   7.090   2.931
11785TIP3   OH235231   6.354   7.043   2.581
11785TIP3    H135232   6.383   7.099   2.507
11785TIP3    H235233   6.322   7.109   2.645
11786TIP3   OH235234   7.007   7.208   2.813
11786TIP3    H135235   7.066   7.258   2.755
11786TIP3    H235236   7.027   7.244   2.900
11787TIP3   OH235237   7.559   7.353   2.798
11787TIP3    H135238   7.552   7.319   2.708
11787TIP3    H235239   7.542   7.271   2.851
11788TIP3   OH235240   7.585   7.274   2.359
11788TIP3    H135241   7.498   7.316   2.368
11788TIP3    H235242   7.570   7.190   2.407
11789TIP3   OH235243   6.068   8.613   2.364
11789TIP3    H135244   5.984   8.580   2.327
11789TIP3    H235245   6.056   8.707   2.346
11790TIP3   OH235246   6.466   7.200   2.349
11790TIP3    H135247   6.514   7.139   2.289
11790TIP3    H235248   6.540   7.255   2.383
11791TIP3   OH235249   6.981   7.377   2.444
11791TIP3    H135250   7.040   7.330   2.504
11791TIP3    H235251   7.003   7.470   2.469
11792TIP3   OH235252   6.840   8.806   1.942
11792TIP3    H135253   6.929   8.826   1.906
11792TIP3    H235254   6.818   8.730   1.884
11793TIP3   OH235255   7.550   8.916   2.035
11793TIP3    H135256   7.544   8.819   2.021
11793TIP3    H235257   7.512   8.950   1.952
11794TIP3   OH235258   6.772   7.455   3.824
11794TIP3    H135259   6.740   7.384   3.882
11794TIP3    H235260   6.867   7.457   3.849
11795TIP3   OH235261   7.020   7.451   3.941
11795TIP3    H135262   7.106   7.428   3.903
11795TIP3    H235263   7.010   7.381   4.009
11796TIP3   OH235264   6.145   8.642   2.001
11796TIP3    H135265   6.144   8.670   2.094
11796TIP3    H235266   6.234   8.601   1.992
11797TIP3   OH235267   7.844   7.511   3.732
11797TIP3    H135268   7.866   7.481   3.822
11797TIP3    H235269   7.932   7.508   3.688
11798TIP3   OH235270   7.773   9.070   3.227
11798TIP3    H135271   7.697   9.039   3.174
11798TIP3    H235272   7.762   9.166   3.222
11799TIP3   OH235273   8.352   8.327   2.732
11799TIP3    H135274   8.383   8.267   2.802
11799TIP3    H235275   8.417   8.398   2.737
11800TIP3   OH235276   8.292   8.719   2.483
11800TIP3    H135277   8.311   8.624   2.468
11800TIP3    H235278   8.380   8.758   2.479
11801TIP3   OH235279   8.028   7.948   2.249
11801TIP3    H135280   7.979   8.031   2.261
11801TIP3    H235281   7.957   7.892   2.212
11802TIP3   OH235282   8.090   8.235   2.414
11802TIP3    H135283   8.137   8.158   2.452
11802TIP3    H235284   8.149   8.261   2.342
11803TIP3   OH235285   8.593   7.825   2.420
11803TIP3    H135286   8.577   7.897   2.355
11803TIP3    H235287   8.548   7.751   2.374
11804TIP3   OH235288   8.233   8.028   2.524
11804TIP3    H135289   8.316   8.005   2.571
11804TIP3    H235290   8.244   7.972   2.444
11805TIP3   OH235291   8.669   8.233   2.320
11805TIP3    H135292   8.765   8.213   2.307
11805TIP3    H235293   8.629   8.150   2.286
11806TIP3   OH235294   8.594   7.807   2.851
11806TIP3    H135295   8.532   7.842   2.784
11806TIP3    H235296   8.543   7.824   2.933
11807TIP3   OH235297   8.466   7.925   2.637
11807TIP3    H135298   8.532   7.994   2.657
11807TIP3    H235299   8.511   7.880   2.561
11808TIP3   OH235300   7.927   8.460   1.978
11808TIP3    H135301   7.874   8.496   1.905
11808TIP3    H235302   7.948   8.543   2.028
11809TIP3   OH235303   8.947   7.517   2.568
11809TIP3    H135304   8.938   7.422   2.591
11809TIP3    H235305   8.870   7.554   2.616
11810TIP3   OH235306   8.429   8.336   2.225
11810TIP3    H135307   8.402   8.304   2.137
11810TIP3    H235308   8.524   8.316   2.224
11811TIP3   OH235309   8.605   8.353   2.559
11811TIP3    H135310   8.608   8.314   2.469
11811TIP3    H235311   8.595   8.447   2.538
11812TIP3   OH235312   8.487   8.458   2.980
11812TIP3    H135313   8.496   8.538   3.037
11812TIP3    H235314   8.392   8.436   2.997
11813TIP3   OH235315   8.332   8.210   1.996
11813TIP3    H135316   8.262   8.256   1.945
11813TIP3    H235317   8.286   8.130   2.024
11814TIP3   OH235318   8.125   8.606   2.908
11814TIP3    H135319   8.052   8.580   2.848
11814TIP3    H235320   8.152   8.520   2.946
11815TIP3   OH235321   7.966   8.787   2.554
11815TIP3    H135322   8.060   8.775   2.533
11815TIP3    H235323   7.967   8.862   2.614
11816TIP3   OH235324   8.326   8.789   2.934
11816TIP3    H135325   8.381   8.738   2.999
11816TIP3    H235326   8.261   8.719   2.911
11817TIP3   OH235327   8.712   7.602   2.692
11817TIP3    H135328   8.621   7.573   2.669
11817TIP3    H235329   8.691   7.686   2.736
11818TIP3   OH235330   9.246   7.710   2.877
11818TIP3    H135331   9.318   7.697   2.942
11818TIP3    H235332   9.166   7.701   2.932
11819TIP3   OH235333   8.847   7.641   1.664
11819TIP3    H135334   8.815   7.648   1.756
11819TIP3    H235335   8.803   7.558   1.636
11820TIP3   OH235336   8.643   8.128   2.714
11820TIP3    H135337   8.582   8.136   2.790
11820TIP3    H235338   8.620   8.206   2.660
11821TIP3   OH235339   8.531   8.007   2.228
11821TIP3    H135340   8.438   7.981   2.241
11821TIP3    H235341   8.547   7.969   2.139
11822TIP3   OH235342   8.472   8.150   2.926
11822TIP3    H135343   8.473   8.210   3.002
11822TIP3    H235344   8.457   8.064   2.970
11823TIP3   OH235345   8.504   7.616   1.635
11823TIP3    H135346   8.502   7.616   1.733
11823TIP3    H235347   8.428   7.674   1.615
11824TIP3   OH235348   8.057   7.671   2.501
11824TIP3    H135349   8.133   7.702   2.554
11824TIP3    H235350   8.098   7.637   2.420
11825TIP3   OH235351   8.034   7.652   2.020
11825TIP3    H135352   8.080   7.692   1.943
11825TIP3    H235353   7.973   7.724   2.043
11826TIP3   OH235354   8.844   7.831   2.287
11826TIP3    H135355   8.767   7.827   2.347
11826TIP3    H235356   8.918   7.816   2.350
11827TIP3   OH235357   8.291   7.882   2.297
11827TIP3    H135358   8.197   7.888   2.270
11827TIP3    H235359   8.316   7.791   2.273
11828TIP3   OH235360   8.562   7.876   1.985
11828TIP3    H135361   8.655   7.902   1.969
11828TIP3    H235362   8.517   7.901   1.902
11829TIP3   OH235363   8.398   7.899   1.764
11829TIP3    H135364   8.318   7.858   1.726
11829TIP3    H235365   8.425   7.955   1.690
11830TIP3   OH235366   8.482   8.702   3.140
11830TIP3    H135367   8.549   8.731   3.203
11830TIP3    H235368   8.406   8.694   3.202
11831TIP3   OH235369   8.464   7.644   2.261
11831TIP3    H135370   8.433   7.562   2.306
11831TIP3    H235371   8.518   7.609   2.189
11832TIP3   OH235372   8.912   8.030   2.689
11832TIP3    H135373   8.828   8.079   2.683
11832TIP3    H235374   8.978   8.100   2.704
11833TIP3   OH235375   8.352   8.453   2.454
11833TIP3    H135376   8.374   8.417   2.365
11833TIP3    H235377   8.368   8.377   2.511
11834TIP3   OH235378   8.228   8.385   3.055
11834TIP3    H135379   8.245   8.369   3.150
11834TIP3    H235380   8.154   8.323   3.039
11835TIP3   OH235381   8.008   8.073   1.772
11835TIP3    H135382   8.055   8.157   1.790
11835TIP3    H235383   7.932   8.080   1.833
11836TIP3   OH235384   8.438   7.892   3.067
11836TIP3    H135385   8.342   7.895   3.084
11836TIP3    H235386   8.468   7.831   3.137
11837TIP3   OH235387   8.113   8.954   2.755
11837TIP3    H135388   8.138   8.870   2.795
11837TIP3    H235389   8.143   9.019   2.823
11838TIP3   OH235390   8.129   8.320   1.848
11838TIP3    H135391   8.067   8.373   1.903
11838TIP3    H235392   8.192   8.387   1.816
11839TIP3   OH235393   8.845   7.876   2.017
11839TIP3    H135394   8.923   7.930   1.999
11839TIP3    H235395   8.844   7.876   2.115
11840TIP3   OH235396   8.985   7.623   2.127
11840TIP3    H135397   8.957   7.691   2.192
11840TIP3    H235398   9.050   7.676   2.078
11841TIP3   OH235399   8.499   7.609   1.910
11841TIP3    H135400   8.499   7.701   1.943
11841TIP3    H235401   8.595   7.590   1.919
11842TIP3   OH235402   8.065   7.804   1.793
11842TIP3    H135403   8.062   7.902   1.789
11842TIP3    H235404   7.978   7.780   1.758
11843TIP3   OH235405   8.447   7.524   2.671
11843TIP3    H135406   8.417   7.490   2.584
11843TIP3    H235407   8.439   7.445   2.728
11844TIP3   OH235408   7.959   8.715   2.069
11844TIP3    H135409   7.891   8.778   2.099
11844TIP3    H235410   7.979   8.750   1.981
11845TIP3   OH235411   8.270   8.663   3.303
11845TIP3    H135412   8.278   8.566   3.311
11845TIP3    H235413   8.178   8.673   3.269
11846TIP3   OH235414   8.401   8.410   3.300
11846TIP3    H135415   8.476   8.349   3.296
11846TIP3    H235416   8.418   8.455   3.386
11847TIP3   OH235417   8.434   8.199   1.707
11847TIP3    H135418   8.417   8.191   1.802
11847TIP3    H235419   8.515   8.146   1.694
11848TIP3   OH235420   8.738   8.328   2.944
11848TIP3    H135421   8.657   8.373   2.975
11848TIP3    H235422   8.711   8.290   2.860
11849TIP3   OH235423   8.837   8.089   3.094
11849TIP3    H135424   8.846   8.008   3.040
11849TIP3    H235425   8.815   8.156   3.027
11850TIP3   OH235426   8.850   7.878   2.906
11850TIP3    H135427   8.881   7.919   2.822
11850TIP3    H235428   8.758   7.854   2.883
11851TIP3   OH235429   8.721   8.213   3.313
11851TIP3    H135430   8.657   8.142   3.332
11851TIP3    H235431   8.763   8.180   3.231
11852TIP3   OH235432   8.985   7.645   2.966
11852TIP3    H135433   8.938   7.728   2.944
11852TIP3    H235434   8.916   7.578   2.953
11853TIP3   OH235435   9.071   8.209   3.208
11853TIP3    H135436   9.079   8.159   3.290
11853TIP3    H235437   9.000   8.160   3.163
11854TIP3   OH235438   8.570   7.991   3.373
11854TIP3    H135439   8.579   7.902   3.335
11854TIP3    H235440   8.605   7.976   3.463
11855TIP3   OH235441   9.079   7.653   3.222
11855TIP3    H135442   9.151   7.586   3.217
11855TIP3    H235443   9.043   7.647   3.131
11856TIP3   OH235444   9.138   7.864   3.385
11856TIP3    H135445   9.122   7.795   3.316
11856TIP3    H235446   9.060   7.921   3.374
11857TIP3   OH235447   7.846   8.482   1.685
11857TIP3    H135448   7.941   8.499   1.694
11857TIP3    H235449   7.844   8.389   1.652
11858TIP3   OH235450   7.742   9.093   2.116
11858TIP3    H135451   7.684   9.022   2.081
11858TIP3    H235452   7.804   9.041   2.172
11859TIP3   OH235453   7.889   8.940   2.291
11859TIP3    H135454   7.889   8.866   2.354
11859TIP3    H235455   7.931   9.009   2.343
11860TIP3   OH235456   8.085   8.351   2.668
11860TIP3    H135457   8.082   8.323   2.574
11860TIP3    H235458   8.182   8.352   2.684
11861TIP3   OH235459   8.302   8.039   3.342
11861TIP3    H135460   8.400   8.033   3.345
11861TIP3    H235461   8.278   7.955   3.386
11862TIP3   OH235462   8.264   7.732   2.675
11862TIP3    H135463   8.326   7.657   2.686
11862TIP3    H235464   8.326   7.806   2.670
11863TIP3   OH235465   8.069   8.006   2.749
11863TIP3    H135466   8.117   7.998   2.665
11863TIP3    H235467   8.095   8.095   2.777
11864TIP3   OH235468   8.050   7.510   2.249
11864TIP3    H135469   7.956   7.508   2.275
11864TIP3    H235470   8.049   7.568   2.170
11865TIP3   OH235471   8.270   7.591   3.065
11865TIP3    H135472   8.220   7.584   3.147
11865TIP3    H235473   8.202   7.627   3.005
11866TIP3   OH235474   9.055   7.719   2.410
11866TIP3    H135475   9.034   7.645   2.470
11866TIP3    H235476   9.134   7.689   2.363
11867TIP3   OH235477   8.362   7.431   2.421
11867TIP3    H135478   8.270   7.397   2.421
11867TIP3    H235479   8.412   7.346   2.418
11868TIP3   OH235480   8.145   7.300   2.066
11868TIP3    H135481   8.176   7.359   1.995
11868TIP3    H235482   8.116   7.363   2.134
11869TIP3   OH235483   8.801   7.465   2.301
11869TIP3    H135484   8.863   7.515   2.247
11869TIP3    H235485   8.823   7.496   2.390
11870TIP3   OH235486   9.423   7.500   2.231
11870TIP3    H135487   9.380   7.584   2.210
11870TIP3    H235488   9.368   7.467   2.305
11871TIP3   OH235489   7.832   8.861   1.859
11871TIP3    H135490   7.759   8.809   1.820
11871TIP3    H235491   7.810   8.948   1.820
11872TIP3   OH235492   8.263   7.462   1.831
11872TIP3    H135493   8.315   7.400   1.776
11872TIP3    H235494   8.334   7.517   1.870
11873TIP3   OH235495   8.774   7.629   1.933
11873TIP3    H135496   8.835   7.586   1.995
11873TIP3    H235497   8.792   7.723   1.956
11874TIP3   OH235498   8.569   7.713   3.311
11874TIP3    H135499   8.537   7.642   3.369
11874TIP3    H235500   8.664   7.714   3.336
11875TIP3   OH235501   8.817   7.710   3.430
11875TIP3    H135502   8.902   7.686   3.387
11875TIP3    H235503   8.808   7.637   3.495
11876TIP3   OH235504   9.587   7.749   3.238
11876TIP3    H135505   9.640   7.751   3.319
11876TIP3    H235506   9.654   7.770   3.170
11877TIP3   OH235507   0.545   8.534   4.624
11877TIP3    H135508   0.499   8.616   4.646
11877TIP3    H235509   0.547   8.541   4.527
11878TIP3   OH235510   0.801   8.439   5.314
11878TIP3    H135511   0.851   8.369   5.267
11878TIP3    H235512   0.763   8.489   5.239
11879TIP3   OH235513   0.664   8.573   5.113
11879TIP3    H135514   0.574   8.604   5.126
11879TIP3    H235515   0.649   8.495   5.056
11880TIP3   OH235516   0.296   8.225   3.683
11880TIP3    H135517   0.339   8.145   3.648
11880TIP3    H235518   0.368   8.290   3.683
11881TIP3   OH235519   0.568   8.345   4.981
11881TIP3    H135520   0.475   8.336   4.959
11881TIP3    H235521   0.598   8.252   4.977
11882TIP3   OH235522   0.375   8.224   4.240
11882TIP3    H135523   0.463   8.184   4.226
11882TIP3    H235524   0.399   8.316   4.259
11883TIP3   OH235525   0.460   8.735   3.928
11883TIP3    H135526   0.449   8.823   3.966
11883TIP3    H235527   0.411   8.680   3.991
11884TIP3   OH235528   2.312   8.770   4.104
11884TIP3    H135529   2.342   8.851   4.149
11884TIP3    H235530   2.335   8.790   4.012
11885TIP3   OH235531   1.714   8.964   4.142
11885TIP3    H135532   1.755   8.878   4.163
11885TIP3    H235533   1.677   8.944   4.053
11886TIP3   OH235534   1.051   8.612   4.107
11886TIP3    H135535   1.032   8.685   4.045
11886TIP3    H235536   1.002   8.539   4.063
11887TIP3   OH235537   1.744   8.699   3.732
11887TIP3    H135538   1.819   8.685   3.795
11887TIP3    H235539   1.793   8.738   3.657
11888TIP3   OH235540   0.674   8.798   4.216
11888TIP3    H135541   0.756   8.792   4.266
11888TIP3    H235542   0.700   8.759   4.131
11889TIP3   OH235543   1.140   9.017   3.991
11889TIP3    H135544   1.224   8.979   4.023
11889TIP3    H235545   1.089   8.939   3.964
11890TIP3   OH235546   2.396   8.968   4.280
11890TIP3    H135547   2.320   9.020   4.248
11890TIP3    H235548   2.407   9.005   4.369
11891TIP3   OH235549   1.050   8.598   4.541
11891TIP3    H135550   0.987   8.629   4.473
11891TIP3    H235551   0.998   8.612   4.622
11892TIP3   OH235552   1.958   8.705   3.899
11892TIP3    H135553   1.956   8.653   3.980
11892TIP3    H235554   2.010   8.783   3.925
11893TIP3   OH235555   0.917   8.705   4.326
11893TIP3    H135556   0.975   8.783   4.341
11893TIP3    H235557   0.965   8.663   4.252
11894TIP3   OH235558   2.106   8.673   4.272
11894TIP3    H135559   2.019   8.703   4.240
11894TIP3    H235560   2.166   8.705   4.201
11895TIP3   OH235561   1.408   8.316   4.255
11895TIP3    H135562   1.394   8.221   4.272
11895TIP3    H235563   1.329   8.354   4.301
11896TIP3   OH235564   1.305   8.827   3.264
11896TIP3    H135565   1.347   8.909   3.294
11896TIP3    H235566   1.363   8.801   3.190
11897TIP3   OH235567   1.942   9.190   4.372
11897TIP3    H135568   1.956   9.277   4.333
11897TIP3    H235569   1.851   9.169   4.340
11898TIP3   OH235570   2.038   8.260   3.355
11898TIP3    H135571   1.958   8.279   3.408
11898TIP3    H235572   2.050   8.344   3.307
11899TIP3   OH235573   2.166   9.161   4.565
11899TIP3    H135574   2.091   9.156   4.503
11899TIP3    H235575   2.192   9.067   4.571
11900TIP3   OH235576   1.168   8.393   4.380
11900TIP3    H135577   1.078   8.361   4.357
11900TIP3    H235578   1.143   8.476   4.426
11901TIP3   OH235579   1.699   8.511   4.578
11901TIP3    H135580   1.766   8.478   4.641
11901TIP3    H235581   1.614   8.486   4.621
11902TIP3   OH235582   1.941   8.920   4.499
11902TIP3    H135583   1.895   8.922   4.586
11902TIP3    H235584   1.917   9.005   4.459
11903TIP3   OH235585   1.315   8.438   3.352
11903TIP3    H135586   1.283   8.442   3.444
11903TIP3    H235587   1.275   8.354   3.323
11904TIP3   OH235588   1.093   8.912   4.378
11904TIP3    H135589   1.051   8.918   4.466
11904TIP3    H235590   1.065   8.994   4.336
11905TIP3   OH235591   0.983   8.791   3.916
11905TIP3    H135592   0.890   8.766   3.929
11905TIP3    H235593   0.998   8.755   3.826
11906TIP3   OH235594   1.484   8.880   3.645
11906TIP3    H135595   1.403   8.931   3.622
11906TIP3    H235596   1.524   8.864   3.557
11907TIP3   OH235597   1.680   9.151   4.736
11907TIP3    H135598   1.623   9.086   4.784
11907TIP3    H235599   1.762   9.097   4.736
11908TIP3   OH235600   1.624   8.899   3.886
11908TIP3    H135601   1.565   8.917   3.810
11908TIP3    H235602   1.665   8.818   3.849
11909TIP3   OH235603   0.905   8.929   4.622
11909TIP3    H135604   0.888   8.976   4.704
11909TIP3    H235605   0.886   8.837   4.651
11910TIP3   OH235606   0.964   8.410   3.323
11910TIP3    H135607   0.963   8.408   3.421
11910TIP3    H235608   0.888   8.467   3.305
11911TIP3   OH235609   0.516   8.469   4.164
11911TIP3    H135610   0.574   8.499   4.237
11911TIP3    H235611   0.575   8.408   4.118
11912TIP3   OH235612   0.482   8.453   3.717
11912TIP3    H135613   0.524   8.476   3.631
11912TIP3    H235614   0.454   8.541   3.745
11913TIP3   OH235615   1.679   9.150   4.339
11913TIP3    H135616   1.680   9.091   4.260
11913TIP3    H235617   1.609   9.103   4.390
11914TIP3   OH235618   1.307   8.609   3.978
11914TIP3    H135619   1.223   8.612   4.027
11914TIP3    H235620   1.371   8.623   4.049
11915TIP3   OH235621   0.741   8.673   3.976
11915TIP3    H135622   0.647   8.666   3.952
11915TIP3    H235623   0.774   8.582   3.964
11916TIP3   OH235624   1.020   8.666   3.672
11916TIP3    H135625   1.111   8.690   3.649
11916TIP3    H235626   0.968   8.695   3.594
11917TIP3   OH235627   1.796   8.695   4.183
11917TIP3    H135628   1.756   8.702   4.272
11917TIP3    H235629   1.737   8.630   4.141
11918TIP3   OH235630   0.838   8.677   3.456
11918TIP3    H135631   0.776   8.652   3.385
11918TIP3    H235632   0.898   8.738   3.408
11919TIP3   OH235633   1.388   8.923   4.069
11919TIP3    H135634   1.470   8.900   4.023
11919TIP3    H235635   1.409   8.906   4.163
11920TIP3   OH235636   0.913   8.433   3.952
11920TIP3    H135637   0.883   8.351   3.997
11920TIP3    H235638   0.969   8.399   3.881
11921TIP3   OH235639   1.366   8.828   4.370
11921TIP3    H135640   1.278   8.869   4.362
11921TIP3    H235641   1.419   8.898   4.415
11922TIP3   OH235642   1.562   8.554   3.316
11922TIP3    H135643   1.466   8.535   3.328
11922TIP3    H235644   1.569   8.649   3.340
11923TIP3   OH235645   1.635   8.809   3.408
11923TIP3    H135646   1.727   8.797   3.439
11923TIP3    H235647   1.640   8.895   3.363
11924TIP3   OH235648   1.380   9.224   4.844
11924TIP3    H135649   1.328   9.281   4.784
11924TIP3    H235650   1.404   9.153   4.783
11925TIP3   OH235651   2.073   8.870   3.269
11925TIP3    H135652   2.009   8.831   3.204
11925TIP3    H235653   2.086   8.956   3.226
11926TIP3   OH235654   0.897   8.675   4.764
11926TIP3    H135655   0.803   8.680   4.786
11926TIP3    H235656   0.928   8.608   4.828
11927TIP3   OH235657   1.717   8.753   4.448
11927TIP3    H135658   1.808   8.776   4.471
11927TIP3    H235659   1.705   8.666   4.493
11928TIP3   OH235660   1.608   8.495   3.598
11928TIP3    H135661   1.592   8.522   3.506
11928TIP3    H235662   1.646   8.576   3.638
11929TIP3   OH235663   1.305   8.670   3.705
11929TIP3    H135664   1.370   8.741   3.689
11929TIP3    H235665   1.303   8.666   3.802
11930TIP3   OH235666   1.553   8.983   4.513
11930TIP3    H135667   1.592   9.030   4.588
11930TIP3    H235668   1.608   8.902   4.506
11931TIP3   OH235669   1.444   8.404   3.810
11931TIP3    H135670   1.430   8.481   3.867
11931TIP3    H235671   1.502   8.442   3.741
11932TIP3   OH235672   0.953   8.397   3.598
11932TIP3    H135673   0.949   8.490   3.628
11932TIP3    H235674   1.049   8.381   3.609
11933TIP3   OH235675   2.210   8.895   4.497
11933TIP3    H135676   2.113   8.884   4.501
11933TIP3    H235677   2.227   8.859   4.408
11934TIP3   OH235678   1.847   9.074   3.868
11934TIP3    H135679   1.779   9.010   3.894
11934TIP3    H235680   1.924   9.046   3.922
11935TIP3   OH235681   0.508   8.591   3.484
11935TIP3    H135682   0.529   8.684   3.472
11935TIP3    H235683   0.430   8.576   3.430
11936TIP3   OH235684   0.906   8.312   4.358
11936TIP3    H135685   0.870   8.278   4.274
11936TIP3    H235686   0.898   8.235   4.417
11937TIP3   OH235687   0.866   9.198   4.967
11937TIP3    H135688   0.909   9.117   4.997
11937TIP3    H235689   0.869   9.255   5.047
11938TIP3   OH235690   1.176   9.012   4.632
11938TIP3    H135691   1.091   9.061   4.651
11938TIP3    H235692   1.196   9.050   4.541
11939TIP3   OH235693   1.024   8.809   3.312
11939TIP3    H135694   0.986   8.783   3.226
11939TIP3    H235695   1.120   8.815   3.295
11940TIP3   OH235696   1.315   8.859   4.795
11940TIP3    H135697   1.321   8.774   4.747
11940TIP3    H235698   1.261   8.910   4.728
11941TIP3   OH235699   1.309   8.664   4.590
11941TIP3    H135700   1.334   8.710   4.506
11941TIP3    H235701   1.215   8.644   4.573
11942TIP3   OH235702   1.947   9.197   4.797
11942TIP3    H135703   1.951   9.107   4.833
11942TIP3    H235704   2.041   9.221   4.805
11943TIP3   OH235705   1.171   9.000   4.998
11943TIP3    H135706   1.111   8.926   5.019
11943TIP3    H235707   1.221   8.963   4.923
11944TIP3   OH235708   1.441   8.432   4.652
11944TIP3    H135709   1.391   8.514   4.630
11944TIP3    H235710   1.371   8.365   4.641
11945TIP3   OH235711   1.558   8.953   4.872
11945TIP3    H135712   1.551   8.937   4.968
11945TIP3    H235713   1.472   8.913   4.845
11946TIP3   OH235714   1.814   8.908   4.740
11946TIP3    H135715   1.736   8.874   4.789
11946TIP3    H235716   1.887   8.860   4.787
11947TIP3   OH235717   2.037   8.825   4.876
11947TIP3    H135718   2.050   8.730   4.899
11947TIP3    H235719   2.032   8.868   4.964
11948TIP3   OH235720   1.029   8.777   5.062
11948TIP3    H135721   1.029   8.686   5.026
11948TIP3    H235722   1.060   8.761   5.153
11949TIP3   OH235723   1.537   8.447   4.909
11949TIP3    H135724   1.603   8.374   4.906
11949TIP3    H235725   1.495   8.437   4.821
11950TIP3   OH235726   1.604   8.663   5.065
11950TIP3    H135727   1.579   8.589   5.005
11950TIP3    H235728   1.523   8.718   5.064
11951TIP3   OH235729   1.899   8.796   3.070
11951TIP3    H135730   1.883   8.823   2.979
11951TIP3    H235731   1.879   8.700   3.065
11952TIP3   OH235732   1.940   9.047   3.614
11952TIP3    H135733   1.940   8.951   3.625
11952TIP3    H235734   1.918   9.076   3.705
11953TIP3   OH235735   2.376   9.322   4.508
11953TIP3    H135736   2.302   9.262   4.527
11953TIP3    H235737   2.450   9.259   4.502
11954TIP3   OH235738   1.850   8.530   3.056
11954TIP3    H135739   1.928   8.498   3.107
11954TIP3    H235740   1.779   8.469   3.083
11955TIP3   OH235741   1.899   8.774   3.508
11955TIP3    H135742   1.944   8.687   3.521
11955TIP3    H235743   1.959   8.814   3.443
11956TIP3   OH235744   2.068   8.955   3.993
11956TIP3    H135745   2.152   8.985   3.951
11956TIP3    H235746   2.086   8.991   4.083
11957TIP3   OH235747   2.147   9.081   4.224
11957TIP3    H135748   2.069   9.113   4.273
11957TIP3    H235749   2.195   9.166   4.209
11958TIP3   OH235750   0.763   8.837   5.050
11958TIP3    H135751   0.859   8.821   5.043
11958TIP3    H235752   0.730   8.750   5.074
11959TIP3   OH235753   2.587   8.689   4.792
11959TIP3    H135754   2.647   8.624   4.749
11959TIP3    H235755   2.564   8.748   4.717
11960TIP3   OH235756   2.018   8.530   3.545
11960TIP3    H135757   2.066   8.516   3.629
11960TIP3    H235758   1.957   8.454   3.546
11961TIP3   OH235759   0.711   8.511   4.353
11961TIP3    H135760   0.779   8.443   4.372
11961TIP3    H235761   0.765   8.592   4.357
11962TIP3   OH235762   0.542   8.793   4.460
11962TIP3    H135763   0.574   8.787   4.368
11962TIP3    H235764   0.524   8.888   4.466
11963TIP3   OH235765   2.464   8.836   4.597
11963TIP3    H135766   2.373   8.870   4.613
11963TIP3    H235767   2.443   8.762   4.537
11964TIP3   OH235768   2.098   8.471   3.175
11964TIP3    H135769   2.142   8.397   3.127
11964TIP3    H235770   2.167   8.541   3.171
11965TIP3   OH235771   0.505   8.283   3.924
11965TIP3    H135772   0.432   8.314   3.980
11965TIP3    H235773   0.505   8.350   3.852
11966TIP3   OH235774   0.731   8.382   4.756
11966TIP3    H135775   0.673   8.369   4.833
11966TIP3    H235776   0.667   8.426   4.695
11967TIP3   OH235777   2.359   8.595   4.475
11967TIP3    H135778   2.268   8.589   4.442
11967TIP3    H235779   2.390   8.502   4.462
11968TIP3   OH235780   1.570   8.512   4.098
11968TIP3    H135781   1.520   8.444   4.147
11968TIP3    H235782   1.635   8.459   4.048
11969TIP3   OH235783   2.090   8.390   4.000
11969TIP3    H135784   2.127   8.442   3.925
11969TIP3    H235785   1.995   8.407   3.992
11970TIP3   OH235786   2.184   8.491   3.763
11970TIP3    H135787   2.257   8.440   3.722
11970TIP3    H235788   2.217   8.582   3.748
11971TIP3   OH235789   0.813   8.218   4.109
11971TIP3    H135790   0.723   8.179   4.112
11971TIP3    H235791   0.867   8.136   4.108
11972TIP3   OH235792   0.593   8.084   3.752
11972TIP3    H135793   0.628   8.143   3.684
11972TIP3    H235794   0.567   8.148   3.822
11973TIP3   OH235795   1.255   8.252   3.989
11973TIP3    H135796   1.315   8.305   3.935
11973TIP3    H235797   1.271   8.288   4.077
11974TIP3   OH235798   1.810   8.397   3.975
11974TIP3    H135799   1.800   8.363   3.885
11974TIP3    H235800   1.793   8.316   4.029
11975TIP3   OH235801   1.833   8.318   3.536
11975TIP3    H135802   1.747   8.362   3.547
11975TIP3    H235803   1.818   8.234   3.584
11976TIP3   OH235804   0.716   8.250   3.523
11976TIP3    H135805   0.766   8.188   3.467
11976TIP3    H235806   0.787   8.306   3.559
11977TIP3   OH235807   1.230   8.421   3.619
11977TIP3    H135808   1.290   8.377   3.682
11977TIP3    H235809   1.249   8.515   3.644
11978TIP3   OH235810   1.021   8.505   5.005
11978TIP3    H135811   0.987   8.432   5.059
11978TIP3    H235812   1.116   8.502   5.029
11979TIP3   OH235813   1.271   8.498   5.122
11979TIP3    H135814   1.354   8.468   5.081
11979TIP3    H235815   1.256   8.428   5.189
11980TIP3   OH235816   2.094   8.556   4.909
11980TIP3    H135817   2.114   8.524   5.000
11980TIP3    H235818   2.182   8.551   4.866
11981TIP3   OH235819   2.277   9.002   3.426
11981TIP3    H135820   2.232   9.080   3.463
11981TIP3    H235821   2.202   8.945   3.403
11982TIP3   OH235822   4.109   9.026   3.592
11982TIP3    H135823   4.137   9.109   3.635
11982TIP3    H235824   4.137   9.043   3.500
11983TIP3   OH235825   3.508   9.212   3.625
11983TIP3    H135826   3.552   9.128   3.647
11983TIP3    H235827   3.474   9.191   3.536
11984TIP3   OH235828   2.848   8.868   3.593
11984TIP3    H135829   2.827   8.942   3.532
11984TIP3    H235830   2.799   8.796   3.549
11985TIP3   OH235831   3.541   8.957   3.217
11985TIP3    H135832   3.613   8.941   3.283
11985TIP3    H235833   3.594   8.996   3.145
11986TIP3   OH235834   2.471   9.054   3.711
11986TIP3    H135835   2.560   9.043   3.750
11986TIP3    H235836   2.486   9.020   3.621
11987TIP3   OH235837   2.939   9.272   3.470
11987TIP3    H135838   3.021   9.234   3.507
11987TIP3    H235839   2.885   9.194   3.450
11988TIP3   OH235840   4.190   9.228   3.767
11988TIP3    H135841   4.113   9.280   3.734
11988TIP3    H235842   4.200   9.266   3.855
11989TIP3   OH235843   2.845   8.853   4.029
11989TIP3    H135844   2.784   8.886   3.960
11989TIP3    H235845   2.792   8.872   4.110
11990TIP3   OH235846   3.752   8.963   3.387
11990TIP3    H135847   3.748   8.913   3.469
11990TIP3    H235848   3.805   9.041   3.412
11991TIP3   OH235849   2.714   8.959   3.813
11991TIP3    H135850   2.770   9.038   3.829
11991TIP3    H235851   2.763   8.920   3.737
11992TIP3   OH235852   3.904   8.927   3.759
11992TIP3    H135853   3.817   8.960   3.731
11992TIP3    H235854   3.963   8.960   3.688
11993TIP3   OH235855   3.205   8.574   3.742
11993TIP3    H135856   3.190   8.479   3.757
11993TIP3    H235857   3.126   8.612   3.787
11994TIP3   OH235858   3.099   9.126   2.736
11994TIP3    H135859   3.171   9.111   2.799
11994TIP3    H235860   3.127   9.070   2.663
11995TIP3   OH235861   3.732   9.432   3.878
11995TIP3    H135862   3.761   9.520   3.845
11995TIP3    H235863   3.639   9.430   3.844
11996TIP3   OH235864   3.830   8.514   2.838
11996TIP3    H135865   3.754   8.537   2.895
11996TIP3    H235866   3.849   8.600   2.795
11997TIP3   OH235867   3.966   9.421   4.059
11997TIP3    H135868   3.891   9.432   3.998
11997TIP3    H235869   3.983   9.325   4.051
11998TIP3   OH235870   2.964   8.648   3.868
11998TIP3    H135871   2.873   8.617   3.845
11998TIP3    H235872   2.941   8.732   3.911
11999TIP3   OH235873   3.495   8.764   4.064
11999TIP3    H135874   3.562   8.737   4.129
11999TIP3    H235875   3.411   8.743   4.108
12000TIP3   OH235876   3.736   9.175   3.984
12000TIP3    H135877   3.689   9.178   4.070
12000TIP3    H235878   3.722   9.265   3.948
12001TIP3   OH235879   3.116   8.694   2.841
12001TIP3    H135880   3.080   8.696   2.931
12001TIP3    H235881   3.072   8.614   2.807
12002TIP3   OH235882   2.886   9.167   3.861
12002TIP3    H135883   2.855   9.179   3.953
12002TIP3    H235884   2.871   9.254   3.823
12003TIP3   OH235885   2.779   9.048   3.403
12003TIP3    H135886   2.686   9.022   3.419
12003TIP3    H235887   2.793   9.011   3.314
12004TIP3   OH235888   3.284   9.141   3.131
12004TIP3    H135889   3.200   9.186   3.111
12004TIP3    H235890   3.322   9.123   3.043
12005TIP3   OH235891   3.450   9.406   4.215
12005TIP3    H135892   3.430   9.327   4.271
12005TIP3    H235893   3.545   9.417   4.233
12006TIP3   OH235894   3.418   9.154   3.373
12006TIP3    H135895   3.361   9.172   3.295
12006TIP3    H235896   3.462   9.074   3.338
12007TIP3   OH235897   2.674   9.186   4.112
12007TIP3    H135898   2.728   9.232   4.176
12007TIP3    H235899   2.674   9.095   4.148
12008TIP3   OH235900   2.757   8.668   2.813
12008TIP3    H135901   2.752   8.665   2.911
12008TIP3    H235902   2.686   8.732   2.795
12009TIP3   OH235903   2.305   8.715   3.677
12009TIP3    H135904   2.378   8.749   3.732
12009TIP3    H235905   2.350   8.683   3.598
12010TIP3   OH235906   2.283   8.693   3.200
12010TIP3    H135907   2.323   8.735   3.120
12010TIP3    H235908   2.222   8.765   3.225
12011TIP3   OH235909   3.469   9.402   3.813
12011TIP3    H135910   3.477   9.333   3.742
12011TIP3    H235911   3.403   9.358   3.871
12012TIP3   OH235912   3.102   8.864   3.463
12012TIP3    H135913   3.018   8.868   3.513
12012TIP3    H235914   3.166   8.884   3.533
12013TIP3   OH235915   2.539   8.931   3.469
12013TIP3    H135916   2.444   8.936   3.445
12013TIP3    H235917   2.563   8.839   3.447
12014TIP3   OH235918   2.816   8.925   3.161
12014TIP3    H135919   2.906   8.948   3.131
12014TIP3    H235920   2.761   8.941   3.081
12015TIP3   OH235921   3.594   8.947   3.667
12015TIP3    H135922   3.558   8.959   3.757
12015TIP3    H235923   3.529   8.885   3.629
12016TIP3   OH235924   2.643   8.921   2.948
12016TIP3    H135925   2.565   8.917   2.890
12016TIP3    H235926   2.695   8.987   2.898
12017TIP3   OH235927   3.183   9.175   3.555
12017TIP3    H135928   3.268   9.159   3.511
12017TIP3    H235929   3.207   9.168   3.649
12018TIP3   OH235930   2.713   8.689   3.438
12018TIP3    H135931   2.682   8.606   3.481
12018TIP3    H235932   2.760   8.656   3.360
12019TIP3   OH235933   3.162   9.083   3.862
12019TIP3    H135934   3.077   9.128   3.849
12019TIP3    H235935   3.219   9.151   3.903
12020TIP3   OH235936   3.361   8.804   2.821
12020TIP3    H135937   3.267   8.775   2.823
12020TIP3    H235938   3.353   8.900   2.809
12021TIP3   OH235939   3.430   9.083   2.881
12021TIP3    H135940   3.513   9.064   2.929
12021TIP3    H235941   3.459   9.072   2.790
12022TIP3   OH235942   3.163   9.462   4.329
12022TIP3    H135943   3.133   9.543   4.285
12022TIP3    H235944   3.227   9.426   4.266
12023TIP3   OH235945   3.865   9.125   2.755
12023TIP3    H135946   3.804   9.085   2.689
12023TIP3    H235947   3.878   9.212   2.716
12024TIP3   OH235948   2.686   8.931   4.246
12024TIP3    H135949   2.589   8.935   4.258
12024TIP3    H235950   2.713   8.870   4.317
12025TIP3   OH235951   3.517   9.004   3.926
12025TIP3    H135952   3.602   9.038   3.959
12025TIP3    H235953   3.506   8.921   3.978
12026TIP3   OH235954   3.404   8.749   3.091
12026TIP3    H135955   3.389   8.774   2.997
12026TIP3    H235956   3.444   8.830   3.128
12027TIP3   OH235957   3.105   8.928   3.192
12027TIP3    H135958   3.172   8.998   3.184
12027TIP3    H235959   3.097   8.919   3.290
12028TIP3   OH235960   3.347   9.242   4.000
12028TIP3    H135961   3.382   9.297   4.072
12028TIP3    H235962   3.408   9.165   4.001
12029TIP3   OH235963   3.238   8.659   3.298
12029TIP3    H135964   3.226   8.736   3.357
12029TIP3    H235965   3.297   8.697   3.229
12030TIP3   OH235966   2.748   8.651   3.090
12030TIP3    H135967   2.740   8.745   3.114
12030TIP3    H235968   2.845   8.640   3.097
12031TIP3   OH235969   4.006   9.152   3.983
12031TIP3    H135970   3.908   9.142   3.989
12031TIP3    H235971   4.020   9.122   3.892
12032TIP3   OH235972   3.647   9.328   3.347
12032TIP3    H135973   3.578   9.272   3.386
12032TIP3    H235974   3.723   9.309   3.405
12033TIP3   OH235975   2.301   8.853   2.979
12033TIP3    H135976   2.344   8.934   2.948
12033TIP3    H235977   2.234   8.840   2.910
12034TIP3   OH235978   2.700   8.568   3.846
12034TIP3    H135979   2.666   8.536   3.760
12034TIP3    H235980   2.687   8.489   3.903
12035TIP3   OH235981   2.677   9.453   4.452
12035TIP3    H135982   2.720   9.372   4.484
12035TIP3    H235983   2.668   9.507   4.533
12036TIP3   OH235984   2.955   9.258   4.111
12036TIP3    H135985   2.925   9.345   4.146
12036TIP3    H235986   2.996   9.285   4.028
12037TIP3   OH235987   2.826   9.053   2.798
12037TIP3    H135988   2.766   9.050   2.723
12037TIP3    H235989   2.912   9.082   2.763
12038TIP3   OH235990   3.109   9.119   4.281
12038TIP3    H135991   3.116   9.035   4.232
12038TIP3    H235992   3.053   9.169   4.218
12039TIP3   OH235993   3.104   8.919   4.078
12039TIP3    H135994   3.131   8.967   3.996
12039TIP3    H235995   3.010   8.901   4.059
12040TIP3   OH235996   3.724   9.437   4.323
12040TIP3    H135997   3.748   9.346   4.345
12040TIP3    H235998   3.809   9.472   4.293
12041TIP3   OH235999   2.963   9.259   4.490
12041TIP3    H136000   2.904   9.183   4.504
12041TIP3    H236001   3.012   9.231   4.411
12042TIP3   OH236002   3.237   8.689   4.140
12042TIP3    H136003   3.189   8.772   4.117
12042TIP3    H236004   3.166   8.622   4.128
12043TIP3   OH236005   3.362   9.197   4.362
12043TIP3    H136006   3.351   9.188   4.458
12043TIP3    H236007   3.272   9.168   4.334
12044TIP3   OH236008   3.605   9.145   4.219
12044TIP3    H136009   3.527   9.137   4.277
12044TIP3    H236010   3.677   9.109   4.275
12045TIP3   OH236011   3.836   9.085   4.368
12045TIP3    H136012   3.845   8.990   4.387
12045TIP3    H236013   3.829   9.125   4.457
12046TIP3   OH236014   2.815   9.035   4.549
12046TIP3    H136015   2.824   8.945   4.512
12046TIP3    H236016   2.851   9.022   4.638
12047TIP3   OH236017   3.331   8.701   4.397
12047TIP3    H136018   3.399   8.630   4.391
12047TIP3    H236019   3.291   8.694   4.308
12048TIP3   OH236020   3.396   8.915   4.557
12048TIP3    H136021   3.373   8.844   4.492
12048TIP3    H236022   3.318   8.974   4.551
12049TIP3   OH236023   3.694   9.053   2.554
12049TIP3    H136024   3.664   9.072   2.464
12049TIP3    H236025   3.674   8.957   2.555
12050TIP3   OH236026   3.714   9.310   3.086
12050TIP3    H136027   3.736   9.216   3.101
12050TIP3    H236028   3.701   9.337   3.180
12051TIP3   OH236029   4.182   9.576   3.998
12051TIP3    H136030   4.099   9.527   4.016
12051TIP3    H236031   4.247   9.503   3.995
12052TIP3   OH236032   3.648   8.785   2.543
12052TIP3    H136033   3.727   8.754   2.593
12052TIP3    H236034   3.576   8.726   2.575
12053TIP3   OH236035   3.691   9.029   2.988
12053TIP3    H136036   3.734   8.941   3.006
12053TIP3    H236037   3.756   9.066   2.925
12054TIP3   OH236038   3.865   9.214   3.484
12054TIP3    H136039   3.950   9.242   3.443
12054TIP3    H236040   3.880   9.253   3.572
12055TIP3   OH236041   3.944   9.350   3.713
12055TIP3    H136042   3.866   9.378   3.763
12055TIP3    H236043   3.985   9.436   3.691
12056TIP3   OH236044   2.545   9.095   4.526
12056TIP3    H136045   2.643   9.086   4.521
12056TIP3    H236046   2.523   9.008   4.565
12057TIP3   OH236047   4.388   8.948   4.279
12057TIP3    H136048   4.444   8.882   4.234
12057TIP3    H236049   4.359   9.005   4.204
12058TIP3   OH236050   3.810   8.789   3.034
12058TIP3    H136051   3.863   8.775   3.115
12058TIP3    H236052   3.753   8.709   3.035
12059TIP3   OH236053   2.509   8.771   3.856
12059TIP3    H136054   2.577   8.701   3.864
12059TIP3    H236055   2.566   8.850   3.846
12060TIP3   OH236056   2.314   9.057   3.933
12060TIP3    H136057   2.362   9.046   3.848
12060TIP3    H236058   2.343   9.146   3.956
12061TIP3   OH236059   4.258   9.091   4.087
12061TIP3    H136060   4.169   9.129   4.103
12061TIP3    H236061   4.235   9.020   4.025
12062TIP3   OH236062   3.894   8.728   2.663
12062TIP3    H136063   3.939   8.655   2.612
12062TIP3    H236064   3.962   8.796   2.660
12063TIP3   OH236065   2.298   8.549   3.426
12063TIP3    H136066   2.205   8.552   3.453
12063TIP3    H236067   2.299   8.609   3.348
12064TIP3   OH236068   2.519   8.634   4.241
12064TIP3    H136069   2.467   8.629   4.323
12064TIP3    H236070   2.453   8.673   4.180
12065TIP3   OH236071   4.155   8.853   3.962
12065TIP3    H136072   4.064   8.851   3.927
12065TIP3    H236073   4.183   8.760   3.948
12066TIP3   OH236074   3.366   8.769   3.583
12066TIP3    H136075   3.317   8.701   3.633
12066TIP3    H236076   3.432   8.715   3.535
12067TIP3   OH236077   3.887   8.645   3.485
12067TIP3    H136078   3.924   8.699   3.412
12067TIP3    H236079   3.792   8.665   3.480
12068TIP3   OH236080   3.979   8.753   3.250
12068TIP3    H136081   4.050   8.697   3.210
12068TIP3    H236082   4.016   8.843   3.232
12069TIP3   OH236083   2.610   8.475   3.598
12069TIP3    H136084   2.518   8.442   3.598
12069TIP3    H236085   2.659   8.391   3.594
12070TIP3   OH236086   2.393   8.344   3.242
12070TIP3    H136087   2.425   8.403   3.171
12070TIP3    H236088   2.365   8.408   3.310
12071TIP3   OH236089   3.054   8.506   3.477
12071TIP3    H136090   3.111   8.560   3.420
12071TIP3    H236091   3.067   8.547   3.563
12072TIP3   OH236092   3.605   8.653   3.461
12072TIP3    H136093   3.596   8.619   3.371
12072TIP3    H236094   3.588   8.572   3.515
12073TIP3   OH236095   3.629   8.573   3.021
12073TIP3    H136096   3.543   8.617   3.035
12073TIP3    H236097   3.616   8.490   3.070
12074TIP3   OH236098   2.511   8.503   3.011
12074TIP3    H136099   2.562   8.445   2.952
12074TIP3    H236100   2.581   8.561   3.047
12075TIP3   OH236101   3.027   8.680   3.106
12075TIP3    H136102   3.085   8.634   3.169
12075TIP3    H236103   3.045   8.773   3.131
12076TIP3   OH236104   2.816   8.756   4.489
12076TIP3    H136105   2.785   8.685   4.547
12076TIP3    H236106   2.911   8.758   4.514
12077TIP3   OH236107   3.065   8.754   4.607
12077TIP3    H136108   3.150   8.728   4.568
12077TIP3    H236109   3.053   8.684   4.674
12078TIP3   OH236110   3.890   8.813   4.395
12078TIP3    H136111   3.910   8.783   4.486
12078TIP3    H236112   3.978   8.809   4.353
12079TIP3   OH236113   4.067   9.268   2.906
12079TIP3    H136114   4.023   9.338   2.955
12079TIP3    H236115   3.997   9.201   2.898
12080TIP3   OH236116   5.905   9.283   3.078
12080TIP3    H136117   5.935   9.365   3.122
12080TIP3    H236118   5.926   9.302   2.985
12081TIP3   OH236119   5.305   9.470   3.111
12081TIP3    H136120   5.347   9.384   3.132
12081TIP3    H236121   5.270   9.450   3.022
12082TIP3   OH236122   5.336   9.215   2.705
12082TIP3    H136123   5.411   9.200   2.767
12082TIP3    H236124   5.386   9.250   2.628
12083TIP3   OH236125   4.268   9.313   3.195
12083TIP3    H136126   4.355   9.298   3.237
12083TIP3    H236127   4.285   9.278   3.106
12084TIP3   OH236128   4.739   9.531   2.945
12084TIP3    H136129   4.817   9.493   2.990
12084TIP3    H236130   4.681   9.452   2.932
12085TIP3   OH236131   5.989   9.483   3.254
12085TIP3    H136132   5.912   9.534   3.221
12085TIP3    H236133   5.998   9.519   3.343
12086TIP3   OH236134   4.641   9.113   3.515
12086TIP3    H136135   4.577   9.139   3.446
12086TIP3    H236136   4.587   9.131   3.595
12087TIP3   OH236137   5.549   9.217   2.872
12087TIP3    H136138   5.547   9.167   2.954
12087TIP3    H236139   5.602   9.295   2.897
12088TIP3   OH236140   4.510   9.211   3.291
12088TIP3    H136141   4.576   9.283   3.298
12088TIP3    H236142   4.539   9.161   3.212
12089TIP3   OH236143   5.699   9.185   3.247
12089TIP3    H136144   5.612   9.215   3.216
12089TIP3    H236145   5.758   9.217   3.175
12090TIP3   OH236146   5.009   8.837   3.240
12090TIP3    H136147   4.986   8.743   3.231
12090TIP3    H236148   4.925   8.872   3.277
12091TIP3   OH236149   4.895   9.355   2.227
12091TIP3    H136150   4.969   9.418   2.234
12091TIP3    H236151   4.933   9.295   2.161
12092TIP3   OH236152   5.531   9.705   3.357
12092TIP3    H136153   5.542   9.793   3.317
12092TIP3    H236154   5.439   9.682   3.327
12093TIP3   OH236155   5.631   8.773   2.330
12093TIP3    H136156   5.550   8.793   2.381
12093TIP3    H236157   5.643   8.856   2.280
12094TIP3   OH236158   5.757   9.676   3.538
12094TIP3    H136159   5.681   9.669   3.479
12094TIP3    H236160   5.784   9.582   3.544
12095TIP3   OH236161   4.761   8.907   3.356
12095TIP3    H136162   4.673   8.877   3.327
12095TIP3    H236163   4.734   8.988   3.403
12096TIP3   OH236164   5.291   9.022   3.551
12096TIP3    H136165   5.357   8.993   3.616
12096TIP3    H236166   5.206   9.000   3.594
12097TIP3   OH236167   5.535   9.435   3.473
12097TIP3    H136168   5.486   9.433   3.558
12097TIP3    H236169   5.508   9.520   3.435
12098TIP3   OH236170   4.905   8.955   2.325
12098TIP3    H136171   4.875   8.953   2.418
12098TIP3    H236172   4.868   8.870   2.295
12099TIP3   OH236173   4.684   9.423   3.350
12099TIP3    H136174   4.640   9.425   3.438
12099TIP3    H236175   4.657   9.507   3.312
12100TIP3   OH236176   4.579   9.313   2.887
12100TIP3    H136177   4.495   9.272   2.919
12100TIP3    H236178   4.591   9.261   2.805
12101TIP3   OH236179   5.070   9.404   2.609
12101TIP3    H136180   4.992   9.427   2.557
12101TIP3    H236181   5.132   9.377   2.538
12102TIP3   OH236182   5.246   9.662   3.700
12102TIP3    H136183   5.226   9.585   3.758
12102TIP3    H236184   5.340   9.676   3.722
12103TIP3   OH236185   5.214   9.411   2.857
12103TIP3    H136186   5.157   9.433   2.780
12103TIP3    H236187   5.257   9.331   2.820
12104TIP3   OH236188   4.489   9.437   3.589
12104TIP3    H136189   4.497   9.493   3.666
12104TIP3    H236190   4.476   9.350   3.630
12105TIP3   OH236191   4.563   8.929   2.295
12105TIP3    H136192   4.558   8.923   2.393
12105TIP3    H236193   4.477   8.970   2.275
12106TIP3   OH236194   4.108   8.974   3.156
12106TIP3    H136195   4.177   9.006   3.218
12106TIP3    H236196   4.161   8.931   3.087
12107TIP3   OH236197   4.078   8.950   2.682
12107TIP3    H136198   4.127   8.988   2.606
12107TIP3    H236199   4.022   9.025   2.708
12108TIP3   OH236200   5.273   9.657   3.302
12108TIP3    H136201   5.275   9.590   3.229
12108TIP3    H236202   5.203   9.616   3.357
12109TIP3   OH236203   4.903   9.121   2.942
12109TIP3    H136204   4.812   9.122   2.978
12109TIP3    H236205   4.956   9.138   3.021
12110TIP3   OH236206   4.340   9.196   2.957
12110TIP3    H136207   4.248   9.178   2.932
12110TIP3    H236208   4.376   9.106   2.976
12111TIP3   OH236209   4.611   9.187   2.646
12111TIP3    H136210   4.704   9.196   2.619
12111TIP3    H236211   4.559   9.197   2.563
12112TIP3   OH236212   5.391   9.205   3.155
12112TIP3    H136213   5.352   9.215   3.245
12112TIP3    H236214   5.328   9.141   3.116
12113TIP3   OH236215   4.439   9.205   2.428
12113TIP3    H136216   4.372   9.166   2.370
12113TIP3    H236217   4.483   9.268   2.369
12114TIP3   OH236218   4.980   9.436   3.044
12114TIP3    H136219   5.062   9.413   2.998
12114TIP3    H236220   5.003   9.422   3.137
12115TIP3   OH236221   4.959   9.341   3.345
12115TIP3    H136222   4.871   9.383   3.339
12115TIP3    H236223   5.013   9.409   3.390
12116TIP3   OH236224   5.156   9.066   2.295
12116TIP3    H136225   5.059   9.049   2.299
12116TIP3    H236226   5.163   9.162   2.313
12117TIP3   OH236227   5.224   9.319   2.398
12117TIP3    H136228   5.320   9.316   2.413
12117TIP3    H236229   5.219   9.377   2.318
12118TIP3   OH236230   4.960   9.721   3.818
12118TIP3    H136231   4.923   9.798   3.773
12118TIP3    H236232   5.019   9.683   3.752
12119TIP3   OH236233   5.669   9.383   2.240
12119TIP3    H136234   5.610   9.340   2.173
12119TIP3    H236235   5.669   9.473   2.205
12120TIP3   OH236236   4.480   9.189   3.734
12120TIP3    H136237   4.384   9.192   3.745
12120TIP3    H236238   4.506   9.126   3.803
12121TIP3   OH236239   5.312   9.263   3.416
12121TIP3    H136240   5.399   9.291   3.449
12121TIP3    H236241   5.298   9.179   3.465
12122TIP3   OH236242   5.197   9.011   2.572
12122TIP3    H136243   5.184   9.035   2.478
12122TIP3    H236244   5.239   9.092   2.608
12123TIP3   OH236245   4.895   9.188   2.675
12123TIP3    H136246   4.969   9.250   2.665
12123TIP3    H236247   4.892   9.177   2.772
12124TIP3   OH236248   5.145   9.500   3.485
12124TIP3    H136249   5.179   9.550   3.561
12124TIP3    H236250   5.201   9.420   3.485
12125TIP3   OH236251   5.038   8.917   2.783
12125TIP3    H136252   5.023   8.995   2.841
12125TIP3    H236253   5.095   8.955   2.713
12126TIP3   OH236254   4.544   8.908   2.566
12126TIP3    H136255   4.534   8.991   2.617
12126TIP3    H236256   4.638   8.889   2.585
12127TIP3   OH236257   5.804   9.408   3.470
12127TIP3    H136258   5.706   9.399   3.476
12127TIP3    H236259   5.818   9.374   3.381
12128TIP3   OH236260   5.438   9.588   2.839
12128TIP3    H136261   5.371   9.523   2.868
12128TIP3    H236262   5.516   9.563   2.893
12129TIP3   OH236263   4.108   9.106   2.453
12129TIP3    H136264   4.111   9.202   2.448
12129TIP3    H236265   4.020   9.082   2.420
12130TIP3   OH236266   4.497   8.828   3.346
12130TIP3    H136267   4.484   8.831   3.248
12130TIP3    H236268   4.472   8.738   3.372
12131TIP3   OH236269   4.478   9.713   3.935
12131TIP3    H136270   4.501   9.625   3.967
12131TIP3    H236271   4.462   9.764   4.018
12132TIP3   OH236272   4.768   9.517   3.599
12132TIP3    H136273   4.717   9.594   3.632
12132TIP3    H236274   4.786   9.543   3.507
12133TIP3   OH236275   4.617   9.346   2.265
12133TIP3    H136276   4.585   9.279   2.202
12133TIP3    H236277   4.714   9.330   2.270
12134TIP3   OH236278   4.909   9.372   3.769
12134TIP3    H136279   4.912   9.288   3.719
12134TIP3    H236280   4.855   9.426   3.706
12135TIP3   OH236281   4.901   9.176   3.563
12135TIP3    H136282   4.927   9.223   3.481
12135TIP3    H236283   4.806   9.158   3.546
12136TIP3   OH236284   5.521   9.694   3.810
12136TIP3    H136285   5.542   9.602   3.832
12136TIP3    H236286   5.608   9.728   3.786
12137TIP3   OH236287   4.767   9.511   3.981
12137TIP3    H136288   4.702   9.439   3.992
12137TIP3    H236289   4.810   9.486   3.897
12138TIP3   OH236290   5.033   8.945   3.627
12138TIP3    H136291   4.985   9.028   3.603
12138TIP3    H236292   4.962   8.879   3.613
12139TIP3   OH236293   5.158   9.454   3.848
12139TIP3    H136294   5.146   9.446   3.944
12139TIP3    H236295   5.069   9.424   3.819
12140TIP3   OH236296   5.401   9.402   3.706
12140TIP3    H136297   5.323   9.394   3.763
12140TIP3    H236298   5.473   9.366   3.762
12141TIP3   OH236299   5.631   9.342   3.855
12141TIP3    H136300   5.641   9.247   3.873
12141TIP3    H236301   5.625   9.382   3.944
12142TIP3   OH236302   4.611   9.291   4.035
12142TIP3    H136303   4.620   9.201   3.998
12142TIP3    H236304   4.647   9.277   4.125
12143TIP3   OH236305   5.128   8.957   3.884
12143TIP3    H136306   5.195   8.886   3.877
12143TIP3    H236307   5.086   8.951   3.796
12144TIP3   OH236308   5.192   9.172   4.044
12144TIP3    H136309   5.169   9.101   3.979
12144TIP3    H236310   5.115   9.231   4.038
12145TIP3   OH236311   5.518   9.303   2.031
12145TIP3    H136312   5.446   9.351   1.986
12145TIP3    H236313   5.484   9.211   2.026
12146TIP3   OH236314   5.546   9.550   2.590
12146TIP3    H136315   5.533   9.455   2.599
12146TIP3    H236316   5.518   9.582   2.678
12147TIP3   OH236317   5.970   9.834   3.479
12147TIP3    H136318   5.895   9.776   3.499
12147TIP3    H236319   6.043   9.769   3.476
12148TIP3   OH236320   5.442   9.041   2.030
12148TIP3    H136321   5.518   9.009   2.083
12148TIP3    H236322   5.369   8.982   2.056
12149TIP3   OH236323   5.494   9.287   2.485
12149TIP3    H136324   5.539   9.200   2.496
12149TIP3    H236325   5.551   9.327   2.417
12150TIP3   OH236326   5.660   9.470   2.967
12150TIP3    H136327   5.744   9.499   2.925
12150TIP3    H236328   5.678   9.505   3.056
12151TIP3   OH236329   5.737   9.597   3.199
12151TIP3    H136330   5.659   9.629   3.247
12151TIP3    H236331   5.786   9.681   3.182
12152TIP3   OH236332   4.343   9.348   4.010
12152TIP3    H136333   4.440   9.338   4.007
12152TIP3    H236334   4.319   9.263   4.051
12153TIP3   OH236335   6.181   9.202   3.766
12153TIP3    H136336   6.240   9.137   3.722
12153TIP3    H236337   6.155   9.261   3.691
12154TIP3   OH236338   5.612   9.043   2.519
12154TIP3    H136339   5.659   9.028   2.603
12154TIP3    H236340   5.550   8.967   2.518
12155TIP3   OH236341   4.301   9.029   3.354
12155TIP3    H136342   4.368   8.957   3.351
12155TIP3    H236343   4.358   9.105   3.331
12156TIP3   OH236344   4.111   9.314   3.419
12156TIP3    H136345   4.160   9.305   3.334
12156TIP3    H236346   4.135   9.404   3.443
12157TIP3   OH236347   6.056   9.349   3.573
12157TIP3    H136348   5.965   9.384   3.587
12157TIP3    H236349   6.035   9.276   3.511
12158TIP3   OH236350   5.692   8.982   2.151
12158TIP3    H136351   5.731   8.909   2.099
12158TIP3    H236352   5.758   9.053   2.142
12159TIP3   OH236353   4.087   8.798   2.905
12159TIP3    H136354   3.996   8.811   2.936
12159TIP3    H236355   4.093   8.862   2.831
12160TIP3   OH236356   4.315   8.889   3.728
12160TIP3    H136357   4.262   8.887   3.810
12160TIP3    H236358   4.252   8.929   3.666
12161TIP3   OH236359   5.951   9.109   3.449
12161TIP3    H136360   5.861   9.105   3.413
12161TIP3    H236361   5.981   9.016   3.435
12162TIP3   OH236362   5.164   9.026   3.073
12162TIP3    H136363   5.114   8.959   3.123
12162TIP3    H236364   5.225   8.972   3.021
12163TIP3   OH236365   5.683   8.904   2.976
12163TIP3    H136366   5.719   8.955   2.900
12163TIP3    H236367   5.587   8.920   2.966
12164TIP3   OH236368   5.776   9.004   2.738
12164TIP3    H136369   5.849   8.953   2.696
12164TIP3    H236370   5.809   9.096   2.722
12165TIP3   OH236371   4.192   8.599   2.729
12165TIP3    H136372   4.216   8.661   2.658
12165TIP3    H236373   4.162   8.660   2.799
12166TIP3   OH236374   4.866   8.750   2.969
12166TIP3    H136375   4.914   8.812   2.913
12166TIP3    H236376   4.817   8.809   3.028
12167TIP3   OH236377   5.403   8.910   2.948
12167TIP3    H136378   5.391   8.877   2.858
12167TIP3    H236379   5.385   8.829   3.001
12168TIP3   OH236380   5.426   8.832   2.510
12168TIP3    H136381   5.339   8.874   2.518
12168TIP3    H236382   5.410   8.747   2.557
12169TIP3   OH236383   4.308   8.767   2.492
12169TIP3    H136384   4.357   8.702   2.439
12169TIP3    H236385   4.380   8.819   2.532
12170TIP3   OH236386   4.825   8.935   2.592
12170TIP3    H136387   4.881   8.890   2.657
12170TIP3    H236388   4.842   9.028   2.618
12171TIP3   OH236389   4.613   9.012   3.975
12171TIP3    H136390   4.581   8.942   4.034
12171TIP3    H236391   4.708   9.015   4.001
12172TIP3   OH236392   4.862   9.010   4.094
12172TIP3    H136393   4.946   8.985   4.054
12172TIP3    H236394   4.849   8.939   4.160
12173TIP3   OH236395   5.686   9.070   3.882
12173TIP3    H136396   5.707   9.040   3.973
12173TIP3    H236397   5.774   9.066   3.838
12174TIP3   OH236398   5.869   9.518   2.398
12174TIP3    H136399   5.821   9.591   2.440
12174TIP3    H236400   5.796   9.457   2.378
12175TIP3   OH236401   7.101   9.734   2.602
12175TIP3    H136402   7.141   9.648   2.622
12175TIP3    H236403   7.077   9.722   2.509
12176TIP3   OH236404   6.440   9.381   2.567
12176TIP3    H136405   6.420   9.455   2.505
12176TIP3    H236406   6.391   9.309   2.522
12177TIP3   OH236407   7.133   9.467   2.198
12177TIP3    H136408   7.202   9.449   2.265
12177TIP3    H236409   7.188   9.506   2.130
12178TIP3   OH236410   6.064   9.568   2.685
12178TIP3    H136411   6.152   9.556   2.724
12178TIP3    H236412   6.078   9.533   2.595
12179TIP3   OH236413   6.529   9.785   2.449
12179TIP3    H136414   6.613   9.747   2.481
12179TIP3    H236415   6.477   9.707   2.424
12180TIP3   OH236416   6.437   9.367   3.003
12180TIP3    H136417   6.376   9.399   2.934
12180TIP3    H236418   6.384   9.386   3.083
12181TIP3   OH236419   7.351   9.474   2.362
12181TIP3    H136420   7.335   9.416   2.438
12181TIP3    H236421   7.433   9.521   2.388
12182TIP3   OH236422   6.307   9.473   2.786
12182TIP3    H136423   6.363   9.551   2.803
12182TIP3    H236424   6.355   9.433   2.711
12183TIP3   OH236425   7.495   9.450   2.726
12183TIP3    H136426   7.401   9.472   2.714
12183TIP3    H236427   7.531   9.470   2.639
12184TIP3   OH236428   6.796   9.087   2.715
12184TIP3    H136429   6.784   8.992   2.731
12184TIP3    H236430   6.718   9.124   2.760
12185TIP3   OH236431   6.684   9.606   1.707
12185TIP3    H136432   6.741   9.655   1.767
12185TIP3    H236433   6.747   9.563   1.647
12186TIP3   OH236434   7.420   9.027   1.811
12186TIP3    H136435   7.343   9.039   1.871
12186TIP3    H236436   7.429   9.116   1.774
12187TIP3   OH236437   6.556   9.161   2.842
12187TIP3    H136438   6.466   9.130   2.818
12187TIP3    H236439   6.533   9.245   2.885
12188TIP3   OH236440   7.088   9.279   3.037
12188TIP3    H136441   7.156   9.249   3.101
12188TIP3    H236442   7.004   9.256   3.083
12189TIP3   OH236443   7.337   9.705   2.959
12189TIP3    H136444   7.290   9.695   3.045
12189TIP3    H236445   7.291   9.779   2.918
12190TIP3   OH236446   6.705   9.211   1.814
12190TIP3    H136447   6.671   9.209   1.906
12190TIP3    H236448   6.665   9.128   1.781
12191TIP3   OH236449   6.479   9.680   2.837
12191TIP3    H136450   6.443   9.691   2.927
12191TIP3    H236451   6.460   9.766   2.797
12192TIP3   OH236452   6.371   9.561   2.377
12192TIP3    H136453   6.278   9.535   2.392
12192TIP3    H236454   6.385   9.523   2.287
12193TIP3   OH236455   6.876   9.653   2.106
12193TIP3    H136456   6.792   9.700   2.085
12193TIP3    H236457   6.912   9.631   2.018
12194TIP3   OH236458   7.041   9.921   3.191
12194TIP3    H136459   7.019   9.842   3.246
12194TIP3    H236460   7.138   9.925   3.203
12195TIP3   OH236461   7.007   9.672   2.348
12195TIP3    H136462   6.951   9.686   2.268
12195TIP3    H236463   7.055   9.594   2.316
12196TIP3   OH236464   6.272   9.698   3.082
12196TIP3    H136465   6.314   9.746   3.153
12196TIP3    H236466   6.268   9.608   3.119
12197TIP3   OH236467   6.358   9.185   1.783
12197TIP3    H136468   6.351   9.180   1.881
12197TIP3    H236469   6.274   9.229   1.761
12198TIP3   OH236470   5.897   9.228   2.651
12198TIP3    H136471   5.972   9.261   2.705
12198TIP3    H236472   5.940   9.194   2.571
12199TIP3   OH236473   5.878   9.208   2.171
12199TIP3    H136474   5.922   9.247   2.093
12199TIP3    H236475   5.816   9.280   2.194
12200TIP3   OH236476   7.045   9.926   2.794
12200TIP3    H136477   7.072   9.864   2.723
12200TIP3    H236478   6.992   9.866   2.850
12201TIP3   OH236479   6.695   9.378   2.436
12201TIP3    H136480   6.611   9.382   2.487
12201TIP3    H236481   6.759   9.398   2.506
12202TIP3   OH236482   6.131   9.444   2.442
12202TIP3    H136483   6.036   9.449   2.418
12202TIP3    H236484   6.155   9.351   2.422
12203TIP3   OH236485   6.407   9.436   2.135
12203TIP3    H136486   6.498   9.460   2.109
12203TIP3    H236487   6.354   9.461   2.056
12204TIP3   OH236488   7.188   9.461   2.643
12204TIP3    H136489   7.149   9.473   2.732
12204TIP3    H236490   7.124   9.400   2.603
12205TIP3   OH236491   6.234   9.451   1.918
12205TIP3    H136492   6.167   9.420   1.855
12205TIP3    H236493   6.282   9.517   1.864
12206TIP3   OH236494   6.776   9.688   2.528
12206TIP3    H136495   6.861   9.678   2.482
12206TIP3    H236496   6.801   9.681   2.621
12207TIP3   OH236497   6.306   9.201   2.412
12207TIP3    H136498   6.273   9.120   2.456
12207TIP3    H236499   6.356   9.166   2.337
12208TIP3   OH236500   6.755   9.596   2.836
12208TIP3    H136501   6.669   9.640   2.822
12208TIP3    H236502   6.811   9.665   2.876
12209TIP3   OH236503   6.951   9.321   1.786
12209TIP3    H136504   6.856   9.293   1.792
12209TIP3    H236505   6.947   9.416   1.803
12210TIP3   OH236506   7.022   9.583   1.866
12210TIP3    H136507   7.110   9.547   1.882
12210TIP3    H236508   7.037   9.641   1.790
12211TIP3   OH236509   6.751   9.972   3.302
12211TIP3    H136510   6.727  10.056   3.261
12211TIP3    H236511   6.816   9.936   3.241
12212TIP3   OH236512   6.278   9.446   3.220
12212TIP3    H136513   6.181   9.449   3.231
12212TIP3    H236514   6.304   9.383   3.290
12213TIP3   OH236515   7.111   9.520   2.904
12213TIP3    H136516   7.197   9.546   2.939
12213TIP3    H236517   7.095   9.435   2.951
12214TIP3   OH236518   6.993   9.263   2.062
12214TIP3    H136519   6.982   9.287   1.968
12214TIP3    H236520   7.035   9.342   2.101
12215TIP3   OH236521   6.694   9.443   2.166
12215TIP3    H136522   6.763   9.511   2.158
12215TIP3    H236523   6.688   9.432   2.263
12216TIP3   OH236524   6.941   9.753   2.976
12216TIP3    H136525   6.977   9.805   3.049
12216TIP3    H236526   6.999   9.674   2.975
12217TIP3   OH236527   6.830   9.172   2.272
12217TIP3    H136528   6.819   9.249   2.331
12217TIP3    H236529   6.889   9.210   2.202
12218TIP3   OH236530   6.342   9.166   2.058
12218TIP3    H136531   6.337   9.258   2.089
12218TIP3    H236532   6.438   9.150   2.068
12219TIP3   OH236533   7.615   9.674   2.921
12219TIP3    H136534   7.523   9.687   2.953
12219TIP3    H236535   7.601   9.606   2.855
12220TIP3   OH236536   5.899   9.361   1.942
12220TIP3    H136537   5.906   9.458   1.936
12220TIP3    H236538   5.810   9.342   1.912
12221TIP3   OH236539   6.292   9.081   2.820
12221TIP3    H136540   6.259   9.049   2.733
12221TIP3    H236541   6.279   9.002   2.877
12222TIP3   OH236542   6.270   9.968   3.424
12222TIP3    H136543   6.308   9.885   3.456
12222TIP3    H236544   6.261  10.021   3.507
12223TIP3   OH236545   6.552   9.772   3.087
12223TIP3    H136546   6.516   9.858   3.119
12223TIP3    H236547   6.586   9.797   2.999
12224TIP3   OH236548   6.409   9.594   1.757
12224TIP3    H136549   6.372   9.540   1.685
12224TIP3    H236550   6.506   9.581   1.750
12225TIP3   OH236551   6.702   9.631   3.255
12225TIP3    H136552   6.708   9.547   3.206
12225TIP3    H236553   6.646   9.682   3.192
12226TIP3   OH236554   6.697   9.433   3.052
12226TIP3    H136555   6.723   9.480   2.970
12226TIP3    H236556   6.602   9.414   3.033
12227TIP3   OH236557   7.325   9.950   3.306
12227TIP3    H136558   7.341   9.856   3.322
12227TIP3    H236559   7.408   9.975   3.265
12228TIP3   OH236560   6.557   9.771   3.465
12228TIP3    H136561   6.497   9.695   3.478
12228TIP3    H236562   6.605   9.745   3.384
12229TIP3   OH236563   6.830   9.202   3.113
12229TIP3    H136564   6.781   9.285   3.091
12229TIP3    H236565   6.760   9.135   3.101
12230TIP3   OH236566   6.952   9.713   3.335
12230TIP3    H136567   6.943   9.700   3.431
12230TIP3    H236568   6.863   9.682   3.308
12231TIP3   OH236569   7.198   9.663   3.189
12231TIP3    H136570   7.121   9.648   3.247
12231TIP3    H236571   7.272   9.626   3.243
12232TIP3   OH236572   7.414   9.596   3.343
12232TIP3    H136573   7.433   9.501   3.359
12232TIP3    H236574   7.421   9.634   3.432
12233TIP3   OH236575   6.407   9.548   3.522
12233TIP3    H136576   6.416   9.458   3.485
12233TIP3    H236577   6.444   9.534   3.612
12234TIP3   OH236578   6.923   9.214   3.371
12234TIP3    H136579   6.992   9.145   3.367
12234TIP3    H236580   6.884   9.206   3.282
12235TIP3   OH236581   6.989   9.429   3.530
12235TIP3    H136582   6.966   9.358   3.466
12235TIP3    H236583   6.910   9.487   3.524
12236TIP3   OH236584   7.223   9.326   1.536
12236TIP3    H136585   7.312   9.296   1.559
12236TIP3    H236586   7.169   9.245   1.538
12237TIP3   OH236587   6.138   9.608   3.500
12237TIP3    H136588   6.236   9.597   3.495
12237TIP3    H236589   6.115   9.521   3.539
12238TIP3   OH236590   0.406   1.944   6.994
12238TIP3    H136591   0.452   1.869   7.038
12238TIP3    H236592   0.454   1.955   6.912
12239TIP3   OH236593   7.374   9.313   2.024
12239TIP3    H136594   7.438   9.295   2.095
12239TIP3    H236595   7.327   9.228   2.018
12240TIP3   OH236596   6.102   9.285   2.830
12240TIP3    H136597   6.170   9.214   2.837
12240TIP3    H236598   6.159   9.363   2.819
12241TIP3   OH236599   5.907   9.570   2.907
12241TIP3    H136600   5.954   9.559   2.821
12241TIP3    H236601   5.935   9.660   2.929
12242TIP3   OH236602   5.891   9.068   2.401
12242TIP3    H136603   5.797   9.066   2.425
12242TIP3    H236604   5.891   9.124   2.320
12243TIP3   OH236605   6.111   9.147   3.215
12243TIP3    H136606   6.059   9.143   3.297
12243TIP3    H236607   6.046   9.186   3.153
12244TIP3   OH236608   7.756   9.368   2.933
12244TIP3    H136609   7.665   9.362   2.900
12244TIP3    H236610   7.790   9.278   2.910
12245TIP3   OH236611   6.959   9.281   2.556
12245TIP3    H136612   6.909   9.214   2.606
12245TIP3    H236613   7.024   9.227   2.508
12246TIP3   OH236614   7.478   9.168   2.460
12246TIP3    H136615   7.513   9.215   2.382
12246TIP3    H236616   7.381   9.177   2.448
12247TIP3   OH236617   7.575   9.275   2.220
12247TIP3    H136618   7.638   9.209   2.182
12247TIP3    H236619   7.628   9.355   2.211
12248TIP3   OH236620   6.202   8.989   2.572
12248TIP3    H136621   6.110   8.956   2.571
12248TIP3    H236622   6.252   8.904   2.568
12249TIP3   OH236623   5.989   8.857   2.218
12249TIP3    H136624   6.018   8.915   2.145
12249TIP3    H236625   5.958   8.922   2.284
12250TIP3   OH236626   6.645   9.021   2.450
12250TIP3    H136627   6.703   9.074   2.393
12250TIP3    H236628   6.662   9.060   2.537
12251TIP3   OH236629   7.198   9.166   2.432
12251TIP3    H136630   7.189   9.128   2.344
12251TIP3    H236631   7.182   9.088   2.489
12252TIP3   OH236632   7.219   9.082   1.994
12252TIP3    H136633   7.132   9.123   2.006
12252TIP3    H236634   7.206   8.998   2.043
12253TIP3   OH236635   6.104   9.019   1.982
12253TIP3    H136636   6.153   8.956   1.926
12253TIP3    H236637   6.176   9.073   2.019
12254TIP3   OH236638   6.619   9.193   2.079
12254TIP3    H136639   6.677   9.146   2.141
12254TIP3    H236640   6.639   9.286   2.106
12255TIP3   OH236641   6.409   9.270   3.463
12255TIP3    H136642   6.378   9.198   3.521
12255TIP3    H236643   6.504   9.272   3.487
12256TIP3   OH236644   6.658   9.266   3.580
12256TIP3    H136645   6.743   9.243   3.539
12256TIP3    H236646   6.648   9.195   3.646
12257TIP3   OH236647   7.482   9.328   3.369
12257TIP3    H136648   7.504   9.294   3.459
12257TIP3    H236649   7.569   9.322   3.324
12258TIP3   OH236650   2.223   0.669   7.836
12258TIP3    H136651   2.266   0.614   7.902
12258TIP3    H236652   2.240   0.757   7.875
12259TIP3   OH236653   1.842   1.094   7.860
12259TIP3    H136654   1.888   1.023   7.810
12259TIP3    H236655   1.871   1.079   7.951
12260TIP3   OH236656   2.264   0.886   8.015
12260TIP3    H136657   2.180   0.890   8.062
12260TIP3    H236658   2.270   0.976   7.977
12261TIP3   OH236659   1.981   0.932   7.687
12261TIP3    H136660   2.026   0.849   7.661
12261TIP3    H236661   2.043   0.998   7.649
12262TIP3   OH236662   2.090   0.694   7.591
12262TIP3    H136663   2.126   0.633   7.524
12262TIP3    H236664   2.157   0.688   7.663
12263TIP3   OH236665   2.514   0.805   8.361
12263TIP3    H136666   2.491   0.723   8.314
12263TIP3    H236667   2.492   0.875   8.297
12264TIP3   OH236668   2.721   0.448   8.204
12264TIP3    H136669   2.627   0.470   8.217
12264TIP3    H236670   2.733   0.462   8.109
12265TIP3   OH236671   2.301   0.745   7.014
12265TIP3    H136672   2.312   0.841   6.993
12265TIP3    H236673   2.393   0.713   6.999
12266TIP3   OH236674   2.744   1.143   8.400
12266TIP3    H136675   2.744   1.047   8.417
12266TIP3    H236676   2.662   1.169   8.448
12267TIP3   OH236677   1.612   1.067   7.484
12267TIP3    H136678   1.563   1.052   7.402
12267TIP3    H236679   1.581   1.156   7.512
12268TIP3   OH236680   1.816   0.960   7.135
12268TIP3    H136681   1.877   0.893   7.097
12268TIP3    H236682   1.850   0.967   7.226
12269TIP3   OH236683   1.866   1.013   7.404
12269TIP3    H136684   1.777   1.022   7.446
12269TIP3    H236685   1.925   1.009   7.481
12270TIP3   OH236686   2.428   1.496   8.500
12270TIP3    H136687   2.430   1.519   8.405
12270TIP3    H236688   2.510   1.541   8.531
12271TIP3   OH236689   2.463   0.577   8.192
12271TIP3    H136690   2.512   0.626   8.122
12271TIP3    H236691   2.372   0.594   8.167
12272TIP3   OH236692   2.759   0.852   8.452
12272TIP3    H136693   2.661   0.845   8.439
12272TIP3    H236694   2.788   0.822   8.363
12273TIP3   OH236695   2.238   0.811   7.275
12273TIP3    H136696   2.219   0.728   7.319
12273TIP3    H236697   2.251   0.781   7.182
12274TIP3   OH236698   2.018   0.554   7.173
12274TIP3    H136699   2.048   0.516   7.257
12274TIP3    H236700   1.921   0.544   7.180
12275TIP3   OH236701   2.271   1.179   8.339
12275TIP3    H136702   2.183   1.137   8.326
12275TIP3    H236703   2.263   1.254   8.277
12276TIP3   OH236704   2.334   1.020   6.997
12276TIP3    H136705   2.373   1.091   6.944
12276TIP3    H236706   2.253   1.066   7.027
12277TIP3   OH236707   2.160   0.480   7.423
12277TIP3    H136708   2.156   0.389   7.455
12277TIP3    H236709   2.253   0.480   7.390
12278TIP3   OH236710   2.288   1.149   7.934
12278TIP3    H136711   2.246   1.200   7.860
12278TIP3    H236712   2.382   1.173   7.917
12279TIP3   OH236713   1.974   0.781   7.006
12279TIP3    H136714   2.015   0.708   7.058
12279TIP3    H236715   2.023   0.775   6.921
12280TIP3   OH236716   2.325   0.279   7.026
12280TIP3    H136717   2.315   0.230   6.942
12280TIP3    H236718   2.287   0.366   6.999
12281TIP3   OH236719   2.536   1.251   7.893
12281TIP3    H136720   2.566   1.285   7.979
12281TIP3    H236721   2.598   1.294   7.832
12282TIP3   OH236722   2.570   1.271   8.174
12282TIP3    H136723   2.532   1.181   8.170
12282TIP3    H236724   2.646   1.253   8.232
12283TIP3   OH236725   2.429   0.467   7.374
12283TIP3    H136726   2.501   0.524   7.339
12283TIP3    H236727   2.477   0.420   7.446
12284TIP3   OH236728   2.560   0.331   7.579
12284TIP3    H136729   2.494   0.337   7.649
12284TIP3    H236730   2.639   0.371   7.621
12285TIP3   OH236731   2.602   0.712   8.000
12285TIP3    H136732   2.666   0.651   7.956
12285TIP3    H236733   2.609   0.792   7.943
12286TIP3   OH236734   2.448   1.018   8.197
12286TIP3    H136735   2.381   1.065   8.252
12286TIP3    H236736   2.393   0.972   8.131
12287TIP3   OH236737   2.494   0.235   7.226
12287TIP3    H136738   2.433   0.245   7.149
12287TIP3    H236739   2.468   0.314   7.277
12288TIP3   OH236740   2.647   0.600   8.564
12288TIP3    H136741   2.726   0.543   8.577
12288TIP3    H236742   2.686   0.682   8.531
12289TIP3   OH236743   2.841   0.410   8.603
12289TIP3    H136744   2.778   0.340   8.624
12289TIP3    H236745   2.927   0.366   8.614
12290TIP3   OH236746   2.124   1.111   7.549
12290TIP3    H136747   2.175   1.100   7.466
12290TIP3    H236748   2.173   1.182   7.593
12291TIP3   OH236749   2.025   1.368   8.457
12291TIP3    H136750   2.080   1.289   8.450
12291TIP3    H236751   2.068   1.413   8.533
12292TIP3   OH236752   1.780   1.228   8.147
12292TIP3    H136753   1.687   1.228   8.118
12292TIP3    H236754   1.781   1.311   8.199
12293TIP3   OH236755   2.028   1.152   8.205
12293TIP3    H136756   1.936   1.178   8.182
12293TIP3    H236757   2.076   1.232   8.176
12294TIP3   OH236758   2.220   1.350   8.128
12294TIP3    H136759   2.205   1.436   8.084
12294TIP3    H236760   2.247   1.293   8.053
12295TIP3   OH236761   1.555   0.939   7.213
12295TIP3    H136762   1.647   0.965   7.192
12295TIP3    H236763   1.549   0.861   7.156
12296TIP3   OH236764   2.267   1.080   7.317
12296TIP3    H136765   2.260   0.983   7.301
12296TIP3    H236766   2.227   1.115   7.235
12297TIP3   OH236767   2.499   1.228   8.500
12297TIP3    H136768   2.418   1.194   8.458
12297TIP3    H236769   2.478   1.323   8.506
12298TIP3   OH236770   3.763   0.597   7.272
12298TIP3    H136771   3.738   0.690   7.254
12298TIP3    H236772   3.681   0.552   7.246
12299TIP3   OH236773   3.761   0.597   7.650
12299TIP3    H136774   3.792   0.567   7.737
12299TIP3    H236775   3.717   0.517   7.617
12300TIP3   OH236776   3.059   0.498   8.015
12300TIP3    H136777   3.093   0.431   8.078
12300TIP3    H236778   3.136   0.554   8.007
12301TIP3   OH236779   4.003   0.899   7.333
12301TIP3    H136780   3.992   0.830   7.400
12301TIP3    H236781   4.031   0.975   7.387
12302TIP3   OH236782   3.031   0.901   7.745
12302TIP3    H136783   3.023   0.804   7.747
12302TIP3    H236784   3.127   0.911   7.740
12303TIP3   OH236785   2.729   0.096   7.540
12303TIP3    H136786   2.692   0.186   7.551
12303TIP3    H236787   2.664   0.059   7.480
12304TIP3   OH236788   2.802   0.392   7.691
12304TIP3    H136789   2.850   0.318   7.735
12304TIP3    H236790   2.868   0.422   7.627
12305TIP3   OH236791   3.651   1.361   7.348
12305TIP3    H136792   3.701   1.290   7.303
12305TIP3    H236793   3.647   1.328   7.438
12306TIP3   OH236794   3.560   0.822   7.701
12306TIP3    H136795   3.597   0.747   7.652
12306TIP3    H236796   3.645   0.867   7.724
12307TIP3   OH236797   3.975   0.335   7.735
12307TIP3    H136798   4.009   0.248   7.761
12307TIP3    H236799   3.943   0.318   7.644
12308TIP3   OH236800   2.944   0.188   7.806
12308TIP3    H136801   3.023   0.162   7.859
12308TIP3    H236802   2.962   0.132   7.727
12309TIP3   OH236803   3.387   0.386   7.601
12309TIP3    H136804   3.477   0.353   7.616
12309TIP3    H236805   3.341   0.305   7.570
12310TIP3   OH236806   4.614   0.323   7.892
12310TIP3    H136807   4.557   0.397   7.863
12310TIP3    H236808   4.679   0.367   7.949
12311TIP3   OH236809   3.659   0.821   7.140
12311TIP3    H136810   3.610   0.796   7.061
12311TIP3    H236811   3.615   0.905   7.164
12312TIP3   OH236812   3.416   0.741   7.935
12312TIP3    H136813   3.350   0.805   7.972
12312TIP3    H236814   3.456   0.794   7.863
12313TIP3   OH236815   3.181   0.093   7.904
12313TIP3    H136816   3.248   0.160   7.930
12313TIP3    H236817   3.224   0.047   7.831
12314TIP3   OH236818   3.240   0.934   8.025
12314TIP3    H136819   3.215   1.020   7.986
12314TIP3    H236820   3.162   0.920   8.083
12315TIP3   OH236821   2.633   0.625   7.264
12315TIP3    H136822   2.598   0.646   7.175
12315TIP3    H236823   2.666   0.712   7.295
12316TIP3   OH236824   4.076   1.141   7.503
12316TIP3    H136825   3.987   1.133   7.542
12316TIP3    H236826   4.069   1.227   7.458
12317TIP3   OH236827   3.782   1.190   7.179
12317TIP3    H136828   3.831   1.108   7.156
12317TIP3    H236829   3.840   1.256   7.136
12318TIP3   OH236830   3.922   0.974   7.080
12318TIP3    H136831   3.876   0.897   7.045
12318TIP3    H236832   3.957   0.940   7.165
12319TIP3   OH236833   4.302   1.057   7.846
12319TIP3    H136834   4.292   0.980   7.786
12319TIP3    H236835   4.286   1.132   7.785
12320TIP3   OH236836   3.591   0.445   7.100
12320TIP3    H136837   3.510   0.498   7.082
12320TIP3    H236838   3.638   0.453   7.016
12321TIP3   OH236839   3.560   0.235   6.810
12321TIP3    H136840   3.633   0.279   6.858
12321TIP3    H236841   3.574   0.142   6.832
12322TIP3   OH236842   4.497   0.690   7.691
12322TIP3    H136843   4.415   0.744   7.696
12322TIP3    H236844   4.526   0.711   7.600
12323TIP3   OH236845   3.940   0.531   7.076
12323TIP3    H136846   3.886   0.557   7.154
12323TIP3    H236847   4.023   0.503   7.120
12324TIP3   OH236848   4.173   0.579   7.979
12324TIP3    H136849   4.172   0.664   8.027
12324TIP3    H236850   4.088   0.586   7.930
12325TIP3   OH236851   3.174   0.531   7.490
12325TIP3    H136852   3.130   0.473   7.424
12325TIP3    H236853   3.249   0.475   7.519
12326TIP3   OH236854   3.302   0.941   7.640
12326TIP3    H136855   3.281   0.895   7.558
12326TIP3    H236856   3.393   0.909   7.659
12327TIP3   OH236857   3.313   0.498   7.848
12327TIP3    H136858   3.342   0.477   7.757
12327TIP3    H236859   3.355   0.585   7.866
12328TIP3   OH236860   3.835   1.139   7.622
12328TIP3    H136861   3.820   1.219   7.675
12328TIP3    H236862   3.821   1.066   7.686
12329TIP3   OH236863   3.446   1.058   8.169
12329TIP3    H136864   3.387   1.121   8.216
12329TIP3    H236865   3.379   1.005   8.121
12330TIP3   OH236866   3.789   0.381   6.902
12330TIP3    H136867   3.846   0.440   6.957
12330TIP3    H236868   3.813   0.411   6.811
12331TIP3   OH236869   3.193   0.626   8.264
12331TIP3    H136870   3.196   0.709   8.315
12331TIP3    H236871   3.100   0.600   8.277
12332TIP3   OH236872   3.524   1.071   7.176
12332TIP3    H136873   3.600   1.127   7.199
12332TIP3    H236874   3.461   1.134   7.138
12333TIP3   OH236875   3.242   1.228   8.256
12333TIP3    H136876   3.205   1.224   8.166
12333TIP3    H236877   3.163   1.206   8.312
12334TIP3   OH236878   3.038   0.378   7.296
12334TIP3    H136879   2.970   0.419   7.238
12334TIP3    H236880   3.005   0.287   7.304
12335TIP3   OH236881   4.095   0.999   6.495
12335TIP3    H136882   4.103   1.096   6.483
12335TIP3    H236883   4.188   0.971   6.483
12336TIP3   OH236884   2.822   0.756   8.205
12336TIP3    H136885   2.761   0.730   8.134
12336TIP3    H236886   2.859   0.670   8.233
12337TIP3   OH236887   2.674   0.945   7.844
12337TIP3    H136888   2.769   0.939   7.826
12337TIP3    H236889   2.669   1.029   7.893
12338TIP3   OH236890   4.540   1.399   7.889
12338TIP3    H136891   4.538   1.303   7.904
12338TIP3    H236892   4.457   1.425   7.936
12339TIP3   OH236893   3.646   1.187   8.026
12339TIP3    H136894   3.646   1.280   8.058
12339TIP3    H236895   3.574   1.149   8.081
12340TIP3   OH236896   3.404   1.318   6.977
12340TIP3    H136897   3.358   1.298   6.894
12340TIP3    H236898   3.372   1.407   6.999
12341TIP3   OH236899   2.843   1.166   7.360
12341TIP3    H136900   2.891   1.156   7.445
12341TIP3    H236901   2.785   1.088   7.364
12342TIP3   OH236902   3.607   1.217   6.619
12342TIP3    H136903   3.666   1.147   6.583
12342TIP3    H236904   3.641   1.226   6.711
12343TIP3   OH236905   3.656   1.265   6.889
12343TIP3    H136906   3.568   1.275   6.931
12343TIP3    H236907   3.707   1.224   6.961
12344TIP3   OH236908   4.431   0.526   8.179
12344TIP3    H136909   4.362   0.561   8.120
12344TIP3    H236910   4.456   0.444   8.135
12345TIP3   OH236911   3.027   0.939   8.193
12345TIP3    H136912   3.076   0.925   8.277
12345TIP3    H236913   2.953   0.875   8.202
12346TIP3   OH236914   4.103   0.396   8.180
12346TIP3    H136915   4.152   0.313   8.168
12346TIP3    H236916   4.127   0.448   8.101
12347TIP3   OH236917   3.852   0.442   6.644
12347TIP3    H136918   3.827   0.406   6.557
12347TIP3    H236919   3.931   0.495   6.621
12348TIP3   OH236920   3.365   0.275   7.998
12348TIP3    H136921   3.306   0.296   8.074
12348TIP3    H236922   3.348   0.354   7.941
12349TIP3   OH236923   3.228   0.187   7.503
12349TIP3    H136924   3.151   0.137   7.534
12349TIP3    H236925   3.251   0.138   7.421
12350TIP3   OH236926   3.736   0.255   7.233
12350TIP3    H136927   3.680   0.327   7.195
12350TIP3    H236928   3.785   0.227   7.154
12351TIP3   OH236929   3.909   0.580   8.286
12351TIP3    H136930   3.899   0.524   8.366
12351TIP3    H236931   4.006   0.578   8.278
12352TIP3   OH236932   3.894   0.282   7.475
12352TIP3    H136933   3.835   0.314   7.404
12352TIP3    H236934   3.924   0.199   7.436
12353TIP3   OH236935   3.178   0.319   8.196
12353TIP3    H136936   3.198   0.371   8.276
12353TIP3    H236937   3.144   0.236   8.232
12354TIP3   OH236938   3.900   0.532   7.902
12354TIP3    H136939   3.929   0.459   7.843
12354TIP3    H236940   3.873   0.484   7.981
12355TIP3   OH236941   2.998   0.041   7.578
12355TIP3    H136942   2.904   0.056   7.554
12355TIP3    H236943   3.011  -0.052   7.554
12356TIP3   OH236944   3.286   0.057   7.268
12356TIP3    H136945   3.372   0.041   7.227
12356TIP3    H236946   3.225   0.054   7.191
12357TIP3   OH236947   3.111   0.073   7.049
12357TIP3    H136948   3.043   0.022   7.001
12357TIP3    H236949   3.164   0.105   6.974
12358TIP3   OH236950   4.228   1.751   7.989
12358TIP3    H136951   4.227   1.775   7.895
12358TIP3    H236952   4.306   1.801   8.021
12359TIP3   OH236953   3.187   0.862   8.415
12359TIP3    H136954   3.267   0.893   8.461
12359TIP3    H236955   3.123   0.865   8.489
12360TIP3   OH236956   3.657   0.319   7.674
12360TIP3    H136957   3.713   0.263   7.620
12360TIP3    H236958   3.652   0.269   7.757
12361TIP3   OH236959   3.634   0.204   7.970
12361TIP3    H136960   3.543   0.239   7.976
12361TIP3    H236961   3.684   0.265   8.026
12362TIP3   OH236962   3.368   0.603   7.053
12362TIP3    H136963   3.296   0.536   7.043
12362TIP3    H236964   3.348   0.637   7.144
12363TIP3   OH236965   4.267   0.838   7.683
12363TIP3    H136966   4.291   0.887   7.601
12363TIP3    H236967   4.181   0.798   7.658
12364TIP3   OH236968   3.767   0.922   8.049
12364TIP3    H136969   3.782   0.897   8.141
12364TIP3    H236970   3.726   1.009   8.056
12365TIP3   OH236971   3.883   0.136   7.004
12365TIP3    H136972   3.980   0.144   7.017
12365TIP3    H236973   3.864   0.218   6.954
12366TIP3   OH236974   3.056   0.622   7.728
12366TIP3    H136975   3.095   0.595   7.642
12366TIP3    H236976   3.094   0.557   7.789
12367TIP3   OH236977   3.508   0.752   6.871
12367TIP3    H136978   3.463   0.839   6.879
12367TIP3    H236979   3.454   0.698   6.933
12368TIP3   OH236980   2.940   0.547   8.342
12368TIP3    H136981   2.951   0.527   8.437
12368TIP3    H236982   2.864   0.489   8.317
12369TIP3   OH236983   3.659   0.664   8.366
12369TIP3    H136984   3.591   0.612   8.319
12369TIP3    H236985   3.741   0.639   8.317
12370TIP3   OH236986   3.926   1.179   7.944
12370TIP3    H136987   3.829   1.178   7.956
12370TIP3    H236988   3.953   1.232   8.022
12371TIP3   OH236989   4.338   0.247   6.852
12371TIP3    H136990   4.278   0.199   6.791
12371TIP3    H236991   4.336   0.335   6.808
12372TIP3   OH236992   4.552   1.106   7.936
12372TIP3    H136993   4.454   1.103   7.926
12372TIP3    H236994   4.578   1.079   7.845
12373TIP3   OH236995   4.034   1.071   6.760
12373TIP3    H136996   4.010   1.002   6.824
12373TIP3    H236997   4.046   1.022   6.677
12374TIP3   OH236998   4.031   0.699   7.604
12374TIP3    H136999   3.937   0.674   7.614
12374TIP3    H237000   4.066   0.621   7.557
12375TIP3   OH237001   3.156   0.927   7.352
12375TIP3    H137002   3.159   1.009   7.300
12375TIP3    H237003   3.062   0.911   7.359
12376TIP3   OH237004   2.735   0.219   7.077
12376TIP3    H137005   2.769   0.310   7.070
12376TIP3    H237006   2.647   0.234   7.116
12377TIP3   OH237007   3.302   0.696   7.300
12377TIP3    H137008   3.263   0.784   7.317
12377TIP3    H237009   3.263   0.643   7.372
12378TIP3   OH237010   3.426   1.272   7.823
12378TIP3    H137011   3.466   1.345   7.772
12378TIP3    H237012   3.503   1.239   7.872
12379TIP3   OH237013   3.078   1.167   7.207
12379TIP3    H137014   2.991   1.175   7.251
12379TIP3    H237015   3.109   1.260   7.209
12380TIP3   OH237016   3.817   0.906   7.780
12380TIP3    H137017   3.809   0.905   7.878
12380TIP3    H237018   3.897   0.854   7.766
12381TIP3   OH237019   3.787   0.796   6.662
12381TIP3    H137020   3.839   0.772   6.742
12381TIP3    H237021   3.698   0.773   6.692
12382TIP3   OH237022   4.064   1.441   7.832
12382TIP3    H137023   3.985   1.384   7.823
12382TIP3    H237024   4.049   1.506   7.759
12383TIP3   OH237025   4.129   1.275   6.483
12383TIP3    H137026   4.168   1.348   6.432
12383TIP3    H237027   4.049   1.321   6.516
12384TIP3   OH237028   3.948   0.729   6.878
12384TIP3    H137029   3.938   0.665   6.951
12384TIP3    H237030   4.045   0.731   6.868
12385TIP3   OH237031   2.863   1.135   7.983
12385TIP3    H137032   2.917   1.060   8.012
12385TIP3    H237033   2.893   1.203   8.045
12386TIP3   OH237034   3.160   0.776   6.663
12386TIP3    H137035   3.166   0.684   6.632
12386TIP3    H237036   3.135   0.763   6.757
12387TIP3   OH237037   3.102   0.790   6.936
12387TIP3    H137038   3.168   0.758   6.998
12387TIP3    H237039   3.109   0.887   6.944
12388TIP3   OH237040   2.842   0.485   7.136
12388TIP3    H137041   2.773   0.526   7.192
12388TIP3    H237042   2.853   0.553   7.067
12389TIP3   OH237043   3.368   0.984   6.884
12389TIP3    H137044   3.282   1.011   6.919
12389TIP3    H237045   3.383   1.054   6.819
12390TIP3   OH237046   3.581   0.037   7.291
12390TIP3    H137047   3.622   0.125   7.279
12390TIP3    H237048   3.536   0.047   7.377
12391TIP3   OH237049   3.816   0.354   8.136
12391TIP3    H137050   3.835   0.434   8.188
12391TIP3    H237051   3.904   0.315   8.130
12392TIP3   OH237052   3.112   1.061   6.951
12392TIP3    H137053   3.080   1.129   6.887
12392TIP3    H237054   3.094   1.104   7.037
12393TIP3   OH237055   4.116   0.464   7.472
12393TIP3    H137056   4.044   0.400   7.487
12393TIP3    H237057   4.191   0.421   7.520
12394TIP3   OH237058   2.826   0.698   6.947
12394TIP3    H137059   2.895   0.767   6.951
12394TIP3    H237060   2.872   0.638   6.882
12395TIP3   OH237061   2.756  -0.056   7.060
12395TIP3    H137062   2.792   0.036   7.062
12395TIP3    H237063   2.664  -0.034   7.077
12396TIP3   OH237064   4.084   1.413   7.424
12396TIP3    H137065   4.041   1.460   7.349
12396TIP3    H237066   4.178   1.432   7.404
12397TIP3   OH237067   2.704   0.906   7.337
12397TIP3    H137068   2.623   0.937   7.380
12397TIP3    H237069   2.689   0.940   7.247
12398TIP3   OH237070   2.855   1.441   8.403
12398TIP3    H137071   2.941   1.440   8.450
12398TIP3    H237072   2.834   1.346   8.402
12399TIP3   OH237073   3.341   1.414   8.443
12399TIP3    H137074   3.434   1.390   8.455
12399TIP3    H237075   3.315   1.353   8.371
12400TIP3   OH237076   3.319   0.984   6.577
12400TIP3    H137077   3.263   0.913   6.616
12400TIP3    H237078   3.394   0.931   6.544
12401TIP3   OH237079   3.977   1.314   8.179
12401TIP3    H137080   3.969   1.245   8.248
12401TIP3    H237081   4.055   1.365   8.210
12402TIP3   OH237082   3.756   1.026   6.486
12402TIP3    H137083   3.803   0.964   6.544
12402TIP3    H237084   3.813   1.028   6.407
12403TIP3   OH237085   2.988   0.837   8.604
12403TIP3    H137086   3.002   0.741   8.595
12403TIP3    H237087   2.900   0.848   8.563
12404TIP3   OH237088   2.973   0.525   6.804
12404TIP3    H137089   3.008   0.456   6.861
12404TIP3    H237090   3.022   0.509   6.722
12405TIP3   OH237091   3.598   0.935   8.375
12405TIP3    H137092   3.552   0.946   8.290
12405TIP3    H237093   3.626   0.841   8.373
12406TIP3   OH237094   3.476   0.695   6.601
12406TIP3    H137095   3.473   0.711   6.697
12406TIP3    H237096   3.457   0.600   6.596
12407TIP3   OH237097   4.088   0.938   7.982
12407TIP3    H137098   4.160   0.987   7.937
12407TIP3    H237099   4.015   1.002   7.972
12408TIP3   OH237100   3.102   0.568   8.592
12408TIP3    H137101   3.184   0.524   8.563
12408TIP3    H237102   3.125   0.592   8.683
12409TIP3   OH237103   3.188   0.396   7.028
12409TIP3    H137104   3.147   0.362   7.109
12409TIP3    H237105   3.206   0.314   6.979
12410TIP3   OH237106   3.447   0.527   8.245
12410TIP3    H137107   3.357   0.567   8.246
12410TIP3    H237108   3.478   0.544   8.154
12411TIP3   OH237109   3.276   0.182   6.855
12411TIP3    H137110   3.240   0.196   6.764
12411TIP3    H237111   3.365   0.219   6.845
12412TIP3   OH237112   3.960   0.875   8.387
12412TIP3    H137113   4.035   0.849   8.332
12412TIP3    H237114   3.954   0.802   8.451
12413TIP3   OH237115   4.096   0.528   6.519
12413TIP3    H137116   4.072   0.483   6.436
12413TIP3    H237117   4.066   0.619   6.497
12414TIP3   OH237118   3.476   0.275   8.325
12414TIP3    H137119   3.569   0.257   8.306
12414TIP3    H237120   3.468   0.369   8.291
12415TIP3   OH237121   3.615   0.582   8.032
12415TIP3    H137122   3.690   0.596   7.973
12415TIP3    H237123   3.552   0.650   7.999
12416TIP3   OH237124   4.185   0.557   8.446
12416TIP3    H137125   4.218   0.468   8.432
12416TIP3    H237126   4.250   0.612   8.399
12417TIP3   OH237127   4.220   0.796   8.169
12417TIP3    H137128   4.160   0.850   8.112
12417TIP3    H237129   4.307   0.820   8.128
12418TIP3   OH237130   3.412   0.387   8.598
12418TIP3    H137131   3.339   0.324   8.613
12418TIP3    H237132   3.464   0.341   8.531
12419TIP3   OH237133   3.887   0.407   8.481
12419TIP3    H137134   3.850   0.382   8.568
12419TIP3    H237135   3.930   0.323   8.452
12420TIP3   OH237136   3.078   1.262   6.763
12420TIP3    H137137   3.174   1.259   6.743
12420TIP3    H237138   3.046   1.308   6.683
12421TIP3   OH237139   2.560   0.641   6.990
12421TIP3    H137140   2.653   0.664   6.967
12421TIP3    H237141   2.551   0.555   6.943
12422TIP3   OH237142   2.470   1.254   7.392
12422TIP3    H137143   2.404   1.190   7.357
12422TIP3    H237144   2.516   1.198   7.459
12423TIP3   OH237145   2.606   1.110   7.581
12423TIP3    H137146   2.603   1.032   7.638
12423TIP3    H237147   2.659   1.171   7.636
12424TIP3   OH237148   4.335   1.507   7.378
12424TIP3    H137149   4.362   1.540   7.465
12424TIP3    H237150   4.396   1.554   7.319
12425TIP3   OH237151   4.366   1.527   7.660
12425TIP3    H137152   4.324   1.438   7.656
12425TIP3    H237153   4.442   1.506   7.718
12426TIP3   OH237154   4.413   1.202   8.234
12426TIP3    H137155   4.339   1.211   8.297
12426TIP3    H237156   4.454   1.291   8.238
12427TIP3   OH237157   4.229   0.715   6.854
12427TIP3    H137158   4.298   0.779   6.827
12427TIP3    H237159   4.270   0.676   6.934
12428TIP3   OH237160   4.356   0.583   7.057
12428TIP3    H137161   4.292   0.541   7.118
12428TIP3    H237162   4.422   0.621   7.118
12429TIP3   OH237163   4.408   0.973   7.490
12429TIP3    H137164   4.463   0.911   7.439
12429TIP3    H237165   4.399   1.049   7.428
12430TIP3   OH237166   4.243   1.275   7.687
12430TIP3    H137167   4.172   1.318   7.738
12430TIP3    H237168   4.192   1.227   7.618
12431TIP3   OH237169   4.293   0.487   6.705
12431TIP3    H137170   4.222   0.497   6.637
12431TIP3    H237171   4.271   0.563   6.763
12432TIP3   OH237172   4.175   0.156   6.652
12432TIP3    H137173   4.126   0.228   6.609
12432TIP3    H237174   4.131   0.079   6.614
12433TIP3   OH237175   4.171   0.438   7.207
12433TIP3    H137176   4.184   0.342   7.213
12433TIP3    H237177   4.156   0.461   7.302
12434TIP3   OH237178   2.795   0.522   7.943
12434TIP3    H137179   2.798   0.489   7.851
12434TIP3    H237180   2.891   0.520   7.965
12435TIP3   OH237181   4.463   0.859   8.061
12435TIP3    H137182   4.538   0.796   8.049
12435TIP3    H237183   4.487   0.931   8.001
12436TIP3   OH237184   4.650   0.659   8.080
12436TIP3    H137185   4.583   0.609   8.130
12436TIP3    H237186   4.732   0.613   8.105
12437TIP3   OH237187   4.151   0.151   7.051
12437TIP3    H137188   4.197   0.116   7.131
12437TIP3    H237189   4.225   0.191   7.002
12438TIP3   OH237190   4.332   0.360   7.599
12438TIP3    H137191   4.421   0.372   7.558
12438TIP3    H237192   4.353   0.381   7.692
12439TIP3   OH237193   4.394   0.484   7.844
12439TIP3    H137194   4.311   0.526   7.875
12439TIP3    H237195   4.430   0.555   7.786
12440TIP3   OH237196   2.789   0.163   8.035
12440TIP3    H137197   2.837   0.161   7.950
12440TIP3    H237198   2.808   0.252   8.066
12441TIP3   OH237199   3.920   1.371   7.036
12441TIP3    H137200   3.973   1.356   6.955
12441TIP3    H237201   3.973   1.439   7.082
12442TIP3   OH237202   3.023   1.173   8.426
12442TIP3    H137203   2.930   1.147   8.411
12442TIP3    H237204   3.032   1.158   8.522
12443TIP3   OH237205   3.198   1.205   7.970
12443TIP3    H137206   3.150   1.282   7.932
12443TIP3    H237207   3.284   1.220   7.926
12444TIP3   OH237208   3.647   1.453   8.109
12444TIP3    H137209   3.688   1.456   8.198
12444TIP3    H237210   3.713   1.504   8.056
12445TIP3   OH237211   3.825   1.603   7.965
12445TIP3    H137212   3.898   1.553   7.925
12445TIP3    H237213   3.876   1.661   8.026
12446TIP3   OH237214   2.877   1.465   7.992
12446TIP3    H137215   2.788   1.501   7.969
12446TIP3    H237216   2.886   1.497   8.083
12447TIP3   OH237217   3.113   1.443   7.850
12447TIP3    H137218   3.027   1.457   7.896
12447TIP3    H237219   3.093   1.478   7.761
12448TIP3   OH237220   3.540   1.475   7.647
12448TIP3    H137221   3.470   1.496   7.583
12448TIP3    H237222   3.552   1.562   7.691
12449TIP3   OH237223   3.807   1.414   7.698
12449TIP3    H137224   3.712   1.430   7.680
12449TIP3    H237225   3.848   1.492   7.659
12450TIP3   OH237226   4.017   1.607   7.617
12450TIP3    H137227   4.002   1.691   7.569
12450TIP3    H237228   4.041   1.546   7.543
12451TIP3   OH237229   2.786   1.258   7.739
12451TIP3    H137230   2.815   1.236   7.831
12451TIP3    H237231   2.859   1.216   7.689
12452TIP3   OH237232   2.980   1.131   7.594
12452TIP3    H137233   2.997   1.046   7.642
12452TIP3    H237234   3.070   1.169   7.589
12453TIP3   OH237235   3.246   1.227   7.596
12453TIP3    H137236   3.278   1.136   7.583
12453TIP3    H237237   3.288   1.248   7.681
12454TIP3   OH237238   2.575   1.030   7.134
12454TIP3    H137239   2.492   0.995   7.096
12454TIP3    H237240   2.562   1.125   7.116
12455TIP3   OH237241   3.347   1.223   6.711
12455TIP3    H137242   3.436   1.244   6.675
12455TIP3    H237243   3.325   1.147   6.652
12456TIP3   OH237244   4.067   1.338   6.804
12456TIP3    H137245   4.057   1.240   6.790
12456TIP3    H237246   4.021   1.371   6.724
12457TIP3   OH237247   2.654   1.063   6.770
12457TIP3    H137248   2.652   1.084   6.865
12457TIP3    H237249   2.740   1.018   6.760
12458TIP3   OH237250   4.295   1.483   7.992
12458TIP3    H137251   4.215   1.451   7.945
12458TIP3    H237252   4.275   1.579   7.995
12459TIP3   OH237253   5.560   0.854   6.760
12459TIP3    H137254   5.533   0.946   6.741
12459TIP3    H237255   5.482   0.806   6.727
12460TIP3   OH237256   5.558   0.854   7.137
12460TIP3    H137257   5.586   0.821   7.224
12460TIP3    H237258   5.514   0.775   7.101
12461TIP3   OH237259   4.857   0.753   7.508
12461TIP3    H137260   4.890   0.685   7.570
12461TIP3    H237261   4.937   0.806   7.495
12462TIP3   OH237262   5.801   1.156   6.819
12462TIP3    H137263   5.786   1.087   6.885
12462TIP3    H237264   5.827   1.231   6.875
12463TIP3   OH237265   4.827   1.159   7.232
12463TIP3    H137266   4.819   1.061   7.234
12463TIP3    H237267   4.924   1.167   7.227
12464TIP3   OH237268   4.529   0.353   7.024
12464TIP3    H137269   4.484   0.439   7.037
12464TIP3    H237270   4.464   0.308   6.967
12465TIP3   OH237271   4.597   0.648   7.183
12465TIP3    H137272   4.645   0.573   7.224
12465TIP3    H237273   4.659   0.677   7.115
12466TIP3   OH237274   5.446   1.617   6.835
12466TIP3    H137275   5.497   1.546   6.790
12466TIP3    H237276   5.444   1.585   6.926
12467TIP3   OH237277   5.356   1.079   7.188
12467TIP3    H137278   5.392   1.004   7.139
12467TIP3    H237279   5.441   1.123   7.210
12468TIP3   OH237280   5.773   0.591   7.221
12468TIP3    H137281   5.802   0.503   7.246
12468TIP3    H237282   5.738   0.577   7.131
12469TIP3   OH237283   4.740   0.442   7.293
12469TIP3    H137284   4.821   0.418   7.343
12469TIP3    H237285   4.757   0.388   7.213
12470TIP3   OH237286   5.182   0.643   7.088
12470TIP3    H137287   5.273   0.610   7.103
12470TIP3    H237288   5.137   0.561   7.057
12471TIP3   OH237289   6.414   0.582   7.376
12471TIP3    H137290   6.354   0.654   7.349
12471TIP3    H237291   6.467   0.624   7.447
12472TIP3   OH237292   5.456   1.078   6.629
12472TIP3    H137293   5.408   1.050   6.549
12472TIP3    H237294   5.410   1.162   6.650
12473TIP3   OH237295   5.211   0.998   7.421
12473TIP3    H137296   5.146   1.062   7.458
12473TIP3    H237297   5.251   1.051   7.349
12474TIP3   OH237298   4.976   0.351   7.390
12474TIP3    H137299   5.045   0.414   7.420
12474TIP3    H237300   5.023   0.301   7.322
12475TIP3   OH237301   5.036   1.191   7.513
12475TIP3    H137302   5.011   1.277   7.473
12475TIP3    H237303   4.958   1.176   7.570
12476TIP3   OH237304   4.434   0.883   6.750
12476TIP3    H137305   4.392   0.911   6.667
12476TIP3    H237306   4.464   0.969   6.788
12477TIP3   OH237307   5.873   1.397   6.989
12477TIP3    H137308   5.783   1.390   7.029
12477TIP3    H237309   5.866   1.484   6.945
12478TIP3   OH237310   5.578   1.446   6.667
12478TIP3    H137311   5.627   1.364   6.643
12478TIP3    H237312   5.636   1.512   6.622
12479TIP3   OH237313   5.719   1.231   6.566
12479TIP3    H137314   5.676   1.153   6.530
12479TIP3    H237315   5.753   1.197   6.651
12480TIP3   OH237316   6.100   1.312   7.334
12480TIP3    H137317   6.088   1.236   7.273
12480TIP3    H237318   6.080   1.388   7.274
12481TIP3   OH237319   5.390   0.707   6.589
12481TIP3    H137320   5.308   0.755   6.565
12481TIP3    H237321   5.435   0.701   6.503
12482TIP3   OH237322   5.344   0.493   6.312
12482TIP3    H137323   5.419   0.538   6.354
12482TIP3    H237324   5.392   0.423   6.263
12483TIP3   OH237325   6.294   0.947   7.179
12483TIP3    H137326   6.211   1.000   7.183
12483TIP3    H237327   6.323   0.969   7.088
12484TIP3   OH237328   5.737   0.790   6.562
12484TIP3    H137329   5.682   0.815   6.640
12484TIP3    H237330   5.819   0.761   6.606
12485TIP3   OH237331   5.970   0.835   7.465
12485TIP3    H137332   5.967   0.920   7.512
12485TIP3    H237333   5.885   0.839   7.417
12486TIP3   OH237334   4.971   0.788   6.977
12486TIP3    H137335   4.928   0.730   6.911
12486TIP3    H237336   5.046   0.732   7.006
12487TIP3   OH237337   5.099   1.199   7.126
12487TIP3    H137338   5.078   1.151   7.045
12487TIP3    H237339   5.190   1.167   7.146
12488TIP3   OH237340   5.108   0.754   7.336
12488TIP3    H137341   5.138   0.733   7.245
12488TIP3    H237342   5.150   0.841   7.353
12489TIP3   OH237343   5.631   1.395   7.108
12489TIP3    H137344   5.617   1.476   7.161
12489TIP3    H237345   5.617   1.323   7.173
12490TIP3   OH237346   5.242   1.314   7.656
12490TIP3    H137347   5.183   1.378   7.703
12490TIP3    H237348   5.176   1.261   7.608
12491TIP3   OH237349   5.581   0.639   6.391
12491TIP3    H137350   5.640   0.697   6.443
12491TIP3    H237351   5.607   0.665   6.299
12492TIP3   OH237352   4.994   0.880   7.753
12492TIP3    H137353   4.997   0.963   7.803
12492TIP3    H237354   4.899   0.857   7.759
12493TIP3   OH237355   5.320   1.328   6.661
12493TIP3    H137356   5.396   1.383   6.686
12493TIP3    H237357   5.257   1.393   6.627
12494TIP3   OH237358   5.038   1.485   7.743
12494TIP3    H137359   5.002   1.481   7.652
12494TIP3    H237360   4.959   1.463   7.797
12495TIP3   OH237361   4.835   0.637   6.783
12495TIP3    H137362   4.765   0.671   6.724
12495TIP3    H237363   4.807   0.545   6.797
12496TIP3   OH237364   5.891   1.257   5.982
12496TIP3    H137365   5.901   1.354   5.970
12496TIP3    H237366   5.984   1.227   5.970
12497TIP3   OH237367   4.616   1.015   7.689
12497TIP3    H137368   4.553   0.990   7.619
12497TIP3    H237369   4.654   0.928   7.716
12498TIP3   OH237370   4.471   1.205   7.324
12498TIP3    H137371   4.567   1.199   7.314
12498TIP3    H237372   4.461   1.286   7.377
12499TIP3   OH237373   6.337   1.656   7.379
12499TIP3    H137374   6.333   1.560   7.391
12499TIP3    H237375   6.253   1.683   7.423
12500TIP3   OH237376   5.442   1.444   7.513
12500TIP3    H137377   5.442   1.537   7.545
12500TIP3    H237378   5.371   1.405   7.568
12501TIP3   OH237379   5.200   1.574   6.464
12501TIP3    H137380   5.153   1.556   6.380
12501TIP3    H237381   5.168   1.664   6.487
12502TIP3   OH237382   4.639   1.423   6.847
12502TIP3    H137383   4.688   1.413   6.932
12502TIP3    H237384   4.578   1.347   6.853
12503TIP3   OH237385   5.403   1.473   6.105
12503TIP3    H137386   5.463   1.403   6.071
12503TIP3    H237387   5.436   1.483   6.197
12504TIP3   OH237388   5.452   1.521   6.375
12504TIP3    H137389   5.364   1.531   6.419
12504TIP3    H237390   5.504   1.481   6.446
12505TIP3   OH237391   6.228   0.784   7.665
12505TIP3    H137392   6.155   0.821   7.613
12505TIP3    H237393   6.244   0.700   7.621
12506TIP3   OH237394   4.823   1.196   7.680
12506TIP3    H137395   4.872   1.180   7.763
12506TIP3    H237396   4.748   1.133   7.688
12507TIP3   OH237397   5.910   0.655   7.673
12507TIP3    H137398   5.941   0.565   7.652
12507TIP3    H237399   5.920   0.703   7.588
12508TIP3   OH237400   5.659   0.698   6.137
12508TIP3    H137401   5.620   0.674   6.051
12508TIP3    H237402   5.737   0.749   6.108
12509TIP3   OH237403   5.161   0.530   7.488
12509TIP3    H137404   5.100   0.551   7.562
12509TIP3    H237405   5.145   0.608   7.430
12510TIP3   OH237406   5.023   0.445   6.988
12510TIP3    H137407   4.948   0.392   7.020
12510TIP3    H237408   5.048   0.395   6.907
12511TIP3   OH237409   5.532   0.511   6.720
12511TIP3    H137410   5.477   0.583   6.680
12511TIP3    H237411   5.579   0.477   6.641
12512TIP3   OH237412   5.702   0.832   7.778
12512TIP3    H137413   5.697   0.780   7.861
12512TIP3    H237414   5.799   0.833   7.767
12513TIP3   OH237415   5.692   0.539   6.959
12513TIP3    H137416   5.631   0.572   6.890
12513TIP3    H237417   5.718   0.455   6.920
12514TIP3   OH237418   4.977   0.567   7.690
12514TIP3    H137419   5.003   0.621   7.766
12514TIP3    H237420   4.974   0.478   7.728
12515TIP3   OH237421   5.701   0.787   7.392
12515TIP3    H137422   5.728   0.714   7.330
12515TIP3    H237423   5.664   0.736   7.466
12516TIP3   OH237424   4.794   0.298   7.063
12516TIP3    H137425   4.700   0.313   7.041
12516TIP3    H237426   4.803   0.203   7.047
12517TIP3   OH237427   5.083   0.316   6.752
12517TIP3    H137428   5.170   0.294   6.716
12517TIP3    H237429   5.025   0.309   6.674
12518TIP3   OH237430   4.896   0.333   6.530
12518TIP3    H137431   4.837   0.281   6.473
12518TIP3    H237432   4.958   0.367   6.463
12519TIP3   OH237433   6.024   2.008   7.478
12519TIP3    H137434   6.023   2.026   7.381
12519TIP3    H237435   6.099   2.062   7.506
12520TIP3   OH237436   4.982   1.118   7.900
12520TIP3    H137437   5.062   1.149   7.947
12520TIP3    H237438   4.918   1.120   7.974
12521TIP3   OH237439   5.453   0.577   7.163
12521TIP3    H137440   5.504   0.515   7.110
12521TIP3    H237441   5.448   0.530   7.249
12522TIP3   OH237442   5.435   0.474   7.437
12522TIP3    H137443   5.341   0.494   7.458
12522TIP3    H237444   5.482   0.521   7.508
12523TIP3   OH237445   5.160   0.860   6.538
12523TIP3    H137446   5.089   0.794   6.528
12523TIP3    H237447   5.144   0.893   6.630
12524TIP3   OH237448   6.063   1.094   7.170
12524TIP3    H137449   6.087   1.143   7.089
12524TIP3    H237450   5.977   1.054   7.145
12525TIP3   OH237451   5.565   1.179   7.535
12525TIP3    H137452   5.577   1.152   7.627
12525TIP3    H237453   5.523   1.266   7.543
12526TIP3   OH237454   5.679   0.394   6.499
12526TIP3    H137455   5.777   0.405   6.508
12526TIP3    H237456   5.657   0.470   6.441
12527TIP3   OH237457   4.853   0.879   7.215
12527TIP3    H137458   4.892   0.852   7.130
12527TIP3    H237459   4.891   0.814   7.276
12528TIP3   OH237460   5.305   1.009   6.357
12528TIP3    H137461   5.258   1.095   6.366
12528TIP3    H237462   5.252   0.952   6.417
12529TIP3   OH237463   4.731   0.806   7.829
12529TIP3    H137464   4.759   0.790   7.921
12529TIP3    H237465   4.665   0.736   7.814
12530TIP3   OH237466   5.451   0.917   7.850
12530TIP3    H137467   5.388   0.856   7.806
12530TIP3    H237468   5.535   0.894   7.805
12531TIP3   OH237469   5.723   1.434   7.431
12531TIP3    H137470   5.626   1.434   7.442
12531TIP3    H237471   5.750   1.488   7.509
12532TIP3   OH237472   6.135   0.504   6.340
12532TIP3    H137473   6.072   0.457   6.281
12532TIP3    H237474   6.132   0.592   6.296
12533TIP3   OH237475   6.349   1.362   7.423
12533TIP3    H137476   6.251   1.360   7.413
12533TIP3    H237477   6.375   1.335   7.332
12534TIP3   OH237478   5.830   1.328   6.247
12534TIP3    H137479   5.806   1.259   6.311
12534TIP3    H237480   5.842   1.279   6.164
12535TIP3   OH237481   5.828   0.956   7.092
12535TIP3    H137482   5.734   0.930   7.102
12535TIP3    H237483   5.862   0.877   7.044
12536TIP3   OH237484   4.952   1.183   6.838
12536TIP3    H137485   4.954   1.265   6.786
12536TIP3    H237486   4.857   1.169   6.848
12537TIP3   OH237487   4.516   0.487   6.540
12537TIP3    H137488   4.565   0.569   6.560
12537TIP3    H237489   4.440   0.496   6.602
12538TIP3   OH237490   5.097   0.952   6.785
12538TIP3    H137491   5.058   1.040   6.804
12538TIP3    H237492   5.060   0.899   6.859
12539TIP3   OH237493   5.222   1.529   7.310
12539TIP3    H137494   5.262   1.602   7.258
12539TIP3    H237495   5.299   1.496   7.359
12540TIP3   OH237496   4.873   1.424   6.692
12540TIP3    H137497   4.787   1.431   6.738
12540TIP3    H237498   4.905   1.516   6.696
12541TIP3   OH237499   5.613   1.163   7.266
12541TIP3    H137500   5.605   1.162   7.364
12541TIP3    H237501   5.692   1.109   7.253
12542TIP3   OH237502   5.583   1.057   6.150
12542TIP3    H137503   5.637   1.031   6.228
12542TIP3    H237504   5.495   1.027   6.180
12543TIP3   OH237505   5.862   1.698   7.317
12543TIP3    H137506   5.782   1.643   7.308
12543TIP3    H237507   5.847   1.764   7.246
12544TIP3   OH237508   5.926   1.533   5.970
12544TIP3    H137509   5.968   1.608   5.925
12544TIP3    H237510   5.845   1.578   6.002
12545TIP3   OH237511   5.744   0.990   6.365
12545TIP3    H137512   5.733   0.923   6.436
12545TIP3    H237513   5.841   0.987   6.354
12546TIP3   OH237514   4.661   1.393   7.469
12546TIP3    H137515   4.713   1.316   7.498
12546TIP3    H237516   4.690   1.460   7.532
12547TIP3   OH237517   4.951   1.037   6.148
12547TIP3    H137518   4.967   0.946   6.119
12547TIP3    H237519   4.934   1.024   6.244
12548TIP3   OH237520   4.898   1.041   6.421
12548TIP3    H137521   4.967   1.011   6.482
12548TIP3    H237522   4.904   1.139   6.429
12549TIP3   OH237523   4.630   0.733   6.621
12549TIP3    H137524   4.568   0.779   6.681
12549TIP3    H237525   4.650   0.804   6.558
12550TIP3   OH237526   5.162   1.239   6.369
12550TIP3    H137527   5.076   1.267   6.406
12550TIP3    H237528   5.180   1.312   6.309
12551TIP3   OH237529   5.377   0.294   6.785
12551TIP3    H137530   5.417   0.381   6.765
12551TIP3    H237531   5.333   0.310   6.870
12552TIP3   OH237532   5.619   0.617   7.609
12552TIP3    H137533   5.627   0.690   7.673
12552TIP3    H237534   5.705   0.575   7.618
12553TIP3   OH237535   4.904   1.315   6.437
12553TIP3    H137536   4.874   1.384   6.374
12553TIP3    H237537   4.889   1.358   6.523
12554TIP3   OH237538   5.913   0.720   6.959
12554TIP3    H137539   5.840   0.656   6.972
12554TIP3    H237540   5.987   0.675   7.007
12555TIP3   OH237541   4.623   0.949   6.430
12555TIP3    H137542   4.688   1.020   6.441
12555TIP3    H237543   4.670   0.894   6.364
12556TIP3   OH237544   4.549   0.198   6.548
12556TIP3    H137545   4.590   0.287   6.551
12556TIP3    H237546   4.463   0.218   6.588
12557TIP3   OH237547   5.882   1.668   6.910
12557TIP3    H137548   5.839   1.714   6.834
12557TIP3    H237549   5.976   1.688   6.890
12558TIP3   OH237550   4.498   1.159   6.822
12558TIP3    H137551   4.422   1.191   6.872
12558TIP3    H237552   4.478   1.198   6.734
12559TIP3   OH237553   4.650   1.697   7.889
12559TIP3    H137554   4.736   1.697   7.937
12559TIP3    H237555   4.629   1.602   7.889
12560TIP3   OH237556   5.136   1.667   7.933
12560TIP3    H137557   5.230   1.647   7.941
12560TIP3    H237558   5.111   1.609   7.859
12561TIP3   OH237559   5.115   1.241   6.062
12561TIP3    H137560   5.058   1.171   6.103
12561TIP3    H237561   5.191   1.186   6.035
12562TIP3   OH237562   5.774   1.570   7.665
12562TIP3    H137563   5.764   1.501   7.735
12562TIP3    H237564   5.850   1.622   7.698
12563TIP3   OH237565   5.553   1.283   5.974
12563TIP3    H137566   5.594   1.217   6.034
12563TIP3    H237567   5.614   1.281   5.898
12564TIP3   OH237568   4.783   1.103   8.090
12564TIP3    H137569   4.800   1.007   8.093
12564TIP3    H237570   4.695   1.106   8.047
12565TIP3   OH237571   4.759   0.759   6.282
12565TIP3    H137572   4.812   0.722   6.354
12565TIP3    H237573   4.827   0.763   6.211
12566TIP3   OH237574   5.393   1.191   7.862
12566TIP3    H137575   5.348   1.204   7.776
12566TIP3    H237576   5.421   1.097   7.858
12567TIP3   OH237577   5.264   0.958   6.088
12567TIP3    H137578   5.268   0.970   6.185
12567TIP3    H237579   5.268   0.860   6.084
12568TIP3   OH237580   5.885   1.195   7.470
12568TIP3    H137581   5.955   1.245   7.424
12568TIP3    H237582   5.810   1.256   7.460
12569TIP3   OH237583   4.898   0.833   8.073
12569TIP3    H137584   4.972   0.774   8.053
12569TIP3    H237585   4.926   0.868   8.161
12570TIP3   OH237586   4.969   0.659   6.506
12570TIP3    H137587   4.945   0.618   6.591
12570TIP3    H237588   5.004   0.582   6.456
12571TIP3   OH237589   5.237   0.757   7.728
12571TIP3    H137590   5.154   0.809   7.731
12571TIP3    H237591   5.277   0.785   7.643
12572TIP3   OH237592   5.067   0.450   6.348
12572TIP3    H137593   5.043   0.457   6.253
12572TIP3    H237594   5.165   0.458   6.342
12573TIP3   OH237595   5.754   1.131   7.873
12573TIP3    H137596   5.831   1.105   7.820
12573TIP3    H237597   5.750   1.060   7.939
12574TIP3   OH237598   5.895   0.789   6.007
12574TIP3    H137599   5.869   0.740   5.926
12574TIP3    H237600   5.861   0.878   5.982
12575TIP3   OH237601   5.319   0.514   7.813
12575TIP3    H137602   5.281   0.437   7.765
12575TIP3    H237603   5.287   0.591   7.760
12576TIP3   OH237604   5.407   0.843   7.526
12576TIP3    H137605   5.480   0.850   7.463
12576TIP3    H237606   5.344   0.908   7.490
12577TIP3   OH237607   5.985   0.816   7.938
12577TIP3    H137608   6.009   0.726   7.912
12577TIP3    H237609   6.044   0.871   7.886
12578TIP3   OH237610   6.017   1.052   7.656
12578TIP3    H137611   5.956   1.105   7.600
12578TIP3    H237612   6.103   1.077   7.615
12579TIP3   OH237613   5.215   0.639   8.082
12579TIP3    H137614   5.138   0.581   8.077
12579TIP3    H237615   5.260   0.619   7.999
12580TIP3   OH237616   5.701   0.661   7.978
12580TIP3    H137617   5.617   0.632   8.018
12580TIP3    H237618   5.724   0.580   7.927
12581TIP3   OH237619   4.874   1.518   6.249
12581TIP3    H137620   4.970   1.514   6.230
12581TIP3    H237621   4.843   1.565   6.169
12582TIP3   OH237622   4.355   0.898   6.466
12582TIP3    H137623   4.450   0.921   6.454
12582TIP3    H237624   4.351   0.809   6.426
12583TIP3   OH237625   4.269   1.511   6.878
12583TIP3    H137626   4.201   1.448   6.845
12583TIP3    H237627   4.313   1.455   6.946
12584TIP3   OH237628   4.405   1.365   7.066
12584TIP3    H137629   4.394   1.290   7.125
12584TIP3    H237630   4.456   1.426   7.124
12585TIP3   OH237631   6.134   1.759   6.864
12585TIP3    H137632   6.153   1.797   6.952
12585TIP3    H237633   6.186   1.817   6.807
12586TIP3   OH237634   6.163   1.779   7.143
12586TIP3    H137635   6.122   1.690   7.142
12586TIP3    H237636   6.236   1.764   7.204
12587TIP3   OH237637   6.211   1.457   7.722
12587TIP3    H137638   6.135   1.467   7.784
12587TIP3    H237639   6.249   1.548   7.724
12588TIP3   OH237640   6.026   0.972   6.341
12588TIP3    H137641   6.095   1.036   6.315
12588TIP3    H237642   6.066   0.932   6.421
12589TIP3   OH237643   6.153   0.839   6.544
12589TIP3    H137644   6.087   0.797   6.603
12589TIP3    H237645   6.216   0.879   6.606
12590TIP3   OH237646   6.206   1.231   6.979
12590TIP3    H137647   6.258   1.169   6.925
12590TIP3    H237648   6.195   1.306   6.918
12591TIP3   OH237649   6.039   1.529   7.175
12591TIP3    H137650   5.968   1.576   7.224
12591TIP3    H237651   5.987   1.483   7.105
12592TIP3   OH237652   6.090   0.744   6.192
12592TIP3    H137653   6.019   0.753   6.124
12592TIP3    H237654   6.066   0.820   6.249
12593TIP3   OH237655   5.969   0.415   6.143
12593TIP3    H137656   5.941   0.483   6.080
12593TIP3    H237657   5.936   0.335   6.101
12594TIP3   OH237658   5.969   0.696   6.693
12594TIP3    H137659   5.974   0.599   6.696
12594TIP3    H237660   5.954   0.716   6.788
12595TIP3   OH237661   4.593   0.770   7.437
12595TIP3    H137662   4.593   0.741   7.344
12595TIP3    H237663   4.690   0.773   7.455
12596TIP3   OH237664   6.259   1.116   7.548
12596TIP3    H137665   6.333   1.054   7.534
12596TIP3    H237666   6.281   1.189   7.487
12597TIP3   OH237667   6.446   0.916   7.563
12597TIP3    H137668   6.377   0.868   7.613
12597TIP3    H237669   6.526   0.872   7.593
12598TIP3   OH237670   5.950   0.411   6.539
12598TIP3    H137671   5.996   0.375   6.618
12598TIP3    H237672   6.023   0.449   6.488
12599TIP3   OH237673   6.130   0.615   7.087
12599TIP3    H137674   6.219   0.627   7.046
12599TIP3    H237675   6.149   0.639   7.179
12600TIP3   OH237676   6.192   0.739   7.331
12600TIP3    H137677   6.109   0.780   7.362
12600TIP3    H237678   6.228   0.811   7.274
12601TIP3   OH237679   4.583   0.428   7.519
12601TIP3    H137680   4.630   0.414   7.434
12601TIP3    H237681   4.616   0.515   7.543
12602TIP3   OH237682   5.713   1.627   6.520
12602TIP3    H137683   5.771   1.614   6.442
12602TIP3    H237684   5.763   1.694   6.572
12603TIP3   OH237685   4.818   1.431   7.912
12603TIP3    H137686   4.727   1.404   7.894
12603TIP3    H237687   4.826   1.414   8.007
12604TIP3   OH237688   4.995   1.462   7.457
12604TIP3    H137689   4.946   1.538   7.419
12604TIP3    H237690   5.081   1.477   7.413
12605TIP3   OH237691   5.443   1.710   7.595
12605TIP3    H137692   5.484   1.712   7.684
12605TIP3    H237693   5.509   1.760   7.543
12606TIP3   OH237694   5.621   1.859   7.453
12606TIP3    H137695   5.693   1.811   7.410
12606TIP3    H237696   5.671   1.918   7.513
12607TIP3   OH237697   4.673   1.723   7.479
12607TIP3    H137698   4.584   1.758   7.456
12607TIP3    H237699   4.681   1.754   7.570
12608TIP3   OH237700   4.909   1.700   7.337
12608TIP3    H137701   4.823   1.714   7.383
12608TIP3    H237702   4.889   1.734   7.248
12609TIP3   OH237703   5.335   1.731   7.134
12609TIP3    H137704   5.266   1.754   7.070
12609TIP3    H237705   5.349   1.818   7.178
12610TIP3   OH237706   5.604   1.670   7.185
12610TIP3    H137707   5.509   1.688   7.166
12610TIP3    H237708   5.647   1.747   7.146
12611TIP3   OH237709   5.806   1.859   7.100
12611TIP3    H137710   5.798   1.944   7.052
12611TIP3    H237711   5.836   1.800   7.028
12612TIP3   OH237712   4.584   1.517   7.226
12612TIP3    H137713   4.611   1.492   7.317
12612TIP3    H237714   4.656   1.473   7.175
12613TIP3   OH237715   4.777   1.387   7.080
12613TIP3    H137716   4.793   1.303   7.129
12613TIP3    H237717   4.867   1.424   7.077
12614TIP3   OH237718   5.042   1.483   7.083
12614TIP3    H137719   5.074   1.392   7.071
12614TIP3    H237720   5.084   1.505   7.168
12615TIP3   OH237721   4.373   1.285   6.617
12615TIP3    H137722   4.288   1.253   6.582
12615TIP3    H237723   4.360   1.380   6.605
12616TIP3   OH237724   5.143   1.479   6.197
12616TIP3    H137725   5.232   1.499   6.163
12616TIP3    H237726   5.121   1.403   6.139
12617TIP3   OH237727   5.864   1.595   6.289
12617TIP3    H137728   5.854   1.497   6.278
12617TIP3    H237729   5.818   1.627   6.210
12618TIP3   OH237730   4.448   1.317   6.257
12618TIP3    H137731   4.445   1.341   6.351
12618TIP3    H237732   4.537   1.275   6.249
12619TIP3   OH237733   6.091   1.740   7.479
12619TIP3    H137734   6.012   1.708   7.431
12619TIP3    H237735   6.072   1.836   7.480
12620TIP3   OH237736   7.356   1.111   6.247
12620TIP3    H137737   7.329   1.203   6.228
12620TIP3    H237738   7.278   1.063   6.214
12621TIP3   OH237739   7.355   1.111   6.623
12621TIP3    H137740   7.384   1.079   6.710
12621TIP3    H237741   7.310   1.032   6.588
12622TIP3   OH237742   6.654   1.011   6.990
12622TIP3    H137743   6.689   0.945   7.053
12622TIP3    H237744   6.731   1.068   6.979
12623TIP3   OH237745   7.597   1.412   6.306
12623TIP3    H137746   7.583   1.343   6.372
12623TIP3    H237747   7.624   1.488   6.361
12624TIP3   OH237748   6.625   1.416   6.718
12624TIP3    H137749   6.615   1.318   6.721
12624TIP3    H237750   6.721   1.424   6.713
12625TIP3   OH237751   6.326   0.611   6.510
12625TIP3    H137752   6.279   0.696   6.524
12625TIP3    H237753   6.262   0.565   6.453
12626TIP3   OH237754   6.394   0.906   6.671
12626TIP3    H137755   6.443   0.830   6.711
12626TIP3    H237756   6.453   0.932   6.599
12627TIP3   OH237757   7.244   1.876   6.322
12627TIP3    H137758   7.293   1.804   6.277
12627TIP3    H237759   7.238   1.842   6.412
12628TIP3   OH237760   7.153   1.336   6.675
12628TIP3    H137761   7.188   1.260   6.625
12628TIP3    H237762   7.237   1.380   6.698
12629TIP3   OH237763   7.566   0.850   6.707
12629TIP3    H137764   7.602   0.764   6.734
12629TIP3    H237765   7.535   0.832   6.617
12630TIP3   OH237766   6.537   0.698   6.781
12630TIP3    H137767   6.617   0.672   6.832
12630TIP3    H237768   6.553   0.644   6.701
12631TIP3   OH237769   6.978   0.900   6.574
12631TIP3    H137770   7.069   0.866   6.589
12631TIP3    H237771   6.932   0.818   6.544
12632TIP3   OH237772   8.210   0.839   6.862
12632TIP3    H137773   8.150   0.912   6.837
12632TIP3    H237774   8.263   0.876   6.934
12633TIP3   OH237775   7.252   1.335   6.115
12633TIP3    H137776   7.204   1.307   6.036
12633TIP3    H237777   7.206   1.418   6.137
12634TIP3   OH237778   7.009   1.255   6.909
12634TIP3    H137779   6.943   1.318   6.945
12634TIP3    H237780   7.048   1.307   6.836
12635TIP3   OH237781   6.775   0.603   6.877
12635TIP3    H137782   6.839   0.671   6.905
12635TIP3    H237783   6.818   0.564   6.800
12636TIP3   OH237784   6.833   1.448   6.999
12636TIP3    H137785   6.807   1.533   6.960
12636TIP3    H237786   6.754   1.433   7.057
12637TIP3   OH237787   6.231   1.140   6.237
12637TIP3    H137788   6.188   1.166   6.154
12637TIP3    H237789   6.260   1.225   6.274
12638TIP3   OH237790   7.669   1.654   6.477
12638TIP3    H137791   7.580   1.646   6.516
12638TIP3    H237792   7.662   1.740   6.431
12639TIP3   OH237793   7.374   1.703   6.153
12639TIP3    H137794   7.423   1.621   6.130
12639TIP3    H237795   7.433   1.769   6.109
12640TIP3   OH237796   7.515   1.488   6.053
12640TIP3    H137797   7.470   1.410   6.017
12640TIP3    H237798   7.549   1.453   6.138
12641TIP3   OH237799   7.895   1.570   6.820
12641TIP3    H137800   7.884   1.493   6.760
12641TIP3    H237801   7.877   1.645   6.759
12642TIP3   OH237802   7.187   0.964   6.076
12642TIP3    H137803   7.104   1.011   6.054
12642TIP3    H237804   7.230   0.959   5.989
12643TIP3   OH237805   7.140   0.750   5.798
12643TIP3    H137806   7.216   0.794   5.841
12643TIP3    H237807   7.187   0.679   5.749
12644TIP3   OH237808   8.090   1.203   6.665
12644TIP3    H137809   8.007   1.256   6.670
12644TIP3    H237810   8.118   1.225   6.574
12645TIP3   OH237811   7.533   1.046   6.049
12645TIP3    H137812   7.478   1.071   6.127
12645TIP3    H237813   7.616   1.017   6.093
12646TIP3   OH237814   7.766   1.091   6.956
12646TIP3    H137815   7.764   1.177   7.002
12646TIP3    H237816   7.682   1.096   6.906
12647TIP3   OH237817   6.767   1.045   6.464
12647TIP3    H137818   6.723   0.987   6.398
12647TIP3    H237819   6.842   0.988   6.493
12648TIP3   OH237820   6.896   1.456   6.613
12648TIP3    H137821   6.873   1.408   6.532
12648TIP3    H237822   6.986   1.423   6.632
12649TIP3   OH237823   6.906   1.011   6.822
12649TIP3    H137824   6.935   0.991   6.731
12649TIP3    H237825   6.947   1.098   6.839
12650TIP3   OH237826   7.428   1.652   6.596
12650TIP3    H137827   7.412   1.732   6.649
12650TIP3    H237828   7.413   1.579   6.659
12651TIP3   OH237829   7.038   1.571   7.143
12651TIP3    H137830   6.979   1.634   7.189
12651TIP3    H237831   6.972   1.518   7.094
12652TIP3   OH237832   7.380   0.894   5.877
12652TIP3    H137833   7.437   0.954   5.930
12652TIP3    H237834   7.403   0.921   5.785
12653TIP3   OH237835   6.784   1.138   7.238
12653TIP3    H137836   6.787   1.221   7.290
12653TIP3    H237837   6.690   1.114   7.248
12654TIP3   OH237838   7.117   1.584   6.148
12654TIP3    H137839   7.192   1.640   6.173
12654TIP3    H237840   7.053   1.647   6.112
12655TIP3   OH237841   6.834   1.742   7.230
12655TIP3    H137842   6.799   1.738   7.139
12655TIP3    H237843   6.755   1.719   7.283
12656TIP3   OH237844   6.631   0.892   6.270
12656TIP3    H137845   6.562   0.930   6.211
12656TIP3    H237846   6.600   0.802   6.283
12657TIP3   OH237847   7.687   1.513   5.469
12657TIP3    H137848   7.696   1.610   5.456
12657TIP3    H237849   7.780   1.484   5.457
12658TIP3   OH237850   6.413   1.271   7.176
12658TIP3    H137851   6.347   1.249   7.106
12658TIP3    H237852   6.449   1.183   7.199
12659TIP3   OH237853   6.266   1.462   6.812
12659TIP3    H137854   6.363   1.460   6.803
12659TIP3    H237855   6.253   1.544   6.862
12660TIP3   OH237856   8.133   1.913   6.864
12660TIP3    H137857   8.130   1.816   6.877
12660TIP3    H237858   8.049   1.938   6.909
12661TIP3   OH237859   7.239   1.700   7.000
12661TIP3    H137860   7.238   1.793   7.032
12661TIP3    H237861   7.167   1.662   7.054
12662TIP3   OH237862   6.997   1.832   5.950
12662TIP3    H137863   6.949   1.810   5.868
12662TIP3    H237864   6.963   1.920   5.973
12663TIP3   OH237865   6.436   1.680   6.334
12663TIP3    H137866   6.484   1.670   6.419
12663TIP3    H237867   6.374   1.605   6.340
12664TIP3   OH237868   7.200   1.731   5.592
12664TIP3    H137869   7.259   1.661   5.556
12664TIP3    H237870   7.233   1.739   5.684
12665TIP3   OH237871   7.249   1.778   5.863
12665TIP3    H137872   7.161   1.788   5.905
12665TIP3    H237873   7.299   1.735   5.934
12666TIP3   OH237874   8.023   1.040   7.152
12666TIP3    H137875   7.955   1.076   7.094
12666TIP3    H237876   8.046   0.956   7.110
12667TIP3   OH237877   6.619   1.452   7.167
12667TIP3    H137878   6.668   1.436   7.250
12667TIP3    H237879   6.545   1.389   7.174
12668TIP3   OH237880   7.687   0.901   7.147
12668TIP3    H137881   7.758   0.836   7.150
12668TIP3    H237882   7.716   0.963   7.078
12669TIP3   OH237883   7.453   0.948   5.619
12669TIP3    H137884   7.417   0.925   5.531
12669TIP3    H237885   7.527   1.005   5.594
12670TIP3   OH237886   6.957   0.786   6.969
12670TIP3    H137887   6.902   0.807   7.048
12670TIP3    H237888   6.940   0.866   6.914
12671TIP3   OH237889   6.821   0.699   6.476
12671TIP3    H137890   6.743   0.649   6.506
12671TIP3    H237891   6.843   0.652   6.393
12672TIP3   OH237892   7.329   0.768   6.206
12672TIP3    H137893   7.273   0.840   6.167
12672TIP3    H237894   7.374   0.735   6.127
12673TIP3   OH237895   7.501   1.092   7.259
12673TIP3    H137896   7.487   1.036   7.339
12673TIP3    H237897   7.598   1.093   7.258
12674TIP3   OH237898   7.486   0.795   6.447
12674TIP3    H137899   7.427   0.829   6.377
12674TIP3    H237900   7.515   0.713   6.406
12675TIP3   OH237901   6.768   0.833   7.170
12675TIP3    H137902   6.793   0.883   7.249
12675TIP3    H237903   6.738   0.749   7.206
12676TIP3   OH237904   7.494   1.046   6.877
12676TIP3    H137905   7.522   0.972   6.817
12676TIP3    H237906   7.466   0.997   6.955
12677TIP3   OH237907   6.590   0.554   6.550
12677TIP3    H137908   6.496   0.571   6.529
12677TIP3    H237909   6.597   0.460   6.531
12678TIP3   OH237910   6.880   0.573   6.239
12678TIP3    H137911   6.965   0.550   6.199
12678TIP3    H237912   6.819   0.567   6.162
12679TIP3   OH237913   6.695   0.588   6.019
12679TIP3    H137914   6.633   0.538   5.963
12679TIP3    H237915   6.755   0.622   5.950
12680TIP3   OH237916   7.821   2.264   6.963
12680TIP3    H137917   7.818   2.288   6.868
12680TIP3    H237918   7.897   2.315   6.994
12681TIP3   OH237919   6.779   1.374   7.388
12681TIP3    H137920   6.859   1.405   7.434
12681TIP3    H237921   6.714   1.377   7.461
12682TIP3   OH237922   7.249   0.834   6.647
12682TIP3    H137923   7.305   0.778   6.591
12682TIP3    H237924   7.245   0.783   6.729
12683TIP3   OH237925   7.227   0.713   6.946
12683TIP3    H137926   7.135   0.747   6.952
12683TIP3    H237927   7.277   0.775   7.002
12684TIP3   OH237928   6.957   1.116   6.025
12684TIP3    H137929   6.886   1.050   6.015
12684TIP3    H237930   6.940   1.149   6.117
12685TIP3   OH237931   7.859   1.351   6.657
12685TIP3    H137932   7.883   1.400   6.575
12685TIP3    H237933   7.773   1.311   6.632
12686TIP3   OH237934   7.361   1.435   7.022
12686TIP3    H137935   7.375   1.410   7.114
12686TIP3    H237936   7.318   1.522   7.030
12687TIP3   OH237937   7.476   0.649   5.982
12687TIP3    H137938   7.573   0.661   5.994
12687TIP3    H237939   7.453   0.728   5.929
12688TIP3   OH237940   6.651   1.137   6.702
12688TIP3    H137941   6.688   1.109   6.616
12688TIP3    H237942   6.685   1.069   6.762
12689TIP3   OH237943   7.102   1.266   5.846
12689TIP3    H137944   7.055   1.352   5.854
12689TIP3    H237945   7.048   1.210   5.905
12690TIP3   OH237946   6.526   1.059   7.315
12690TIP3    H137947   6.550   1.043   7.408
12690TIP3    H237948   6.457   0.993   7.299
12691TIP3   OH237949   7.253   1.177   7.341
12691TIP3    H137950   7.184   1.126   7.294
12691TIP3    H237951   7.334   1.153   7.290
12692TIP3   OH237952   7.519   1.693   6.917
12692TIP3    H137953   7.422   1.691   6.929
12692TIP3    H237954   7.545   1.745   6.996
12693TIP3   OH237955   7.931   0.761   5.826
12693TIP3    H137956   7.871   0.712   5.765
12693TIP3    H237957   7.928   0.848   5.782
12694TIP3   OH237958   8.145   1.619   6.909
12694TIP3    H137959   8.047   1.617   6.900
12694TIP3    H237960   8.171   1.592   6.819
12695TIP3   OH237961   7.626   1.584   5.734
12695TIP3    H137962   7.602   1.515   5.797
12695TIP3    H237963   7.638   1.536   5.650
12696TIP3   OH237964   7.624   1.212   6.578
12696TIP3    H137965   7.530   1.187   6.589
12696TIP3    H237966   7.658   1.134   6.531
12697TIP3   OH237967   6.748   1.440   6.325
12697TIP3    H137968   6.750   1.522   6.273
12697TIP3    H237969   6.654   1.425   6.336
12698TIP3   OH237970   6.313   0.743   6.028
12698TIP3    H137971   6.361   0.826   6.047
12698TIP3    H237972   6.236   0.751   6.088
12699TIP3   OH237973   6.893   1.209   6.273
12699TIP3    H137974   6.855   1.297   6.291
12699TIP3    H237975   6.855   1.156   6.346
12700TIP3   OH237976   7.018   1.785   6.797
12700TIP3    H137977   7.058   1.858   6.745
12700TIP3    H237978   7.095   1.752   6.846
12701TIP3   OH237979   6.670   1.680   6.179
12701TIP3    H137980   6.584   1.686   6.225
12701TIP3    H237981   6.700   1.773   6.183
12702TIP3   OH237982   7.410   1.420   6.753
12702TIP3    H137983   7.401   1.419   6.851
12702TIP3    H237984   7.489   1.366   6.740
12703TIP3   OH237985   7.379   1.310   5.636
12703TIP3    H137986   7.432   1.287   5.715
12703TIP3    H237987   7.290   1.285   5.665
12704TIP3   OH237988   7.657   1.955   6.805
12704TIP3    H137989   7.578   1.897   6.797
12704TIP3    H237990   7.642   2.019   6.733
12705TIP3   OH237991   7.722   1.789   5.457
12705TIP3    H137992   7.763   1.862   5.408
12705TIP3    H237993   7.641   1.834   5.488
12706TIP3   OH237994   7.540   1.245   5.852
12706TIP3    H137995   7.529   1.180   5.924
12706TIP3    H237996   7.638   1.244   5.842
12707TIP3   OH237997   6.460   1.649   6.954
12707TIP3    H137998   6.510   1.573   6.987
12707TIP3    H237999   6.483   1.717   7.018
12708TIP3   OH238000   6.749   1.294   5.636
12708TIP3    H138001   6.761   1.203   5.604
12708TIP3    H238002   6.731   1.279   5.731
12709TIP3   OH238003   6.694   1.298   5.909
12709TIP3    H138004   6.763   1.269   5.971
12709TIP3    H238005   6.700   1.395   5.916
12710TIP3   OH238006   6.428   0.991   6.109
12710TIP3    H138007   6.364   1.036   6.168
12710TIP3    H238008   6.445   1.062   6.044
12711TIP3   OH238009   6.960   1.496   5.859
12711TIP3    H138010   6.873   1.524   5.894
12711TIP3    H238011   6.974   1.564   5.791
12712TIP3   OH238012   7.175   0.550   6.272
12712TIP3    H138013   7.214   0.637   6.251
12712TIP3    H238014   7.127   0.568   6.354
12713TIP3   OH238015   7.412   0.865   7.107
12713TIP3    H138016   7.421   0.946   7.160
12713TIP3    H238017   7.505   0.838   7.102
12714TIP3   OH238018   6.702   1.572   5.923
12714TIP3    H138019   6.671   1.641   5.861
12714TIP3    H238020   6.685   1.614   6.010
12715TIP3   OH238021   7.709   0.976   6.446
12715TIP3    H138022   7.636   0.913   6.460
12715TIP3    H238023   7.783   0.933   6.494
12716TIP3   OH238024   6.419   1.205   5.917
12716TIP3    H138025   6.484   1.277   5.927
12716TIP3    H238026   6.466   1.150   5.851
12717TIP3   OH238027   6.344   0.455   6.036
12717TIP3    H138028   6.382   0.545   6.040
12717TIP3    H238029   6.255   0.473   6.068
12718TIP3   OH238030   7.676   1.926   6.398
12718TIP3    H138031   7.634   1.973   6.323
12718TIP3    H238032   7.771   1.946   6.377
12719TIP3   OH238033   6.294   1.416   6.308
12719TIP3    H138034   6.219   1.447   6.360
12719TIP3    H238035   6.274   1.454   6.220
12720TIP3   OH238036   6.447   1.952   7.376
12720TIP3    H138037   6.533   1.951   7.423
12720TIP3    H238038   6.424   1.858   7.375
12721TIP3   OH238039   6.934   1.923   7.421
12721TIP3    H138040   7.028   1.901   7.427
12721TIP3    H238041   6.906   1.866   7.346
12722TIP3   OH238042   6.913   1.498   5.552
12722TIP3    H138043   6.855   1.427   5.589
12722TIP3    H238044   6.986   1.443   5.518
12723TIP3   OH238045   7.570   1.827   7.153
12723TIP3    H138046   7.560   1.757   7.222
12723TIP3    H238047   7.647   1.878   7.185
12724TIP3   OH238048   7.350   1.541   5.460
12724TIP3    H138049   7.394   1.476   5.519
12724TIP3    H238050   7.406   1.540   5.381
12725TIP3   OH238051   6.579   1.362   7.578
12725TIP3    H138052   6.595   1.266   7.580
12725TIP3    H238053   6.491   1.365   7.534
12726TIP3   OH238054   6.555   1.017   5.768
12726TIP3    H138055   6.608   0.979   5.841
12726TIP3    H238056   6.623   1.020   5.697
12727TIP3   OH238057   7.188   1.448   7.350
12727TIP3    H138058   7.144   1.459   7.264
12727TIP3    H238059   7.219   1.355   7.346
12728TIP3   OH238060   7.064   1.214   5.576
12728TIP3    H138061   7.065   1.226   5.673
12728TIP3    H238062   7.063   1.116   5.571
12729TIP3   OH238063   7.681   1.452   6.956
12729TIP3    H138064   7.752   1.501   6.911
12729TIP3    H238065   7.606   1.514   6.946
12730TIP3   OH238066   6.696   1.088   7.560
12730TIP3    H138067   6.774   1.036   7.538
12730TIP3    H238068   6.721   1.123   7.648
12731TIP3   OH238069   6.768   0.915   5.994
12731TIP3    H138070   6.740   0.874   6.078
12731TIP3    H238071   6.800   0.837   5.944
12732TIP3   OH238072   7.040   1.044   7.222
12732TIP3    H138073   6.949   1.081   7.222
12732TIP3    H238074   7.069   1.057   7.130
12733TIP3   OH238075   6.864   0.706   5.835
12733TIP3    H138076   6.838   0.714   5.740
12733TIP3    H238077   6.961   0.716   5.827
12734TIP3   OH238078   7.551   1.388   7.360
12734TIP3    H138079   7.628   1.362   7.308
12734TIP3    H238080   7.545   1.317   7.426
12735TIP3   OH238081   7.690   1.042   5.492
12735TIP3    H138082   7.665   0.997   5.409
12735TIP3    H238083   7.659   1.133   5.470
12736TIP3   OH238084   7.062   0.784   7.280
12736TIP3    H138085   7.151   0.770   7.318
12736TIP3    H238086   7.065   0.880   7.256
12737TIP3   OH238087   7.208   1.096   7.006
12737TIP3    H138088   7.282   1.110   6.946
12737TIP3    H238089   7.143   1.162   6.974
12738TIP3   OH238090   7.770   1.068   7.412
12738TIP3    H138091   7.816   0.983   7.420
12738TIP3    H238092   7.840   1.127   7.379
12739TIP3   OH238093   7.813   1.309   7.142
12739TIP3    H138094   7.752   1.363   7.085
12739TIP3    H238095   7.899   1.333   7.101
12740TIP3   OH238096   7.011   0.900   7.574
12740TIP3    H138097   6.935   0.839   7.574
12740TIP3    H238098   7.069   0.855   7.511
12741TIP3   OH238099   7.465   0.922   7.460
12741TIP3    H138100   7.453   0.913   7.556
12741TIP3    H238101   7.516   0.840   7.439
12742TIP3   OH238102   6.671   1.776   5.737
12742TIP3    H138103   6.766   1.772   5.716
12742TIP3    H238104   6.639   1.820   5.656
12743TIP3   OH238105   6.151   1.155   5.953
12743TIP3    H138106   6.246   1.177   5.941
12743TIP3    H238107   6.146   1.066   5.913
12744TIP3   OH238108   6.067   1.767   6.364
12744TIP3    H138109   5.997   1.706   6.332
12744TIP3    H238110   6.110   1.712   6.433
12745TIP3   OH238111   6.202   1.622   6.552
12745TIP3    H138112   6.189   1.547   6.612
12745TIP3    H238113   6.251   1.683   6.611
12746TIP3   OH238114   7.927   2.020   6.351
12746TIP3    H138115   7.954   2.054   6.439
12746TIP3    H238116   7.989   2.066   6.292
12747TIP3   OH238117   7.958   2.040   6.634
12747TIP3    H138118   7.916   1.952   6.630
12747TIP3    H238119   8.034   2.020   6.690
12748TIP3   OH238120   8.005   1.715   7.208
12748TIP3    H138121   7.931   1.724   7.271
12748TIP3    H238122   8.045   1.804   7.212
12749TIP3   OH238123   7.822   1.228   5.827
12749TIP3    H138124   7.891   1.293   5.801
12749TIP3    H238125   7.863   1.189   5.907
12750TIP3   OH238126   7.949   1.096   6.030
12750TIP3    H138127   7.884   1.054   6.091
12750TIP3    H238128   8.014   1.135   6.092
12751TIP3   OH238129   8.001   1.487   6.465
12751TIP3    H138130   8.055   1.424   6.412
12751TIP3    H238131   7.991   1.562   6.403
12752TIP3   OH238132   7.835   1.788   6.661
12752TIP3    H138133   7.764   1.831   6.711
12752TIP3    H238134   7.784   1.740   6.591
12753TIP3   OH238135   7.885   1.001   5.679
12753TIP3    H138136   7.815   1.011   5.611
12753TIP3    H238137   7.863   1.077   5.736
12754TIP3   OH238138   7.767   0.670   5.625
12754TIP3    H138139   7.723   0.742   5.580
12754TIP3    H238140   7.721   0.593   5.590
12755TIP3   OH238141   7.765   0.952   6.180
12755TIP3    H138142   7.773   0.856   6.184
12755TIP3    H238143   7.750   0.973   6.275
12756TIP3   OH238144   6.390   1.023   6.925
12756TIP3    H138145   6.388   0.996   6.831
12756TIP3    H238146   6.487   1.027   6.941
12757TIP3   OH238147   8.056   1.372   7.034
12757TIP3    H138148   8.130   1.309   7.021
12757TIP3    H238149   8.079   1.445   6.974
12758TIP3   OH238150   8.241   1.172   7.049
12758TIP3    H138151   8.174   1.124   7.102
12758TIP3    H238152   8.323   1.131   7.081
12759TIP3   OH238153   7.745   0.667   6.025
12759TIP3    H138154   7.791   0.631   6.105
12759TIP3    H238155   7.819   0.706   5.975
12760TIP3   OH238156   7.925   0.873   6.574
12760TIP3    H138157   8.014   0.884   6.533
12760TIP3    H238158   7.946   0.894   6.666
12761TIP3   OH238159   7.988   0.997   6.819
12761TIP3    H138160   7.904   1.038   6.849
12761TIP3    H238161   8.023   1.067   6.760
12762TIP3   OH238162   6.382   0.684   7.008
12762TIP3    H138163   6.427   0.670   6.922
12762TIP3    H238164   6.406   0.776   7.026
12763TIP3   OH238165   7.512   1.886   6.009
12763TIP3    H138166   7.565   1.869   5.929
12763TIP3    H238167   7.566   1.951   6.056
12764TIP3   OH238168   6.616   1.685   7.398
12764TIP3    H138169   6.523   1.660   7.379
12764TIP3    H238170   6.620   1.672   7.493
12765TIP3   OH238171   6.792   1.719   6.945
12765TIP3    H138172   6.741   1.793   6.907
12765TIP3    H238173   6.877   1.735   6.899
12766TIP3   OH238174   7.240   1.966   7.082
12766TIP3    H138175   7.281   1.968   7.171
12766TIP3    H238176   7.305   2.017   7.030
12767TIP3   OH238177   7.418   2.117   6.939
12767TIP3    H138178   7.490   2.066   6.898
12767TIP3    H238179   7.468   2.175   7.000
12768TIP3   OH238180   6.469   1.980   6.966
12768TIP3    H138181   6.379   2.009   6.941
12768TIP3    H238182   6.473   2.013   7.056
12769TIP3   OH238183   6.705   1.957   6.824
12769TIP3    H138184   6.620   1.970   6.871
12769TIP3    H238185   6.684   1.991   6.735
12770TIP3   OH238186   7.132   1.988   6.620
12770TIP3    H138187   7.061   2.009   6.557
12770TIP3    H238188   7.144   2.075   6.665
12771TIP3   OH238189   7.400   1.927   6.672
12771TIP3    H138190   7.305   1.943   6.653
12771TIP3    H238191   7.441   2.005   6.632
12772TIP3   OH238192   7.609   2.120   6.590
12772TIP3    H138193   7.594   2.204   6.543
12772TIP3    H238194   7.633   2.059   6.517
12773TIP3   OH238195   6.382   1.773   6.711
12773TIP3    H138196   6.405   1.748   6.803
12773TIP3    H238197   6.454   1.728   6.662
12774TIP3   OH238198   6.574   1.643   6.566
12774TIP3    H138199   6.589   1.559   6.616
12774TIP3    H238200   6.664   1.681   6.563
12775TIP3   OH238201   6.840   1.741   6.568
12775TIP3    H138202   6.871   1.649   6.557
12775TIP3    H238203   6.880   1.761   6.655
12776TIP3   OH238204   6.170   1.541   6.103
12776TIP3    H138205   6.085   1.508   6.069
12776TIP3    H238206   6.154   1.636   6.096
12777TIP3   OH238207   6.939   1.737   5.683
12777TIP3    H138208   7.029   1.756   5.649
12777TIP3    H238209   6.917   1.660   5.626
12778TIP3   OH238210   7.658   1.851   5.777
12778TIP3    H138211   7.650   1.753   5.764
12778TIP3    H238212   7.615   1.884   5.696
12779TIP3   OH238213   6.245   1.575   5.744
12779TIP3    H138214   6.243   1.595   5.839
12779TIP3    H238215   6.333   1.531   5.734
12780TIP3   OH238216   7.887   1.996   6.966
12780TIP3    H138217   7.807   1.964   6.919
12780TIP3    H238218   7.867   2.092   6.968
12781TIP3   OH238219   9.153   1.368   5.727
12781TIP3    H138220   9.128   1.462   5.717
12781TIP3    H238221   9.070   1.325   5.701
12782TIP3   OH238222   9.141   1.362   6.111
12782TIP3    H138223   9.177   1.338   6.198
12782TIP3    H238224   9.100   1.278   6.084
12783TIP3   OH238225   8.450   1.267   6.478
12783TIP3    H138226   8.486   1.202   6.541
12783TIP3    H238227   8.527   1.323   6.465
12784TIP3   OH238228   9.393   1.669   5.793
12784TIP3    H138229   9.387   1.601   5.862
12784TIP3    H238230   9.418   1.747   5.847
12785TIP3   OH238231   8.420   1.672   6.206
12785TIP3    H138232   8.412   1.574   6.208
12785TIP3    H238233   8.517   1.681   6.199
12786TIP3   OH238234   8.121   0.867   5.998
12786TIP3    H138235   8.076   0.952   6.011
12786TIP3    H238236   8.057   0.821   5.940
12787TIP3   OH238237   8.190   1.162   6.158
12787TIP3    H138238   8.238   1.086   6.197
12787TIP3    H238239   8.250   1.189   6.087
12788TIP3   OH238240   9.039   2.127   5.807
12788TIP3    H138241   9.087   2.053   5.766
12788TIP3    H238242   9.036   2.101   5.900
12789TIP3   OH238243   8.949   1.591   6.162
12789TIP3    H138244   8.987   1.514   6.116
12789TIP3    H238245   9.033   1.637   6.183
12790TIP3   OH238246   9.367   1.112   6.190
12790TIP3    H138247   9.391   1.026   6.227
12790TIP3    H238248   9.338   1.089   6.099
12791TIP3   OH238249   8.333   0.955   6.267
12791TIP3    H138250   8.413   0.929   6.318
12791TIP3    H238251   8.349   0.901   6.187
12792TIP3   OH238252   8.775   1.156   6.062
12792TIP3    H138253   8.866   1.123   6.077
12792TIP3    H238254   8.729   1.074   6.031
12793TIP3   OH238255   9.061   1.603   5.590
12793TIP3    H138256   9.002   1.565   5.524
12793TIP3    H238257   9.007   1.680   5.620
12794TIP3   OH238258   8.805   1.511   6.396
12794TIP3    H138259   8.739   1.575   6.431
12794TIP3    H238260   8.845   1.562   6.323
12795TIP3   OH238261   8.571   0.863   6.364
12795TIP3    H138262   8.638   0.929   6.389
12795TIP3    H238263   8.614   0.816   6.292
12796TIP3   OH238264   8.629   1.704   6.487
12796TIP3    H138265   8.604   1.790   6.446
12796TIP3    H238266   8.551   1.690   6.544
12797TIP3   OH238267   8.027   1.396   5.724
12797TIP3    H138268   7.985   1.423   5.640
12797TIP3    H238269   8.056   1.482   5.761
12798TIP3   OH238270   9.456   1.899   5.950
12798TIP3    H138271   9.367   1.897   5.993
12798TIP3    H238272   9.457   1.990   5.915
12799TIP3   OH238273   9.168   1.946   5.644
12799TIP3    H138274   9.228   1.873   5.621
12799TIP3    H238275   9.219   2.023   5.609
12800TIP3   OH238276   9.325   1.720   5.531
12800TIP3    H138277   9.240   1.672   5.529
12800TIP3    H238278   9.353   1.701   5.623
12801TIP3   OH238279   8.977   1.222   5.564
12801TIP3    H138280   8.895   1.270   5.539
12801TIP3    H238281   9.022   1.214   5.478
12802TIP3   OH238282   8.937   1.008   5.282
12802TIP3    H138283   9.013   1.052   5.326
12802TIP3    H238284   8.983   0.934   5.237
12803TIP3   OH238285   9.339   1.298   5.545
12803TIP3    H138286   9.270   1.327   5.610
12803TIP3    H238287   9.415   1.292   5.604
12804TIP3   OH238288   9.569   1.350   6.429
12804TIP3    H138289   9.561   1.424   6.490
12804TIP3    H238290   9.484   1.350   6.384
12805TIP3   OH238291   8.564   1.301   5.950
12805TIP3    H138292   8.520   1.243   5.885
12805TIP3    H238293   8.638   1.245   5.980
12806TIP3   OH238294   8.691   1.710   6.101
12806TIP3    H138295   8.671   1.664   6.019
12806TIP3    H238296   8.782   1.679   6.120
12807TIP3   OH238297   8.701   1.268   6.309
12807TIP3    H138298   8.731   1.246   6.218
12807TIP3    H238299   8.744   1.354   6.326
12808TIP3   OH238300   9.222   1.910   6.081
12808TIP3    H138301   9.207   1.990   6.134
12808TIP3    H238302   9.209   1.837   6.145
12809TIP3   OH238303   8.834   1.827   6.632
12809TIP3    H138304   8.774   1.891   6.676
12809TIP3    H238305   8.769   1.774   6.581
12810TIP3   OH238306   9.170   1.152   5.369
12810TIP3    H138307   9.236   1.203   5.421
12810TIP3    H238308   9.199   1.172   5.278
12811TIP3   OH238309   8.582   1.394   6.726
12811TIP3    H138310   8.585   1.477   6.777
12811TIP3    H238311   8.487   1.371   6.735
12812TIP3   OH238312   8.909   1.839   5.637
12812TIP3    H138313   8.988   1.892   5.658
12812TIP3    H238314   8.848   1.904   5.600
12813TIP3   OH238315   8.630   1.998   6.716
12813TIP3    H138316   8.596   1.996   6.625
12813TIP3    H238317   8.551   1.976   6.769
12814TIP3   OH238318   8.427   1.150   5.756
12814TIP3    H138319   8.357   1.185   5.698
12814TIP3    H238320   8.399   1.059   5.770
12815TIP3   OH238321   8.209   1.527   6.663
12815TIP3    H138322   8.145   1.505   6.593
12815TIP3    H238323   8.246   1.440   6.687
12816TIP3   OH238324   8.063   1.719   6.298
12816TIP3    H138325   8.159   1.713   6.287
12816TIP3    H238326   8.054   1.799   6.351
12817TIP3   OH238327   9.035   1.956   6.487
12817TIP3    H138328   9.035   2.049   6.518
12817TIP3    H238329   8.963   1.919   6.542
12818TIP3   OH238330   8.792   2.087   5.438
12818TIP3    H138331   8.747   2.069   5.353
12818TIP3    H238332   8.762   2.177   5.461
12819TIP3   OH238333   8.231   1.936   5.821
12819TIP3    H138334   8.280   1.927   5.905
12819TIP3    H238335   8.171   1.860   5.827
12820TIP3   OH238336   8.996   1.987   5.080
12820TIP3    H138337   9.058   1.919   5.046
12820TIP3    H238338   9.028   1.998   5.172
12821TIP3   OH238339   9.044   2.034   5.351
12821TIP3    H138340   8.955   2.044   5.392
12821TIP3    H238341   9.095   1.999   5.425
12822TIP3   OH238342   8.415   1.710   6.654
12822TIP3    H138343   8.465   1.692   6.737
12822TIP3    H238344   8.341   1.646   6.661
12823TIP3   OH238345   9.250   1.201   5.108
12823TIP3    H138346   9.220   1.179   5.018
12823TIP3    H238347   9.295   1.285   5.093
12824TIP3   OH238348   8.752   1.047   6.461
12824TIP3    H138349   8.691   1.067   6.534
12824TIP3    H238350   8.736   1.124   6.402
12825TIP3   OH238351   8.616   0.958   5.962
12825TIP3    H138352   8.540   0.906   5.994
12825TIP3    H238353   8.640   0.909   5.880
12826TIP3   OH238354   9.122   1.027   5.685
12826TIP3    H138355   9.057   1.098   5.663
12826TIP3    H238356   9.171   1.025   5.602
12827TIP3   OH238357   9.298   1.322   6.744
12827TIP3    H138358   9.295   1.285   6.834
12827TIP3    H238359   9.383   1.368   6.746
12828TIP3   OH238360   9.267   1.042   5.942
12828TIP3    H138361   9.222   1.085   5.867
12828TIP3    H238362   9.303   0.963   5.899
12829TIP3   OH238363   8.569   1.087   6.660
12829TIP3    H138364   8.586   1.139   6.740
12829TIP3    H238365   8.533   1.005   6.695
12830TIP3   OH238366   9.276   1.302   6.356
12830TIP3    H138367   9.315   1.232   6.299
12830TIP3    H238368   9.270   1.256   6.441
12831TIP3   OH238369   8.387   0.811   6.038
12831TIP3    H138370   8.292   0.826   6.015
12831TIP3    H238371   8.396   0.716   6.020
12832TIP3   OH238372   8.676   0.830   5.726
12832TIP3    H138373   8.762   0.806   5.689
12832TIP3    H238374   8.616   0.823   5.648
12833TIP3   OH238375   8.489   0.846   5.505
12833TIP3    H138376   8.429   0.794   5.449
12833TIP3    H238377   8.551   0.880   5.437
12834TIP3   OH238378   9.612   2.525   6.447
12834TIP3    H138379   9.613   2.541   6.350
12834TIP3    H238380   9.663   2.601   6.478
12835TIP3   OH238381   8.574   1.631   6.874
12835TIP3    H138382   8.654   1.663   6.921
12835TIP3    H238383   8.510   1.632   6.947
12836TIP3   OH238384   9.044   1.089   6.131
12836TIP3    H138385   9.110   1.042   6.077
12836TIP3    H238386   9.043   1.034   6.212
12837TIP3   OH238387   9.016   0.966   6.437
12837TIP3    H138388   8.928   1.008   6.436
12837TIP3    H238389   9.071   1.030   6.487
12838TIP3   OH238390   8.752   1.374   5.512
12838TIP3    H138391   8.680   1.307   5.501
12838TIP3    H238392   8.734   1.406   5.604
12839TIP3   OH238393   9.160   1.691   6.510
12839TIP3    H138394   9.170   1.669   6.603
12839TIP3    H238395   9.117   1.778   6.513
12840TIP3   OH238396   8.446   1.393   6.189
12840TIP3    H138397   8.484   1.366   6.103
12840TIP3    H238398   8.483   1.326   6.248
12841TIP3   OH238399   8.898   1.522   5.332
12841TIP3    H138400   8.852   1.608   5.339
12841TIP3    H238401   8.843   1.467   5.392
12842TIP3   OH238402   8.323   1.316   6.802
12842TIP3    H138403   8.348   1.301   6.895
12842TIP3    H238404   8.254   1.249   6.788
12843TIP3   OH238405   9.049   1.430   6.824
12843TIP3    H138406   8.978   1.380   6.780
12843TIP3    H238407   9.127   1.405   6.771
12844TIP3   OH238408   9.313   1.944   6.407
12844TIP3    H138409   9.217   1.948   6.416
12844TIP3    H238410   9.340   2.003   6.481
12845TIP3   OH238411   9.439   1.810   5.201
12845TIP3    H138412   9.405   1.792   5.290
12845TIP3    H238413   9.365   1.784   5.146
12846TIP3   OH238414   9.392   1.478   6.056
12846TIP3    H138415   9.306   1.433   6.067
12846TIP3    H238416   9.454   1.404   6.046
12847TIP3   OH238417   8.545   1.696   5.811
12847TIP3    H138418   8.547   1.779   5.760
12847TIP3    H238419   8.450   1.683   5.822
12848TIP3   OH238420   8.109   1.000   5.515
12848TIP3    H138421   8.157   1.083   5.534
12848TIP3    H238422   8.033   1.009   5.576
12849TIP3   OH238423   8.691   1.466   5.759
12849TIP3    H138424   8.651   1.554   5.777
12849TIP3    H238425   8.653   1.413   5.832
12850TIP3   OH238426   8.814   2.042   6.283
12850TIP3    H138427   8.853   2.115   6.231
12850TIP3    H238428   8.892   2.010   6.331
12851TIP3   OH238429   8.467   1.936   5.666
12851TIP3    H138430   8.380   1.945   5.711
12851TIP3    H238431   8.498   2.029   5.669
12852TIP3   OH238432   9.205   1.677   6.237
12852TIP3    H138433   9.203   1.671   6.335
12852TIP3    H238434   9.283   1.623   6.215
12853TIP3   OH238435   9.168   1.573   5.127
12853TIP3    H138436   9.223   1.538   5.200
12853TIP3    H238437   9.080   1.548   5.158
12854TIP3   OH238438   9.445   2.205   6.290
12854TIP3    H138439   9.361   2.157   6.274
12854TIP3    H238440   9.439   2.274   6.220
12855TIP3   OH238441   9.337   1.480   5.327
12855TIP3    H138442   9.326   1.424   5.406
12855TIP3    H238443   9.412   1.536   5.354
12856TIP3   OH238444   8.253   1.906   6.443
12856TIP3    H138445   8.305   1.830   6.472
12856TIP3    H238446   8.283   1.974   6.504
12857TIP3   OH238447   8.546   1.549   5.122
12857TIP3    H138448   8.558   1.457   5.093
12857TIP3    H238449   8.527   1.536   5.217
12858TIP3   OH238450   8.491   1.554   5.395
12858TIP3    H138451   8.559   1.526   5.458
12858TIP3    H238452   8.495   1.652   5.402
12859TIP3   OH238453   8.224   1.247   5.595
12859TIP3    H138454   8.160   1.292   5.655
12859TIP3    H238455   8.241   1.318   5.531
12860TIP3   OH238456   8.755   1.752   5.344
12860TIP3    H138457   8.669   1.780   5.380
12860TIP3    H238458   8.773   1.824   5.282
12861TIP3   OH238459   8.971   0.806   5.755
12861TIP3    H138460   9.010   0.894   5.739
12861TIP3    H238461   8.927   0.819   5.841
12862TIP3   OH238462   9.191   1.110   6.601
12862TIP3    H138463   9.227   1.189   6.647
12862TIP3    H238464   9.272   1.067   6.567
12863TIP3   OH238465   8.497   1.827   5.410
12863TIP3    H138466   8.467   1.897   5.347
12863TIP3    H238467   8.482   1.871   5.497
12864TIP3   OH238468   8.215   1.462   5.404
12864TIP3    H138469   8.279   1.534   5.413
12864TIP3    H238470   8.263   1.408   5.337
12865TIP3   OH238471   8.141   0.712   5.522
12865TIP3    H138472   8.180   0.801   5.525
12865TIP3    H238473   8.054   0.730   5.561
12866TIP3   OH238474   9.487   2.182   5.892
12866TIP3    H138475   9.446   2.235   5.819
12866TIP3    H238476   9.569   2.148   5.849
12867TIP3   OH238477   8.091   1.672   5.796
12867TIP3    H138478   8.014   1.704   5.845
12867TIP3    H238479   8.072   1.711   5.707
12868TIP3   OH238480   8.242   2.209   6.864
12868TIP3    H138481   8.329   2.209   6.910
12868TIP3    H238482   8.221   2.115   6.862
12869TIP3   OH238483   8.729   2.178   6.910
12869TIP3    H138484   8.824   2.160   6.913
12869TIP3    H238485   8.702   2.123   6.834
12870TIP3   OH238486   8.708   1.755   5.037
12870TIP3    H138487   8.651   1.684   5.076
12870TIP3    H238488   8.782   1.701   5.004
12871TIP3   OH238489   9.362   2.086   6.642
12871TIP3    H138490   9.355   2.014   6.709
12871TIP3    H238491   9.439   2.137   6.672
12872TIP3   OH238492   9.152   1.796   4.959
12872TIP3    H138493   9.179   1.710   4.998
12872TIP3    H238494   9.187   1.793   4.868
12873TIP3   OH238495   8.375   1.619   7.064
12873TIP3    H138496   8.392   1.524   7.070
12873TIP3    H238497   8.287   1.621   7.020
12874TIP3   OH238498   8.351   1.272   5.255
12874TIP3    H138499   8.404   1.236   5.328
12874TIP3    H238500   8.420   1.276   5.185
12875TIP3   OH238501   8.984   1.704   6.837
12875TIP3    H138502   8.940   1.717   6.751
12875TIP3    H238503   9.015   1.611   6.831
12876TIP3   OH238504   8.859   1.469   5.063
12876TIP3    H138505   8.860   1.483   5.160
12876TIP3    H238506   8.857   1.371   5.059
12877TIP3   OH238507   9.483   1.715   6.439
12877TIP3    H138508   9.530   1.759   6.368
12877TIP3    H238509   9.401   1.769   6.440
12878TIP3   OH238510   8.492   1.344   7.045
12878TIP3    H138511   8.569   1.289   7.028
12878TIP3    H238512   8.515   1.379   7.135
12879TIP3   OH238513   8.563   1.172   5.481
12879TIP3    H138514   8.536   1.132   5.565
12879TIP3    H238515   8.596   1.094   5.431
12880TIP3   OH238516   8.833   1.294   6.703
12880TIP3    H138517   8.745   1.336   6.705
12880TIP3    H238518   8.866   1.314   6.614
12881TIP3   OH238519   8.659   0.964   5.321
12881TIP3    H138520   8.634   0.969   5.226
12881TIP3    H238521   8.757   0.973   5.314
12882TIP3   OH238522   9.343   1.637   6.839
12882TIP3    H138523   9.432   1.633   6.803
12882TIP3    H238524   9.350   1.577   6.916
12883TIP3   OH238525   8.892   1.052   6.797
12883TIP3    H138526   8.956   1.025   6.729
12883TIP3    H238527   8.865   1.142   6.759
12884TIP3   OH238528   9.005   1.354   6.494
12884TIP3    H138529   9.080   1.362   6.433
12884TIP3    H238530   8.943   1.421   6.459
12885TIP3   OH238531   9.617   1.573   6.624
12885TIP3    H138532   9.556   1.627   6.569
12885TIP3    H238533   9.697   1.581   6.571
12886TIP3   OH238534   8.806   1.156   7.057
12886TIP3    H138535   8.732   1.093   7.067
12886TIP3    H238536   8.852   1.116   6.983
12887TIP3   OH238537   9.310   1.179   6.974
12887TIP3    H138538   9.217   1.155   6.995
12887TIP3    H238539   9.333   1.099   6.923
12888TIP3   OH238540   8.466   2.028   5.222
12888TIP3    H138541   8.562   2.027   5.205
12888TIP3    H238542   8.436   2.077   5.144
12889TIP3   OH238543   7.947   1.411   5.440
12889TIP3    H138544   8.042   1.434   5.428
12889TIP3    H238545   7.943   1.322   5.399
12890TIP3   OH238546   7.861   2.024   5.852
12890TIP3    H138547   7.793   1.961   5.819
12890TIP3    H238548   7.905   1.968   5.920
12891TIP3   OH238549   7.997   1.879   6.039
12891TIP3    H138550   7.987   1.803   6.099
12891TIP3    H238551   8.048   1.939   6.097
12892TIP3   OH238552   9.609   2.001   6.171
12892TIP3    H138553   9.542   2.063   6.206
12892TIP3    H238554   9.562   1.959   6.097
12893TIP3   OH238555   8.186   1.281   6.412
12893TIP3    H138556   8.185   1.253   6.318
12893TIP3    H238557   8.283   1.285   6.428
12894TIP3   OH238558   8.177   0.941   6.493
12894TIP3    H138559   8.223   0.927   6.408
12894TIP3    H238560   8.204   1.031   6.513
12895TIP3   OH238561   9.288   2.151   5.525
12895TIP3    H138562   9.330   2.128   5.439
12895TIP3    H238563   9.350   2.216   5.561
12896TIP3   OH238564   8.411   1.944   6.885
12896TIP3    H138565   8.319   1.917   6.866
12896TIP3    H238566   8.417   1.928   6.979
12897TIP3   OH238567   8.588   1.976   6.431
12897TIP3    H138568   8.539   2.051   6.392
12897TIP3    H238569   8.673   1.991   6.386
12898TIP3   OH238570   9.036   2.221   6.571
12898TIP3    H138571   9.079   2.228   6.659
12898TIP3    H238572   9.100   2.272   6.515
12899TIP3   OH238573   9.213   2.370   6.427
12899TIP3    H138574   9.286   2.326   6.381
12899TIP3    H238575   9.262   2.432   6.485
12900TIP3   OH238576   8.265   2.234   6.454
12900TIP3    H138577   8.177   2.270   6.429
12900TIP3    H238578   8.273   2.269   6.543
12901TIP3   OH238579   8.501   2.212   6.310
12901TIP3    H138580   8.415   2.226   6.356
12901TIP3    H238581   8.481   2.247   6.221
12902TIP3   OH238582   8.927   2.243   6.108
12902TIP3    H138583   8.859   2.267   6.042
12902TIP3    H238584   8.942   2.330   6.152
12903TIP3   OH238585   9.194   2.181   6.159
12903TIP3    H138586   9.100   2.202   6.140
12903TIP3    H238587   9.239   2.259   6.122
12904TIP3   OH238588   9.397   2.367   6.081
12904TIP3    H138589   9.384   2.456   6.040
12904TIP3    H238590   9.428   2.315   6.004
12905TIP3   OH238591   8.176   2.030   6.199
12905TIP3    H138592   8.203   2.005   6.290
12905TIP3    H238593   8.249   1.986   6.149
12906TIP3   OH238594   8.369   1.900   6.054
12906TIP3    H138595   8.386   1.816   6.103
12906TIP3    H238596   8.459   1.938   6.050
12907TIP3   OH238597   8.634   1.996   6.057
12907TIP3    H138598   8.667   1.905   6.045
12907TIP3    H238599   8.676   2.019   6.141
12908TIP3   OH238600   7.965   1.798   5.591
12908TIP3    H138601   7.880   1.765   5.556
12908TIP3    H238602   7.952   1.893   5.581
12909TIP3   OH238603   8.735   1.992   5.172
12909TIP3    H138604   8.824   2.014   5.136
12909TIP3    H238605   8.713   1.917   5.113
12910TIP3   OH238606   9.383   2.073   5.290
12910TIP3    H138607   9.431   1.998   5.251
12910TIP3    H238608   9.366   2.127   5.210
12911TIP3   OH238609   8.041   1.829   5.231
12911TIP3    H138610   8.040   1.854   5.324
12911TIP3    H238611   8.129   1.787   5.220
12912TIP3   OH238612   9.652   2.257   6.466
12912TIP3    H138613   9.586   2.219   6.404
12912TIP3    H238614   9.632   2.353   6.454
12913TIP3   OH238615   1.605   2.156   7.424
12913TIP3    H138616   1.577   2.248   7.404
12913TIP3    H238617   1.526   2.107   7.394
12914TIP3   OH238618   1.600   2.156   7.802
12914TIP3    H138619   1.632   2.125   7.889
12914TIP3    H238620   1.559   2.076   7.766
12915TIP3   OH238621   0.942   2.090   8.177
12915TIP3    H138622   0.973   2.009   8.221
12915TIP3    H238623   1.025   2.131   8.149
12916TIP3   OH238624   1.842   2.458   7.484
12916TIP3    H138625   1.834   2.386   7.548
12916TIP3    H238626   1.874   2.531   7.539
12917TIP3   OH238627   0.872   2.459   7.897
12917TIP3    H138628   0.864   2.361   7.899
12917TIP3    H238629   0.969   2.467   7.888
12918TIP3   OH238630   1.492   2.919   7.500
12918TIP3    H138631   1.540   2.849   7.451
12918TIP3    H238632   1.491   2.883   7.589
12919TIP3   OH238633   1.401   2.381   7.852
12919TIP3    H138634   1.437   2.304   7.805
12919TIP3    H238635   1.486   2.424   7.874
12920TIP3   OH238636   2.412   1.702   7.848
12920TIP3    H138637   2.441   1.784   7.893
12920TIP3    H238638   2.436   1.722   7.756
12921TIP3   OH238639   1.816   1.885   7.885
12921TIP3    H138640   1.857   1.799   7.904
12921TIP3    H238641   1.783   1.871   7.795
12922TIP3   OH238642   1.845   1.631   7.474
12922TIP3    H138643   1.918   1.617   7.538
12922TIP3    H238644   1.895   1.669   7.400
12923TIP3   OH238645   1.239   1.954   7.749
12923TIP3    H138646   1.331   1.924   7.766
12923TIP3    H238647   1.198   1.869   7.721
12924TIP3   OH238648   2.486   1.906   8.020
12924TIP3    H138649   2.404   1.957   8.001
12924TIP3    H238650   2.503   1.934   8.111
12925TIP3   OH238651   1.498   2.378   7.294
12925TIP3    H138652   1.452   2.352   7.213
12925TIP3    H238653   1.454   2.463   7.315
12926TIP3   OH238654   1.255   2.301   8.082
12926TIP3    H138655   1.192   2.366   8.119
12926TIP3    H238656   1.299   2.352   8.011
12927TIP3   OH238657   2.058   1.633   7.643
12927TIP3    H138658   2.049   1.587   7.727
12927TIP3    H238659   2.112   1.710   7.667
12928TIP3   OH238660   1.080   2.493   8.181
12928TIP3    H138661   1.054   2.577   8.138
12928TIP3    H238662   0.999   2.474   8.232
12929TIP3   OH238663   0.523   2.204   7.395
12929TIP3    H138664   0.438   2.203   7.349
12929TIP3    H238665   0.505   2.263   7.470
12930TIP3   OH238666   1.917   2.699   7.655
12930TIP3    H138667   1.826   2.691   7.692
12930TIP3    H238668   1.910   2.785   7.608
12931TIP3   OH238669   2.206   1.600   8.013
12931TIP3    H138670   2.120   1.635   7.986
12931TIP3    H238671   2.266   1.634   7.943
12932TIP3   OH238672   1.620   2.748   7.328
12932TIP3    H138673   1.670   2.666   7.307
12932TIP3    H238674   1.680   2.814   7.286
12933TIP3   OH238675   1.761   2.533   7.231
12933TIP3    H138676   1.725   2.453   7.191
12933TIP3    H238677   1.796   2.498   7.316
12934TIP3   OH238678   2.142   2.615   7.997
12934TIP3    H138679   2.134   2.537   7.938
12934TIP3    H238680   2.129   2.689   7.934
12935TIP3   OH238681   1.433   2.007   7.251
12935TIP3    H138682   1.352   2.057   7.230
12935TIP3    H238683   1.481   2.008   7.167
12936TIP3   OH238684   1.397   1.793   6.966
12936TIP3    H138685   1.461   1.842   7.022
12936TIP3    H238686   1.458   1.730   6.923
12937TIP3   OH238687   2.338   2.247   7.839
12937TIP3    H138688   2.257   2.303   7.844
12937TIP3    H238689   2.369   2.271   7.749
12938TIP3   OH238690   1.780   2.089   7.226
12938TIP3    H138691   1.727   2.114   7.305
12938TIP3    H238692   1.864   2.063   7.269
12939TIP3   OH238693   2.017   2.130   8.135
12939TIP3    H138694   2.014   2.215   8.183
12939TIP3    H238695   1.931   2.133   8.089
12940TIP3   OH238696   1.031   2.107   7.651
12940TIP3    H138697   0.991   2.054   7.579
12940TIP3    H238698   1.104   2.048   7.680
12941TIP3   OH238699   1.142   2.498   7.792
12941TIP3    H138700   1.121   2.452   7.709
12941TIP3    H238701   1.233   2.467   7.809
12942TIP3   OH238702   1.142   2.075   7.974
12942TIP3    H138703   1.183   2.044   7.890
12942TIP3    H238704   1.198   2.151   7.999
12943TIP3   OH238705   1.673   2.698   7.772
12943TIP3    H138706   1.662   2.776   7.829
12943TIP3    H238707   1.662   2.623   7.834
12944TIP3   OH238708   1.287   2.618   8.321
12944TIP3    H138709   1.225   2.680   8.365
12944TIP3    H238710   1.223   2.563   8.271
12945TIP3   OH238711   1.625   1.947   7.051
12945TIP3    H138712   1.683   2.006   7.105
12945TIP3    H238713   1.651   1.973   6.960
12946TIP3   OH238714   1.046   2.184   8.426
12946TIP3    H138715   1.034   2.268   8.473
12946TIP3    H238716   0.957   2.165   8.392
12947TIP3   OH238717   1.363   2.630   7.326
12947TIP3    H138718   1.442   2.683   7.347
12947TIP3    H238719   1.303   2.696   7.289
12948TIP3   OH238720   1.082   2.788   8.406
12948TIP3    H138721   1.049   2.787   8.313
12948TIP3    H238722   1.001   2.766   8.456
12949TIP3   OH238723   2.139   1.192   7.099
12949TIP3    H138724   2.057   1.212   7.149
12949TIP3    H238725   2.151   1.275   7.048
12950TIP3   OH238726   0.913   1.963   7.451
12950TIP3    H138727   0.844   2.006   7.395
12950TIP3    H238728   0.857   1.906   7.506
12951TIP3   OH238729   1.936   2.557   6.647
12951TIP3    H138730   1.945   2.654   6.633
12951TIP3    H238731   2.029   2.528   6.634
12952TIP3   OH238732   0.505   2.507   7.994
12952TIP3    H138733   0.595   2.480   7.974
12952TIP3    H238734   0.522   2.589   8.044
12953TIP3   OH238735   2.379   2.957   8.040
12953TIP3    H138736   2.379   2.860   8.051
12953TIP3    H238737   2.296   2.980   8.087
12954TIP3   OH238738   1.487   2.746   8.177
12954TIP3    H138739   1.486   2.839   8.207
12954TIP3    H238740   1.415   2.707   8.230
12955TIP3   OH238741   1.243   2.874   7.129
12955TIP3    H138742   1.200   2.856   7.043
12955TIP3    H238743   1.213   2.965   7.148
12956TIP3   OH238744   0.685   2.727   7.511
12956TIP3    H138745   0.733   2.716   7.596
12956TIP3    H238746   0.627   2.648   7.514
12957TIP3   OH238747   1.448   2.774   6.769
12957TIP3    H138748   1.507   2.705   6.733
12957TIP3    H238749   1.483   2.783   6.861
12958TIP3   OH238750   1.497   2.823   7.040
12958TIP3    H138751   1.409   2.831   7.084
12958TIP3    H238752   1.550   2.782   7.110
12959TIP3   OH238753   2.270   2.091   8.315
12959TIP3    H138754   2.191   2.102   8.261
12959TIP3    H238755   2.286   1.994   8.306
12960TIP3   OH238756   0.860   2.483   8.351
12960TIP3    H138757   0.920   2.476   8.428
12960TIP3    H238758   0.785   2.428   8.381
12961TIP3   OH238759   1.789   1.431   8.332
12961TIP3    H138760   1.875   1.410   8.375
12961TIP3    H238761   1.731   1.441   8.409
12962TIP3   OH238762   2.039   1.864   8.235
12962TIP3    H138763   1.992   1.861   8.321
12962TIP3    H238764   2.015   1.953   8.201
12963TIP3   OH238765   1.696   1.998   6.795
12963TIP3    H138766   1.666   1.971   6.706
12963TIP3    H238767   1.778   2.047   6.772
12964TIP3   OH238768   1.412   1.369   7.095
12964TIP3    H138769   1.377   1.391   7.184
12964TIP3    H238770   1.390   1.275   7.097
12965TIP3   OH238771   1.250   1.880   8.133
12965TIP3    H138772   1.174   1.856   8.189
12965TIP3    H238773   1.207   1.938   8.067
12966TIP3   OH238774   1.117   1.728   7.667
12966TIP3    H138775   1.027   1.696   7.685
12966TIP3    H238776   1.127   1.694   7.576
12967TIP3   OH238777   1.580   1.818   7.385
12967TIP3    H138778   1.521   1.885   7.345
12967TIP3    H238779   1.629   1.785   7.308
12968TIP3   OH238780   1.747   2.091   8.477
12968TIP3    H138781   1.730   2.017   8.538
12968TIP3    H238782   1.842   2.105   8.492
12969TIP3   OH238783   1.732   1.839   7.626
12969TIP3    H138784   1.673   1.870   7.554
12969TIP3    H238785   1.763   1.755   7.583
12970TIP3   OH238786   1.743   2.087   8.047
12970TIP3    H138787   1.774   2.014   7.989
12970TIP3    H238788   1.714   2.035   8.125
12971TIP3   OH238789   1.416   1.559   7.717
12971TIP3    H138790   1.325   1.561   7.752
12971TIP3    H238791   1.469   1.558   7.798
12972TIP3   OH238792   1.119   1.622   7.420
12972TIP3    H138793   1.211   1.617   7.390
12972TIP3    H238794   1.069   1.629   7.336
12973TIP3   OH238795   1.900   1.620   7.920
12973TIP3    H138796   1.867   1.633   8.012
12973TIP3    H238797   1.833   1.557   7.888
12974TIP3   OH238798   0.962   1.660   7.203
12974TIP3    H138799   0.884   1.602   7.199
12974TIP3    H238800   0.997   1.661   7.112
12975TIP3   OH238801   2.068   3.311   8.139
12975TIP3    H138802   2.067   3.332   8.044
12975TIP3    H238803   2.148   3.358   8.169
12976TIP3   OH238804   1.016   2.422   8.573
12976TIP3    H138805   1.104   2.451   8.608
12976TIP3    H238806   0.967   2.417   8.655
12977TIP3   OH238807   1.498   1.877   7.821
12977TIP3    H138808   1.564   1.829   7.769
12977TIP3    H238809   1.504   1.833   7.908
12978TIP3   OH238810   1.483   1.759   8.089
12978TIP3    H138811   1.399   1.803   8.115
12978TIP3    H238812   1.544   1.801   8.152
12979TIP3   OH238813   1.206   2.162   7.200
12979TIP3    H138814   1.135   2.094   7.191
12979TIP3    H238815   1.188   2.194   7.292
12980TIP3   OH238816   2.107   2.398   7.833
12980TIP3    H138817   2.133   2.445   7.751
12980TIP3    H238818   2.022   2.356   7.808
12981TIP3   OH238819   1.661   1.480   7.053
12981TIP3    H138820   1.566   1.463   7.071
12981TIP3    H238821   1.675   1.572   7.085
12982TIP3   OH238822   1.607   2.480   8.197
12982TIP3    H138823   1.623   2.450   8.288
12982TIP3    H238824   1.568   2.568   8.208
12983TIP3   OH238825   1.736   1.718   7.164
12983TIP3    H138826   1.832   1.724   7.182
12983TIP3    H238827   1.719   1.799   7.112
12984TIP3   OH238828   0.892   2.182   7.883
12984TIP3    H138829   0.927   2.156   7.796
12984TIP3    H238830   0.956   2.138   7.942
12985TIP3   OH238831   1.349   2.309   7.018
12985TIP3    H138832   1.303   2.396   7.028
12985TIP3    H238833   1.296   2.254   7.081
12986TIP3   OH238834   1.502   2.218   8.509
12986TIP3    H138835   1.446   2.161   8.453
12986TIP3    H238836   1.590   2.184   8.485
12987TIP3   OH238837   1.767   2.741   8.094
12987TIP3    H138838   1.671   2.735   8.105
12987TIP3    H238839   1.792   2.793   8.173
12988TIP3   OH238840   2.176   1.808   7.004
12988TIP3    H138841   2.113   1.763   6.943
12988TIP3    H238842   2.173   1.897   6.962
12989TIP3   OH238843   2.393   2.667   8.085
12989TIP3    H138844   2.295   2.661   8.076
12989TIP3    H238845   2.420   2.637   7.996
12990TIP3   OH238846   1.870   2.629   6.909
12990TIP3    H138847   1.855   2.558   6.973
12990TIP3    H238848   1.888   2.582   6.826
12991TIP3   OH238849   1.871   2.259   7.753
12991TIP3    H138850   1.778   2.231   7.765
12991TIP3    H238851   1.907   2.180   7.708
12992TIP3   OH238852   0.997   2.487   7.505
12992TIP3    H138853   0.999   2.567   7.450
12992TIP3    H238854   0.903   2.468   7.508
12993TIP3   OH238855   1.143   2.258   7.446
12993TIP3    H138856   1.104   2.345   7.466
12993TIP3    H238857   1.113   2.207   7.524
12994TIP3   OH238858   1.266   2.830   7.974
12994TIP3    H138859   1.306   2.902   7.921
12994TIP3    H238860   1.345   2.795   8.020
12995TIP3   OH238861   0.918   2.725   7.355
12995TIP3    H138862   0.832   2.733   7.402
12995TIP3    H238863   0.950   2.818   7.358
12996TIP3   OH238864   1.659   2.466   7.929
12996TIP3    H138865   1.651   2.461   8.027
12996TIP3    H238866   1.737   2.410   7.914
12997TIP3   OH238867   1.627   2.354   6.815
12997TIP3    H138868   1.683   2.330   6.892
12997TIP3    H238869   1.540   2.331   6.849
12998TIP3   OH238870   1.903   3.002   7.985
12998TIP3    H138871   1.827   2.943   7.974
12998TIP3    H238872   1.890   3.065   7.910
12999TIP3   OH238873   1.970   2.833   6.633
12999TIP3    H138874   2.010   2.905   6.583
12999TIP3    H238875   1.890   2.879   6.665
13000TIP3   OH238876   1.789   2.290   7.031
13000TIP3    H138877   1.780   2.224   7.102
13000TIP3    H238878   1.886   2.289   7.018
13001TIP3   OH238879   0.700   2.688   8.134
13001TIP3    H138880   0.763   2.619   8.159
13001TIP3    H238881   0.727   2.761   8.191
13002TIP3   OH238882   0.995   2.339   6.812
13002TIP3    H138883   1.016   2.247   6.787
13002TIP3    H238884   0.976   2.328   6.908
13003TIP3   OH238885   0.941   2.342   7.085
13003TIP3    H138886   1.010   2.311   7.145
13003TIP3    H238887   0.949   2.440   7.094
13004TIP3   OH238888   0.711   2.045   7.284
13004TIP3    H138889   0.643   2.082   7.344
13004TIP3    H238890   0.710   2.115   7.216
13005TIP3   OH238891   1.827   1.667   8.179
13005TIP3    H138892   1.905   1.710   8.219
13005TIP3    H238893   1.812   1.590   8.238
13006TIP3   OH238894   1.713   1.428   7.337
13006TIP3    H138895   1.695   1.458   7.246
13006TIP3    H238896   1.749   1.509   7.379
13007TIP3   OH238897   1.207   2.540   7.033
13007TIP3    H138898   1.121   2.569   7.069
13007TIP3    H238899   1.226   2.613   6.972
13008TIP3   OH238900   1.406   1.617   7.453
13008TIP3    H138901   1.470   1.690   7.437
13008TIP3    H238902   1.405   1.612   7.551
13009TIP3   OH238903   1.672   1.925   8.253
13009TIP3    H138904   1.678   1.979   8.334
13009TIP3    H238905   1.726   1.848   8.275
13010TIP3   OH238906   1.560   1.335   7.553
13010TIP3    H138907   1.524   1.410   7.603
13010TIP3    H238908   1.609   1.378   7.481
13011TIP3   OH238909   0.948   2.616   7.100
13011TIP3    H138910   0.920   2.686   7.037
13011TIP3    H238911   0.934   2.659   7.187
13012TIP3   OH238912   2.306   1.823   8.236
13012TIP3    H138913   2.208   1.820   8.241
13012TIP3    H238914   2.320   1.788   8.148
13013TIP3   OH238915   1.957   2.019   7.625
13013TIP3    H138916   1.882   1.958   7.637
13013TIP3    H238917   2.029   1.972   7.672
13014TIP3   OH238918   0.663   2.255   7.085
13014TIP3    H138919   0.733   2.321   7.100
13014TIP3    H238920   0.711   2.195   7.024
13015TIP3   OH238921   1.924   2.972   7.575
13015TIP3    H138922   1.882   3.019   7.499
13015TIP3    H238923   2.018   2.991   7.555
13016TIP3   OH238924   0.547   2.482   7.507
13016TIP3    H138925   0.455   2.506   7.522
13016TIP3    H238926   0.550   2.485   7.410
13017TIP3   OH238927   0.714   3.008   8.531
13017TIP3    H138928   0.789   3.007   8.594
13017TIP3    H238929   0.676   2.921   8.544
13018TIP3   OH238930   1.180   2.970   8.596
13018TIP3    H138931   1.274   2.949   8.603
13018TIP3    H238932   1.154   2.913   8.521
13019TIP3   OH238933   1.160   2.543   6.727
13019TIP3    H138934   1.105   2.471   6.766
13019TIP3    H238935   1.236   2.492   6.693
13020TIP3   OH238936   1.812   2.877   8.334
13020TIP3    H138937   1.808   2.802   8.397
13020TIP3    H238938   1.896   2.921   8.360
13021TIP3   OH238939   1.596   2.584   6.635
13021TIP3    H138940   1.645   2.523   6.694
13021TIP3    H238941   1.653   2.586   6.556
13022TIP3   OH238942   0.805   2.062   6.952
13022TIP3    H138943   0.856   2.024   7.025
13022TIP3    H238944   0.873   2.062   6.881
13023TIP3   OH238945   1.440   2.490   8.524
13023TIP3    H138946   1.397   2.502   8.437
13023TIP3    H238947   1.470   2.397   8.519
13024TIP3   OH238948   1.304   2.252   6.752
13024TIP3    H138949   1.313   2.269   6.848
13024TIP3    H238950   1.308   2.154   6.750
13025TIP3   OH238951   1.929   2.498   8.134
13025TIP3    H138952   2.002   2.543   8.087
13025TIP3    H238953   1.857   2.562   8.118
13026TIP3   OH238954   1.017   1.960   7.167
13026TIP3    H138955   0.991   1.931   7.256
13026TIP3    H238956   1.044   1.875   7.127
13027TIP3   OH238957   1.270   2.025   8.400
13027TIP3    H138958   1.202   2.096   8.406
13027TIP3    H238959   1.319   2.048   8.318
13028TIP3   OH238960   1.115   1.746   6.991
13028TIP3    H138961   1.091   1.759   6.897
13028TIP3    H238962   1.211   1.765   6.990
13029TIP3   OH238963   1.801   2.429   8.534
13029TIP3    H138964   1.878   2.405   8.481
13029TIP3    H238965   1.799   2.359   8.601
13030TIP3   OH238966   1.935   2.088   6.671
13030TIP3    H138967   1.914   2.040   6.588
13030TIP3    H238968   1.904   2.178   6.645
13031TIP3   OH238969   1.445   1.824   8.502
13031TIP3    H138970   1.391   1.751   8.468
13031TIP3    H238971   1.380   1.896   8.492
13032TIP3   OH238972   1.441   2.146   8.215
13032TIP3    H138973   1.515   2.134   8.154
13032TIP3    H238974   1.383   2.207   8.164
13033TIP3   OH238975   2.017   2.105   8.582
13033TIP3    H138976   2.065   2.024   8.605
13033TIP3    H238977   2.089   2.161   8.548
13034TIP3   OH238978   2.058   2.358   8.324
13034TIP3    H138979   2.002   2.410   8.262
13034TIP3    H238980   2.146   2.375   8.283
13035TIP3   OH238981   1.682   1.870   8.624
13035TIP3    H138982   1.647   1.890   8.712
13035TIP3    H238983   1.598   1.849   8.575
13036TIP3   OH238984   1.904   1.813   8.463
13036TIP3    H138985   1.833   1.820   8.530
13036TIP3    H238986   1.981   1.786   8.518
13037TIP3   OH238987   2.129   1.753   8.614
13037TIP3    H138988   2.147   1.660   8.639
13037TIP3    H238989   2.122   1.798   8.701
13038TIP3   OH238990   0.919   2.817   6.912
13038TIP3    H138991   1.015   2.815   6.894
13038TIP3    H238992   0.889   2.866   6.833
13039TIP3   OH238993   0.397   2.175   7.138
13039TIP3    H138994   0.488   2.212   7.134
13039TIP3    H238995   0.410   2.089   7.095
13040TIP3   OH238996   0.317   2.809   7.532
13040TIP3    H138997   0.235   2.761   7.524
13040TIP3    H238998   0.360   2.763   7.608
13041TIP3   OH238999   0.437   2.679   7.737
13041TIP3    H139000   0.448   2.595   7.784
13041TIP3    H239001   0.495   2.737   7.790
13042TIP3   OH239002   2.173   3.071   7.528
13042TIP3    H139003   2.206   3.101   7.615
13042TIP3    H239004   2.240   3.105   7.467
13043TIP3   OH239005   2.206   3.086   7.813
13043TIP3    H139006   2.165   2.997   7.806
13043TIP3    H239007   2.286   3.063   7.864
13044TIP3   OH239008   2.253   2.762   8.384
13044TIP3    H139009   2.179   2.770   8.446
13044TIP3    H239010   2.295   2.851   8.389
13045TIP3   OH239011   2.068   2.276   7.004
13045TIP3    H139012   2.139   2.338   6.977
13045TIP3    H239013   2.110   2.235   7.083
13046TIP3   OH239014   2.193   2.142   7.205
13046TIP3    H139015   2.133   2.100   7.270
13046TIP3    H239016   2.266   2.176   7.261
13047TIP3   OH239017   2.248   2.530   7.638
13047TIP3    H139018   2.304   2.468   7.588
13047TIP3    H239019   2.241   2.606   7.578
13048TIP3   OH239020   2.084   2.834   7.836
13048TIP3    H139021   2.012   2.873   7.888
13048TIP3    H239022   2.035   2.784   7.767
13049TIP3   OH239023   2.135   2.048   6.856
13049TIP3    H139024   2.063   2.053   6.789
13049TIP3    H239025   2.110   2.125   6.912
13050TIP3   OH239026   2.003   1.724   6.812
13050TIP3    H139027   1.968   1.763   6.732
13050TIP3    H239028   1.978   1.629   6.800
13051TIP3   OH239029   2.010   1.996   7.356
13051TIP3    H139030   2.021   1.900   7.353
13051TIP3    H239031   1.998   2.013   7.452
13052TIP3   OH239032   2.300   2.422   8.212
13052TIP3    H139033   2.373   2.356   8.204
13052TIP3    H239034   2.328   2.491   8.150
13053TIP3   OH239035   2.486   2.230   8.237
13053TIP3    H139036   2.411   2.177   8.273
13053TIP3    H239037   2.559   2.166   8.247
13054TIP3   OH239038   1.951   1.457   6.801
13054TIP3    H139039   2.033   1.430   6.848
13054TIP3    H239040   1.885   1.394   6.833
13055TIP3   OH239041   2.005   1.712   7.251
13055TIP3    H139042   2.047   1.624   7.266
13055TIP3    H239043   2.065   1.747   7.182
13056TIP3   OH239044   2.170   1.890   7.744
13056TIP3    H139045   2.256   1.916   7.705
13056TIP3    H239046   2.183   1.926   7.834
13057TIP3   OH239047   2.237   2.031   7.979
13057TIP3    H139048   2.159   2.066   8.026
13057TIP3    H239049   2.270   2.111   7.932
13058TIP3   OH239050   2.678   1.612   8.533
13058TIP3    H139051   2.744   1.553   8.490
13058TIP3    H239052   2.662   1.679   8.464
13059TIP3   OH239053   2.117   1.463   7.288
13059TIP3    H139054   2.166   1.448   7.372
13059TIP3    H239055   2.057   1.386   7.287
13060TIP3   OH239056   2.563   1.766   8.340
13060TIP3    H139057   2.475   1.802   8.362
13060TIP3    H239058   2.538   1.692   8.282
13061TIP3   OH239059   2.199   1.401   6.917
13061TIP3    H139060   2.240   1.327   6.869
13061TIP3    H239061   2.267   1.470   6.912
13062TIP3   OH239062   1.760   2.931   7.187
13062TIP3    H139063   1.811   2.913   7.105
13062TIP3    H239064   1.817   2.995   7.232
13063TIP3   OH239065   0.857   2.726   8.568
13063TIP3    H139066   0.778   2.673   8.548
13063TIP3    H239067   0.865   2.721   8.663
13064TIP3   OH239068   1.038   2.766   8.122
13064TIP3    H139069   0.992   2.842   8.082
13064TIP3    H239070   1.125   2.778   8.077
13065TIP3   OH239071   1.487   3.012   8.258
13065TIP3    H139072   1.531   3.015   8.346
13065TIP3    H239073   1.552   3.061   8.203
13066TIP3   OH239074   1.666   3.161   8.116
13066TIP3    H139075   1.736   3.111   8.072
13066TIP3    H239076   1.718   3.219   8.175
13067TIP3   OH239077   2.460   1.526   8.217
13067TIP3    H139078   2.368   1.522   8.184
13067TIP3    H239079   2.490   1.433   8.204
13068TIP3   OH239080   0.718   3.022   8.144
13068TIP3    H139081   0.629   3.056   8.122
13068TIP3    H239082   0.725   3.054   8.235
13069TIP3   OH239083   0.954   3.002   8.001
13069TIP3    H139084   0.868   3.015   8.047
13069TIP3    H239085   0.934   3.035   7.911
13070TIP3   OH239086   1.379   3.032   7.799
13070TIP3    H139087   1.311   3.053   7.732
13070TIP3    H239088   1.393   3.119   7.841
13071TIP3   OH239089   1.648   2.973   7.852
13071TIP3    H139090   1.554   2.988   7.829
13071TIP3    H239091   1.691   3.048   7.807
13072TIP3   OH239092   1.856   3.164   7.767
13072TIP3    H139093   1.842   3.248   7.719
13072TIP3    H239094   1.883   3.104   7.694
13073TIP3   OH239095   0.627   2.813   7.886
13073TIP3    H139096   0.650   2.795   7.979
13073TIP3    H239097   0.703   2.770   7.840
13074TIP3   OH239098   0.823   2.687   7.744
13074TIP3    H139099   0.841   2.603   7.791
13074TIP3    H239100   0.913   2.725   7.739
13075TIP3   OH239101   1.087   2.785   7.746
13075TIP3    H139102   1.119   2.694   7.732
13075TIP3    H239103   1.130   2.805   7.831
13076TIP3   OH239104   1.675   1.437   7.842
13076TIP3    H139105   1.623   1.356   7.852
13076TIP3    H239106   1.742   1.409   7.778
13077TIP3   OH239107   2.189   1.315   7.741
13077TIP3    H139108   2.228   1.370   7.669
13077TIP3    H239109   2.095   1.339   7.736
13078TIP3   OH239110   2.283   1.420   7.506
13078TIP3    H139111   2.356   1.370   7.465
13078TIP3    H239112   2.316   1.512   7.491
13079TIP3   OH239113   1.908   1.324   7.718
13079TIP3    H139114   1.894   1.295   7.627
13079TIP3    H239115   1.889   1.243   7.769
13080TIP3   OH239116   1.932   1.252   7.277
13080TIP3    H139117   1.847   1.297   7.290
13080TIP3    H239118   1.914   1.165   7.319
13081TIP3   OH239119   0.398   2.588   7.293
13081TIP3    H139120   0.349   2.545   7.222
13081TIP3    H239121   0.392   2.681   7.265
13082TIP3   OH239122   1.333   1.382   7.352
13082TIP3    H139123   1.367   1.319   7.418
13082TIP3    H239124   1.356   1.468   7.393
13083TIP3   OH239125   1.188   2.781   6.862
13083TIP3    H139126   1.277   2.802   6.827
13083TIP3    H239127   1.166   2.705   6.803
13084TIP3   OH239128   1.905   2.895   6.954
13084TIP3    H139129   1.896   2.798   6.940
13084TIP3    H239130   1.863   2.929   6.873
13085TIP3   OH239131   0.491   2.609   6.924
13085TIP3    H139132   0.495   2.654   7.009
13085TIP3    H239133   0.583   2.575   6.913
13086TIP3   OH239134   2.198   1.483   8.655
13086TIP3    H139135   2.226   1.423   8.726
13086TIP3    H239136   2.279   1.485   8.600
13087TIP3   OH239137   2.133   3.041   8.146
13087TIP3    H139138   2.055   3.009   8.095
13087TIP3    H239139   2.115   3.137   8.144
13088TIP3   OH239140   3.401   2.413   6.908
13088TIP3    H139141   3.375   2.505   6.891
13088TIP3    H239142   3.320   2.366   6.882
13089TIP3   OH239143   3.419   2.401   7.278
13089TIP3    H139144   3.427   2.382   7.373
13089TIP3    H239145   3.356   2.334   7.249
13090TIP3   OH239146   2.698   2.314   7.667
13090TIP3    H139147   2.736   2.245   7.723
13090TIP3    H239148   2.776   2.365   7.642
13091TIP3   OH239149   3.642   2.713   6.970
13091TIP3    H139150   3.626   2.644   7.035
13091TIP3    H239151   3.668   2.789   7.026
13092TIP3   OH239152   2.376   1.918   7.167
13092TIP3    H139153   2.336   2.005   7.182
13092TIP3    H239154   2.302   1.869   7.129
13093TIP3   OH239155   2.433   2.204   7.326
13093TIP3    H139156   2.484   2.133   7.370
13093TIP3    H239157   2.506   2.260   7.293
13094TIP3   OH239158   3.290   3.177   6.985
13094TIP3    H139159   3.340   3.106   6.941
13094TIP3    H239160   3.279   3.141   7.074
13095TIP3   OH239161   3.214   2.615   7.361
13095TIP3    H139162   3.230   2.568   7.279
13095TIP3    H239163   3.295   2.669   7.368
13096TIP3   OH239164   4.209   1.959   7.335
13096TIP3    H139165   4.237   2.041   7.380
13096TIP3    H239166   4.230   1.981   7.243
13097TIP3   OH239167   3.611   2.141   7.374
13097TIP3    H139168   3.652   2.054   7.391
13097TIP3    H239169   3.579   2.129   7.282
13098TIP3   OH239170   2.946   1.798   7.337
13098TIP3    H139171   2.926   1.872   7.276
13098TIP3    H239172   2.897   1.726   7.293
13099TIP3   OH239173   3.640   1.888   6.960
13099TIP3    H139174   3.713   1.873   7.025
13099TIP3    H239175   3.691   1.926   6.886
13100TIP3   OH239176   2.579   2.000   7.445
13100TIP3    H139177   2.664   1.982   7.490
13100TIP3    H239178   2.592   1.948   7.363
13101TIP3   OH239179   3.022   2.198   7.235
13101TIP3    H139180   3.115   2.172   7.250
13101TIP3    H239181   2.982   2.115   7.203
13102TIP3   OH239182   4.282   2.165   7.505
13102TIP3    H139183   4.199   2.214   7.487
13102TIP3    H239184   4.296   2.189   7.598
13103TIP3   OH239185   2.944   1.782   7.771
13103TIP3    H139186   2.885   1.820   7.703
13103TIP3    H239187   2.893   1.801   7.852
13104TIP3   OH239188   3.301   2.638   6.775
13104TIP3    H139189   3.246   2.607   6.702
13104TIP3    H239190   3.254   2.721   6.798
13105TIP3   OH239191   3.049   2.555   7.571
13105TIP3    H139192   2.986   2.624   7.602
13105TIP3    H239193   3.087   2.599   7.491
13106TIP3   OH239194   3.855   1.890   7.128
13106TIP3    H139195   3.843   1.842   7.211
13106TIP3    H239196   3.907   1.967   7.156
13107TIP3   OH239197   2.815   1.897   7.556
13107TIP3    H139198   2.876   1.971   7.577
13107TIP3    H239199   2.863   1.857   7.481
13108TIP3   OH239200   2.882   2.748   7.673
13108TIP3    H139201   2.854   2.782   7.586
13108TIP3    H239202   2.797   2.751   7.722
13109TIP3   OH239203   2.274   2.441   6.901
13109TIP3    H139204   2.235   2.470   6.817
13109TIP3    H239205   2.306   2.525   6.939
13110TIP3   OH239206   3.715   2.956   7.140
13110TIP3    H139207   3.626   2.947   7.180
13110TIP3    H239208   3.706   3.042   7.095
13111TIP3   OH239209   4.003   1.859   7.502
13111TIP3    H139210   3.915   1.889   7.473
13111TIP3    H239211   4.061   1.891   7.429
13112TIP3   OH239212   3.303   1.504   7.483
13112TIP3    H139213   3.291   1.408   7.500
13112TIP3    H239214   3.225   1.541   7.530
13113TIP3   OH239215   3.423   3.005   6.820
13113TIP3    H139216   3.470   2.923   6.795
13113TIP3    H239217   3.479   3.071   6.773
13114TIP3   OH239218   3.561   2.789   6.716
13114TIP3    H139219   3.508   2.713   6.686
13114TIP3    H239220   3.596   2.755   6.801
13115TIP3   OH239221   3.941   2.872   7.482
13115TIP3    H139222   3.929   2.794   7.425
13115TIP3    H239223   3.923   2.946   7.420
13116TIP3   OH239224   3.229   2.261   6.738
13116TIP3    H139225   3.148   2.313   6.719
13116TIP3    H239226   3.275   2.263   6.652
13117TIP3   OH239227   3.189   2.049   6.457
13117TIP3    H139228   3.256   2.097   6.508
13117TIP3    H239229   3.246   1.984   6.411
13118TIP3   OH239230   4.135   2.506   7.326
13118TIP3    H139231   4.052   2.559   7.333
13118TIP3    H239232   4.163   2.530   7.236
13119TIP3   OH239233   3.578   2.346   6.712
13119TIP3    H139234   3.522   2.372   6.789
13119TIP3    H239235   3.661   2.320   6.758
13120TIP3   OH239236   3.814   2.388   7.621
13120TIP3    H139237   3.810   2.472   7.669
13120TIP3    H239238   3.727   2.389   7.577
13121TIP3   OH239239   2.818   2.346   7.112
13121TIP3    H139240   2.774   2.281   7.054
13121TIP3    H239241   2.888   2.293   7.154
13122TIP3   OH239242   2.943   2.319   7.483
13122TIP3    H139243   2.974   2.303   7.392
13122TIP3    H239244   2.985   2.405   7.504
13123TIP3   OH239245   3.474   2.955   7.259
13123TIP3    H139246   3.457   3.032   7.315
13123TIP3    H239247   3.461   2.880   7.320
13124TIP3   OH239248   3.085   2.874   7.809
13124TIP3    H139249   3.023   2.937   7.851
13124TIP3    H239250   3.020   2.821   7.757
13125TIP3   OH239251   3.422   2.202   6.538
13125TIP3    H139252   3.479   2.263   6.591
13125TIP3    H239253   3.447   2.229   6.446
13126TIP3   OH239254   2.840   2.426   7.913
13126TIP3    H139255   2.843   2.515   7.953
13126TIP3    H239256   2.744   2.412   7.908
13127TIP3   OH239257   3.165   2.884   6.804
13127TIP3    H139258   3.234   2.941   6.839
13127TIP3    H239259   3.096   2.946   6.778
13128TIP3   OH239260   2.880   3.046   7.895
13128TIP3    H139261   2.850   3.042   7.801
13128TIP3    H239262   2.798   3.021   7.943
13129TIP3   OH239263   3.934   1.447   6.585
13129TIP3    H139264   3.853   1.465   6.637
13129TIP3    H239265   3.945   1.531   6.537
13130TIP3   OH239266   2.681   2.179   6.922
13130TIP3    H139267   2.614   2.230   6.872
13130TIP3    H239268   2.630   2.102   6.950
13131TIP3   OH239269   3.732   2.814   6.131
13131TIP3    H139270   3.739   2.911   6.120
13131TIP3    H239271   3.825   2.786   6.120
13132TIP3   OH239272   2.456   2.571   7.841
13132TIP3    H139273   2.396   2.546   7.768
13132TIP3    H239274   2.495   2.485   7.867
13133TIP3   OH239275   2.308   2.764   7.477
13133TIP3    H139276   2.402   2.750   7.463
13133TIP3    H239277   2.308   2.844   7.531
13134TIP3   OH239278   4.176   3.213   7.527
13134TIP3    H139279   4.175   3.117   7.540
13134TIP3    H239280   4.093   3.238   7.573
13135TIP3   OH239281   3.285   3.001   7.665
13135TIP3    H139282   3.282   3.094   7.695
13135TIP3    H239283   3.211   2.962   7.717
13136TIP3   OH239284   3.041   3.134   6.613
13136TIP3    H139285   2.994   3.112   6.530
13136TIP3    H239286   3.008   3.223   6.634
13137TIP3   OH239287   2.476   2.981   6.994
13137TIP3    H139288   2.528   2.974   7.078
13137TIP3    H239289   2.422   2.900   7.001
13138TIP3   OH239290   3.245   3.032   6.257
13138TIP3    H139291   3.303   2.962   6.221
13138TIP3    H239292   3.278   3.040   6.349
13139TIP3   OH239293   3.293   3.079   6.527
13139TIP3    H139294   3.205   3.088   6.569
13139TIP3    H239295   3.342   3.034   6.599
13140TIP3   OH239296   4.067   2.348   7.802
13140TIP3    H139297   3.987   2.362   7.750
13140TIP3    H239298   4.081   2.252   7.791
13141TIP3   OH239299   2.657   2.760   7.835
13141TIP3    H139300   2.713   2.736   7.912
13141TIP3    H239301   2.587   2.691   7.839
13142TIP3   OH239302   3.062   1.578   7.611
13142TIP3    H139303   2.972   1.548   7.587
13142TIP3    H239304   3.039   1.662   7.655
13143TIP3   OH239305   3.595   1.694   7.807
13143TIP3    H139306   3.662   1.667   7.872
13143TIP3    H239307   3.510   1.673   7.852
13144TIP3   OH239308   3.838   2.123   7.726
13144TIP3    H139309   3.788   2.119   7.811
13144TIP3    H239310   3.811   2.209   7.690
13145TIP3   OH239311   3.494   2.252   6.280
13145TIP3    H139312   3.463   2.226   6.192
13145TIP3    H239313   3.572   2.306   6.258
13146TIP3   OH239314   3.209   1.628   6.583
13146TIP3    H139315   3.177   1.627   6.675
13146TIP3    H239316   3.170   1.544   6.551
13147TIP3   OH239317   2.994   2.094   7.629
13147TIP3    H139318   2.944   2.116   7.710
13147TIP3    H239319   2.978   2.175   7.575
13148TIP3   OH239320   2.879   1.977   7.145
13148TIP3    H139321   2.785   1.955   7.162
13148TIP3    H239322   2.891   1.937   7.056
13149TIP3   OH239323   3.368   2.065   6.871
13149TIP3    H139324   3.313   2.137   6.832
13149TIP3    H239325   3.422   2.038   6.795
13150TIP3   OH239326   3.543   2.346   7.961
13150TIP3    H139327   3.520   2.273   8.022
13150TIP3    H239328   3.637   2.358   7.982
13151TIP3   OH239329   3.527   2.095   7.114
13151TIP3    H139330   3.468   2.128   7.043
13151TIP3    H239331   3.557   2.012   7.070
13152TIP3   OH239332   2.815   2.122   7.841
13152TIP3    H139333   2.841   2.187   7.908
13152TIP3    H239334   2.803   2.041   7.894
13153TIP3   OH239335   2.863   1.599   6.550
13153TIP3    H139336   2.857   1.596   6.647
13153TIP3    H239337   2.783   1.651   6.528
13154TIP3   OH239338   2.405   1.644   7.422
13154TIP3    H139339   2.481   1.678   7.475
13154TIP3    H239340   2.447   1.614   7.340
13155TIP3   OH239341   2.382   1.626   6.939
13155TIP3    H139342   2.428   1.665   6.862
13155TIP3    H239343   2.322   1.700   6.962
13156TIP3   OH239344   3.542   2.343   7.540
13156TIP3    H139345   3.570   2.271   7.479
13156TIP3    H239346   3.509   2.290   7.615
13157TIP3   OH239347   3.203   1.800   7.207
13157TIP3    H139348   3.119   1.800   7.258
13157TIP3    H239349   3.269   1.805   7.277
13158TIP3   OH239350   2.639   1.857   7.217
13158TIP3    H139351   2.545   1.864   7.190
13158TIP3    H239352   2.663   1.766   7.191
13159TIP3   OH239353   2.911   1.852   6.902
13159TIP3    H139354   3.005   1.870   6.882
13159TIP3    H239355   2.864   1.878   6.820
13160TIP3   OH239356   3.697   1.876   7.407
13160TIP3    H139357   3.662   1.889   7.498
13160TIP3    H239358   3.630   1.815   7.371
13161TIP3   OH239359   2.748   1.884   6.682
13161TIP3    H139360   2.674   1.843   6.633
13161TIP3    H239361   2.799   1.921   6.608
13162TIP3   OH239362   3.865   3.566   7.626
13162TIP3    H139363   3.863   3.588   7.531
13162TIP3    H239364   3.944   3.615   7.657
13163TIP3   OH239365   2.822   2.676   8.049
13163TIP3    H139366   2.903   2.707   8.094
13163TIP3    H239367   2.759   2.676   8.124
13164TIP3   OH239368   3.288   2.126   7.304
13164TIP3    H139369   3.363   2.090   7.254
13164TIP3    H239370   3.301   2.087   7.392
13165TIP3   OH239371   2.813   1.618   7.180
13165TIP3    H139372   2.781   1.537   7.225
13165TIP3    H239373   2.867   1.583   7.108
13166TIP3   OH239374   3.265   2.022   7.597
13166TIP3    H139375   3.176   2.061   7.607
13166TIP3    H239376   3.322   2.084   7.646
13167TIP3   OH239377   3.004   2.416   6.688
13167TIP3    H139378   2.929   2.353   6.679
13167TIP3    H239379   2.987   2.451   6.780
13168TIP3   OH239380   3.904   2.653   7.320
13168TIP3    H139381   3.926   2.702   7.238
13168TIP3    H239382   3.817   2.612   7.297
13169TIP3   OH239383   3.459   1.733   6.543
13169TIP3    H139384   3.363   1.716   6.556
13169TIP3    H239385   3.471   1.826   6.573
13170TIP3   OH239386   3.413   2.740   7.685
13170TIP3    H139387   3.415   2.710   7.776
13170TIP3    H239388   3.361   2.822   7.690
13171TIP3   OH239389   3.531   1.975   6.651
13171TIP3    H139390   3.627   1.982   6.670
13171TIP3    H239391   3.512   2.056   6.601
13172TIP3   OH239392   2.664   2.376   7.363
13172TIP3    H139393   2.709   2.429   7.294
13172TIP3    H239394   2.737   2.363   7.425
13173TIP3   OH239395   3.145   2.565   6.507
13173TIP3    H139396   3.100   2.653   6.516
13173TIP3    H239397   3.092   2.511   6.568
13174TIP3   OH239398   2.569   2.363   7.981
13174TIP3    H139399   2.596   2.347   8.073
13174TIP3    H239400   2.505   2.291   7.965
13175TIP3   OH239401   3.298   2.472   7.999
13175TIP3    H139402   3.240   2.416   7.944
13175TIP3    H239403   3.386   2.440   7.971
13176TIP3   OH239404   3.565   3.003   7.578
13176TIP3    H139405   3.469   2.990   7.591
13176TIP3    H239406   3.589   3.050   7.660
13177TIP3   OH239407   3.974   2.064   6.489
13177TIP3    H139408   3.911   2.019   6.429
13177TIP3    H239409   3.970   2.153   6.449
13178TIP3   OH239410   4.190   2.923   7.572
13178TIP3    H139411   4.092   2.918   7.563
13178TIP3    H239412   4.216   2.893   7.482
13179TIP3   OH239413   3.673   2.885   6.398
13179TIP3    H139414   3.646   2.818   6.462
13179TIP3    H239415   3.682   2.836   6.315
13180TIP3   OH239416   3.670   2.515   7.239
13180TIP3    H139417   3.577   2.486   7.252
13180TIP3    H239418   3.705   2.436   7.193
13181TIP3   OH239419   2.780   2.726   6.944
13181TIP3    H139420   2.786   2.821   6.924
13181TIP3    H239421   2.721   2.724   7.021
13182TIP3   OH239422   2.356   2.048   6.690
13182TIP3    H139423   2.404   2.130   6.712
13182TIP3    H239424   2.280   2.054   6.752
13183TIP3   OH239425   2.947   2.509   6.934
13183TIP3    H139426   2.901   2.595   6.943
13183TIP3    H239427   2.907   2.461   7.009
13184TIP3   OH239428   3.062   3.092   7.464
13184TIP3    H139429   3.106   3.158   7.407
13184TIP3    H239430   3.137   3.050   7.507
13185TIP3   OH239431   2.712   2.990   6.837
13185TIP3    H139432   2.627   2.991   6.885
13185TIP3    H239433   2.739   3.084   6.844
13186TIP3   OH239434   3.465   2.725   7.416
13186TIP3    H139435   3.450   2.722   7.513
13186TIP3    H239436   3.538   2.663   7.405
13187TIP3   OH239437   3.424   2.610   6.298
13187TIP3    H139438   3.477   2.586   6.378
13187TIP3    H239439   3.336   2.588   6.330
13188TIP3   OH239440   3.702   3.257   7.470
13188TIP3    H139441   3.625   3.197   7.465
13188TIP3    H239442   3.684   3.319   7.397
13189TIP3   OH239443   3.766   3.089   6.120
13189TIP3    H139444   3.804   3.162   6.068
13189TIP3    H239445   3.686   3.135   6.154
13190TIP3   OH239446   2.788   1.865   7.989
13190TIP3    H139447   2.692   1.870   8.003
13190TIP3    H239448   2.816   1.804   8.059
13191TIP3   OH239449   3.585   2.543   6.513
13191TIP3    H139450   3.574   2.481   6.588
13191TIP3    H239451   3.682   2.545   6.505
13192TIP3   OH239452   2.499   2.951   7.624
13192TIP3    H139453   2.554   2.875   7.646
13192TIP3    H239454   2.541   3.018   7.678
13193TIP3   OH239455   2.793   2.594   6.299
13193TIP3    H139456   2.808   2.502   6.271
13193TIP3    H239457   2.777   2.583   6.395
13194TIP3   OH239458   2.740   2.598   6.572
13194TIP3    H139459   2.801   2.572   6.642
13194TIP3    H239460   2.743   2.696   6.580
13195TIP3   OH239461   2.474   2.292   6.774
13195TIP3    H139462   2.410   2.337   6.834
13195TIP3    H239463   2.492   2.363   6.711
13196TIP3   OH239464   3.622   1.929   7.665
13196TIP3    H139465   3.701   1.967   7.707
13196TIP3    H239466   3.606   1.849   7.720
13197TIP3   OH239467   3.503   1.682   6.828
13197TIP3    H139468   3.488   1.709   6.736
13197TIP3    H239469   3.541   1.764   6.867
13198TIP3   OH239470   3.004   2.797   6.519
13198TIP3    H139471   2.918   2.823   6.557
13198TIP3    H239472   3.019   2.870   6.458
13199TIP3   OH239473   3.195   1.858   6.933
13199TIP3    H139474   3.259   1.931   6.916
13199TIP3    H239475   3.197   1.853   7.031
13200TIP3   OH239476   3.460   2.179   7.743
13200TIP3    H139477   3.478   2.235   7.822
13200TIP3    H239478   3.517   2.102   7.759
13201TIP3   OH239479   3.339   1.591   7.039
13201TIP3    H139480   3.330   1.667   7.098
13201TIP3    H239481   3.398   1.628   6.969
13202TIP3   OH239482   2.745   2.872   6.586
13202TIP3    H139483   2.715   2.943   6.525
13202TIP3    H239484   2.730   2.913   6.674
13203TIP3   OH239485   2.848   1.584   6.826
13203TIP3    H139486   2.846   1.675   6.861
13203TIP3    H239487   2.944   1.565   6.835
13204TIP3   OH239488   4.104   2.079   7.722
13204TIP3    H139489   4.006   2.078   7.730
13204TIP3    H239490   4.113   2.040   7.634
13205TIP3   OH239491   3.754   2.273   7.109
13205TIP3    H139492   3.677   2.216   7.124
13205TIP3    H239493   3.825   2.226   7.159
13206TIP3   OH239494   2.464   2.507   6.581
13206TIP3    H139495   2.529   2.578   6.593
13206TIP3    H239496   2.512   2.454   6.514
13207TIP3   OH239497   2.412   1.778   6.713
13207TIP3    H139498   2.410   1.876   6.708
13207TIP3    H239499   2.326   1.755   6.675
13208TIP3   OH239500   3.721   3.229   7.062
13208TIP3    H139501   3.678   3.275   6.987
13208TIP3    H239502   3.815   3.248   7.041
13209TIP3   OH239503   2.797   1.498   7.590
13209TIP3    H139504   2.766   1.466   7.503
13209TIP3    H239505   2.786   1.419   7.646
13210TIP3   OH239506   2.338   2.718   6.975
13210TIP3    H139507   2.257   2.752   7.016
13210TIP3    H239508   2.327   2.753   6.884
13211TIP3   OH239509   2.490   3.254   8.043
13211TIP3    H139510   2.578   3.252   8.086
13211TIP3    H239511   2.471   3.159   8.036
13212TIP3   OH239512   2.977   3.226   8.084
13212TIP3    H139513   3.070   3.203   8.090
13212TIP3    H239514   2.949   3.168   8.010
13213TIP3   OH239515   2.956   2.799   6.214
13213TIP3    H139516   2.899   2.729   6.253
13213TIP3    H239517   3.031   2.745   6.182
13214TIP3   OH239518   3.613   3.131   7.819
13214TIP3    H139519   3.604   3.059   7.885
13214TIP3    H239520   3.692   3.178   7.850
13215TIP3   OH239521   3.393   2.841   6.124
13215TIP3    H139522   3.439   2.777   6.181
13215TIP3    H239523   3.450   2.842   6.044
13216TIP3   OH239524   2.622   2.663   8.242
13216TIP3    H139525   2.642   2.567   8.242
13216TIP3    H239526   2.536   2.665   8.196
13217TIP3   OH239527   2.600   2.316   6.432
13217TIP3    H139528   2.654   2.283   6.506
13217TIP3    H239529   2.669   2.321   6.362
13218TIP3   OH239530   3.231   2.747   8.014
13218TIP3    H139531   3.188   2.763   7.928
13218TIP3    H239532   3.261   2.654   8.006
13219TIP3   OH239533   3.108   2.512   6.238
13219TIP3    H139534   3.109   2.527   6.335
13219TIP3    H239535   3.105   2.414   6.235
13220TIP3   OH239536   3.727   2.752   7.621
13220TIP3    H139537   3.796   2.804   7.575
13220TIP3    H239538   3.649   2.810   7.608
13221TIP3   OH239539   2.740   2.396   8.222
13221TIP3    H139540   2.816   2.341   8.199
13221TIP3    H239541   2.766   2.428   8.310
13222TIP3   OH239542   2.807   2.218   6.655
13222TIP3    H139543   2.781   2.181   6.741
13222TIP3    H239544   2.842   2.140   6.608
13223TIP3   OH239545   3.078   2.282   7.883
13223TIP3    H139546   3.001   2.342   7.889
13223TIP3    H239547   3.124   2.317   7.803
13224TIP3   OH239548   2.908   2.008   6.497
13224TIP3    H139549   2.881   2.011   6.403
13224TIP3    H239550   3.005   2.018   6.489
13225TIP3   OH239551   3.595   2.686   8.020
13225TIP3    H139552   3.673   2.663   7.968
13225TIP3    H239553   3.593   2.615   8.088
13226TIP3   OH239554   3.735   2.345   6.155
13226TIP3    H139555   3.709   2.297   6.074
13226TIP3    H239556   3.702   2.435   6.132
13227TIP3   OH239557   3.200   2.070   8.012
13227TIP3    H139558   3.200   1.990   7.956
13227TIP3    H239559   3.157   2.136   7.953
13228TIP3   OH239560   3.203   1.855   7.817
13228TIP3    H139561   3.230   1.898   7.733
13228TIP3    H239562   3.109   1.833   7.799
13229TIP3   OH239563   3.234   2.398   7.691
13229TIP3    H139564   3.312   2.404   7.635
13229TIP3    H239565   3.174   2.463   7.648
13230TIP3   OH239566   3.815   2.361   8.074
13230TIP3    H139567   3.863   2.277   8.081
13230TIP3    H239568   3.884   2.419   8.038
13231TIP3   OH239569   3.856   2.612   7.810
13231TIP3    H139570   3.797   2.664   7.750
13231TIP3    H239571   3.943   2.631   7.769
13232TIP3   OH239572   3.077   2.186   8.240
13232TIP3    H139573   3.009   2.118   8.253
13232TIP3    H239574   3.113   2.161   8.152
13233TIP3   OH239575   3.336   1.621   7.882
13233TIP3    H139576   3.287   1.704   7.860
13233TIP3    H239577   3.265   1.554   7.871
13234TIP3   OH239578   3.462   2.127   8.099
13234TIP3    H139579   3.451   2.115   8.195
13234TIP3    H239580   3.371   2.102   8.070
13235TIP3   OH239581   3.702   2.074   7.954
13235TIP3    H139582   3.625   2.076   8.015
13235TIP3    H239583   3.774   2.043   8.013
13236TIP3   OH239584   3.931   2.015   8.107
13236TIP3    H139585   3.943   1.919   8.127
13236TIP3    H239586   3.926   2.055   8.197
13237TIP3   OH239587   2.917   1.965   8.291
13237TIP3    H139588   2.926   1.875   8.255
13237TIP3    H239589   2.954   1.952   8.381
13238TIP3   OH239590   3.432   1.631   8.139
13238TIP3    H139591   3.499   1.560   8.134
13238TIP3    H239592   3.391   1.624   8.050
13239TIP3   OH239593   3.496   1.846   8.298
13239TIP3    H139594   3.473   1.775   8.234
13239TIP3    H239595   3.419   1.906   8.292
13240TIP3   OH239596   2.715   3.077   6.400
13240TIP3    H139597   2.811   3.072   6.381
13240TIP3    H239598   2.685   3.123   6.319
13241TIP3   OH239599   2.196   2.457   6.616
13241TIP3    H139600   2.291   2.479   6.604
13241TIP3    H239601   2.192   2.367   6.576
13242TIP3   OH239602   2.107   3.069   7.029
13242TIP3    H139603   2.041   3.005   6.995
13242TIP3    H239604   2.153   3.014   7.096
13243TIP3   OH239605   2.243   2.926   7.217
13243TIP3    H139606   2.237   2.847   7.273
13243TIP3    H239607   2.298   2.983   7.274
13244TIP3   OH239608   3.972   3.323   7.014
13244TIP3    H139609   3.999   3.354   7.103
13244TIP3    H239610   4.035   3.368   6.956
13245TIP3   OH239611   4.004   3.341   7.297
13245TIP3    H139612   3.960   3.254   7.293
13245TIP3    H239613   4.079   3.319   7.355
13246TIP3   OH239614   4.050   3.018   7.870
13246TIP3    H139615   3.976   3.025   7.934
13246TIP3    H239616   4.090   3.107   7.876
13247TIP3   OH239617   3.867   2.531   6.491
13247TIP3    H139618   3.936   2.594   6.466
13247TIP3    H239619   3.907   2.490   6.571
13248TIP3   OH239620   3.993   2.398   6.694
13248TIP3    H139621   3.927   2.355   6.754
13248TIP3    H239622   4.057   2.437   6.757
13249TIP3   OH239623   4.046   2.789   7.128
13249TIP3    H139624   4.100   2.726   7.076
13249TIP3    H239625   4.034   2.863   7.065
13250TIP3   OH239626   3.880   3.091   7.322
13250TIP3    H139627   3.808   3.131   7.376
13250TIP3    H239628   3.829   3.041   7.254
13251TIP3   OH239629   3.932   2.305   6.342
13251TIP3    H139630   3.860   2.310   6.275
13251TIP3    H239631   3.906   2.381   6.399
13252TIP3   OH239632   3.805   1.978   6.296
13252TIP3    H139633   3.758   2.019   6.222
13252TIP3    H239634   3.778   1.884   6.286
13253TIP3   OH239635   3.809   2.253   6.842
13253TIP3    H139636   3.816   2.156   6.839
13253TIP3    H239637   3.795   2.269   6.938
13254TIP3   OH239638   2.436   2.327   7.586
13254TIP3    H139639   2.438   2.304   7.492
13254TIP3    H239640   2.533   2.331   7.605
13255TIP3   OH239641   4.096   2.678   7.699
13255TIP3    H139642   4.170   2.613   7.690
13255TIP3    H239643   4.123   2.748   7.637
13256TIP3   OH239644   4.283   2.487   7.720
13256TIP3    H139645   4.208   2.436   7.757
13256TIP3    H239646   4.356   2.422   7.732
13257TIP3   OH239647   3.747   1.712   6.282
13257TIP3    H139648   3.822   1.683   6.338
13257TIP3    H239649   3.674   1.655   6.311
13258TIP3   OH239650   3.803   1.969   6.739
13258TIP3    H139651   3.843   1.880   6.754
13258TIP3    H239652   3.862   2.003   6.670
13259TIP3   OH239653   3.967   2.145   7.232
13259TIP3    H139654   4.053   2.173   7.193
13259TIP3    H239655   3.978   2.182   7.322
13260TIP3   OH239656   4.033   2.288   7.465
13260TIP3    H139657   3.955   2.322   7.513
13260TIP3    H239658   4.065   2.369   7.420
13261TIP3   OH239659   2.651   2.016   8.262
13261TIP3    H139660   2.748   2.009   8.264
13261TIP3    H239661   2.627   1.932   8.305
13262TIP3   OH239662   4.485   1.877   8.021
13262TIP3    H139663   4.543   1.812   7.978
13262TIP3    H239664   4.459   1.934   7.946
13263TIP3   OH239665   3.913   1.719   6.774
13263TIP3    H139666   3.961   1.704   6.858
13263TIP3    H239667   3.852   1.642   6.774
13264TIP3   OH239668   2.612   1.706   7.596
13264TIP3    H139669   2.676   1.633   7.606
13264TIP3    H239670   2.673   1.782   7.589
13265TIP3   OH239671   2.416   1.982   7.669
13265TIP3    H139672   2.465   1.973   7.584
13265TIP3    H239673   2.445   2.069   7.697
13266TIP3   OH239674   4.359   2.021   7.828
13266TIP3    H139675   4.271   2.059   7.849
13266TIP3    H239676   4.332   1.949   7.768
13267TIP3   OH239677   3.995   1.658   6.405
13267TIP3    H139678   4.036   1.583   6.357
13267TIP3    H239679   4.063   1.727   6.399
13268TIP3   OH239680   2.398   1.483   7.168
13268TIP3    H139681   2.304   1.484   7.193
13268TIP3    H239682   2.398   1.542   7.089
13269TIP3   OH239683   3.557   3.188   6.673
13269TIP3    H139684   3.609   3.171   6.591
13269TIP3    H239685   3.613   3.253   6.718
13270TIP3   OH239686   2.618   1.563   7.983
13270TIP3    H139687   2.569   1.560   8.066
13270TIP3    H239688   2.551   1.603   7.923
13271TIP3   OH239689   2.657   2.996   8.063
13271TIP3    H139690   2.570   2.960   8.040
13271TIP3    H239691   2.666   2.969   8.156
13272TIP3   OH239692   2.830   3.038   7.623
13272TIP3    H139693   2.791   3.108   7.568
13272TIP3    H239694   2.912   3.024   7.572
13273TIP3   OH239695   3.284   3.269   7.747
13273TIP3    H139696   3.327   3.270   7.835
13273TIP3    H239697   3.350   3.318   7.693
13274TIP3   OH239698   3.462   3.419   7.602
13274TIP3    H139699   3.532   3.366   7.561
13274TIP3    H239700   3.514   3.475   7.663
13275TIP3   OH239701   4.256   1.782   7.704
13275TIP3    H139702   4.164   1.778   7.671
13275TIP3    H239703   4.285   1.689   7.691
13276TIP3   OH239704   2.513   3.282   7.627
13276TIP3    H139705   2.424   3.317   7.606
13276TIP3    H239706   2.522   3.307   7.719
13277TIP3   OH239707   2.751   3.265   7.486
13277TIP3    H139708   2.664   3.274   7.532
13277TIP3    H239709   2.729   3.294   7.395
13278TIP3   OH239710   3.179   3.291   7.282
13278TIP3    H139711   3.106   3.308   7.220
13278TIP3    H239712   3.189   3.377   7.327
13279TIP3   OH239713   3.445   3.231   7.337
13279TIP3    H139714   3.350   3.244   7.317
13279TIP3    H239715   3.485   3.308   7.294
13280TIP3   OH239716   3.656   3.423   7.254
13280TIP3    H139717   3.640   3.506   7.205
13280TIP3    H239718   3.679   3.360   7.181
13281TIP3   OH239719   2.423   3.073   7.378
13281TIP3    H139720   2.454   3.049   7.469
13281TIP3    H239721   2.495   3.031   7.326
13282TIP3   OH239722   2.615   2.958   7.223
13282TIP3    H139723   2.651   2.874   7.263
13282TIP3    H239724   2.700   3.006   7.222
13283TIP3   OH239725   2.889   3.054   7.226
13283TIP3    H139726   2.892   2.956   7.222
13283TIP3    H239727   2.924   3.064   7.316
13284TIP3   OH239728   3.462   1.698   7.322
13284TIP3    H139729   3.416   1.630   7.375
13284TIP3    H239730   3.531   1.647   7.277
13285TIP3   OH239731   3.986   1.576   7.228
13285TIP3    H139732   4.022   1.629   7.154
13285TIP3    H239733   3.891   1.594   7.222
13286TIP3   OH239734   4.080   1.679   6.991
13286TIP3    H139735   4.153   1.628   6.951
13286TIP3    H239736   4.113   1.771   6.977
13287TIP3   OH239737   2.710   1.406   7.341
13287TIP3    H139738   2.618   1.373   7.339
13287TIP3    H239739   2.759   1.321   7.337
13288TIP3   OH239740   2.493   1.275   6.986
13288TIP3    H139741   2.525   1.332   6.915
13288TIP3    H239742   2.465   1.340   7.053
13289TIP3   OH239743   3.151   1.439   7.219
13289TIP3    H139744   3.211   1.491   7.162
13289TIP3    H239745   3.171   1.476   7.306
13290TIP3   OH239746   3.704   1.584   7.204
13290TIP3    H139747   3.696   1.549   7.114
13290TIP3    H239748   3.688   1.503   7.258
13291TIP3   OH239749   3.730   1.505   6.765
13291TIP3    H139750   3.643   1.548   6.776
13291TIP3    H239751   3.715   1.421   6.813
13292TIP3   OH239752   2.212   2.843   6.768
13292TIP3    H139753   2.127   2.811   6.732
13292TIP3    H239754   2.201   2.938   6.755
13293TIP3   OH239755   2.611   1.436   6.751
13293TIP3    H139756   2.660   1.373   6.695
13293TIP3    H239757   2.684   1.490   6.788
13294TIP3   OH239758   3.126   1.608   6.849
13294TIP3    H139759   3.185   1.562   6.910
13294TIP3    H239760   3.146   1.701   6.875
13295TIP3   OH239761   2.984   3.037   6.348
13295TIP3    H139762   3.072   3.059   6.312
13295TIP3    H239763   2.962   2.961   6.289
13296TIP3   OH239764   3.704   3.152   6.441
13296TIP3    H139765   3.695   3.055   6.428
13296TIP3    H239766   3.659   3.185   6.361
13297TIP3   OH239767   2.917   1.686   8.230
13297TIP3    H139768   2.885   1.616   8.289
13297TIP3    H239769   3.012   1.688   8.256
13298TIP3   OH239770   3.165   1.684   8.349
13298TIP3    H139771   3.251   1.657   8.311
13298TIP3    H239772   3.153   1.613   8.416
13299TIP3   OH239773   2.289   2.874   6.408
13299TIP3    H139774   2.290   2.898   6.502
13299TIP3    H239775   2.378   2.832   6.397
13300TIP3   OH239776   3.989   1.744   8.137
13300TIP3    H139777   4.010   1.713   8.228
13300TIP3    H239778   4.078   1.740   8.095
13301TIP3   OH239779   3.931   3.298   7.630
13301TIP3    H139780   3.852   3.264   7.583
13301TIP3    H239781   3.910   3.393   7.632
13302TIP3   OH239782   5.197   2.668   6.395
13302TIP3    H139783   5.171   2.761   6.379
13302TIP3    H239784   5.117   2.622   6.368
13303TIP3   OH239785   5.190   2.668   6.775
13303TIP3    H139786   5.225   2.643   6.863
13303TIP3    H239787   5.152   2.585   6.745
13304TIP3   OH239788   4.496   2.566   7.141
13304TIP3    H139789   4.527   2.499   7.205
13304TIP3    H239790   4.573   2.624   7.136
13305TIP3   OH239791   5.436   2.971   6.457
13305TIP3    H139792   5.426   2.900   6.523
13305TIP3    H239793   5.465   3.045   6.513
13306TIP3   OH239794   4.464   2.973   6.868
13306TIP3    H139795   4.455   2.876   6.871
13306TIP3    H239796   4.561   2.982   6.866
13307TIP3   OH239797   4.173   2.180   6.654
13307TIP3    H139798   4.124   2.263   6.668
13307TIP3    H239799   4.102   2.123   6.620
13308TIP3   OH239800   4.233   2.465   6.821
13308TIP3    H139801   4.281   2.389   6.861
13308TIP3    H239802   4.293   2.492   6.751
13309TIP3   OH239803   5.085   3.433   6.472
13309TIP3    H139804   5.134   3.361   6.427
13309TIP3    H239805   5.080   3.401   6.563
13310TIP3   OH239806   4.995   2.894   6.823
13310TIP3    H139807   5.033   2.816   6.779
13310TIP3    H239808   5.078   2.939   6.848
13311TIP3   OH239809   5.405   2.401   6.858
13311TIP3    H139810   5.447   2.316   6.881
13311TIP3    H239811   5.376   2.381   6.767
13312TIP3   OH239812   4.741   2.056   6.824
13312TIP3    H139813   4.721   2.129   6.762
13312TIP3    H239814   4.693   1.982   6.780
13313TIP3   OH239815   5.437   2.144   6.447
13313TIP3    H139816   5.508   2.128   6.514
13313TIP3    H239817   5.490   2.182   6.375
13314TIP3   OH239818   4.377   2.259   6.930
13314TIP3    H139819   4.460   2.238   6.978
13314TIP3    H239820   4.389   2.202   6.851
13315TIP3   OH239821   4.820   2.456   6.719
13315TIP3    H139822   4.913   2.430   6.735
13315TIP3    H239823   4.780   2.372   6.690
13316TIP3   OH239824   4.740   2.039   7.257
13316TIP3    H139825   4.680   2.076   7.190
13316TIP3    H239826   4.689   2.057   7.339
13317TIP3   OH239827   5.093   2.893   6.264
13317TIP3    H139828   5.043   2.866   6.186
13317TIP3    H239829   5.048   2.977   6.287
13318TIP3   OH239830   4.846   2.814   7.055
13318TIP3    H139831   4.782   2.878   7.093
13318TIP3    H239832   4.889   2.868   6.986
13319TIP3   OH239833   5.649   2.147   6.618
13319TIP3    H139834   5.638   2.104   6.705
13319TIP3    H239835   5.705   2.223   6.642
13320TIP3   OH239836   4.610   2.155   7.042
13320TIP3    H139837   4.672   2.227   7.065
13320TIP3    H239838   4.659   2.113   6.968
13321TIP3   OH239839   4.672   3.006   7.149
13321TIP3    H139840   4.648   3.093   7.111
13321TIP3    H239841   4.594   2.992   7.207
13322TIP3   OH239842   4.073   2.697   6.387
13322TIP3    H139843   4.028   2.725   6.305
13322TIP3    H239844   4.101   2.783   6.425
13323TIP3   OH239845   5.509   3.213   6.626
13323TIP3    H139846   5.420   3.203   6.666
13323TIP3    H239847   5.500   3.300   6.583
13324TIP3   OH239848   5.799   2.105   6.973
13324TIP3    H139849   5.718   2.156   6.981
13324TIP3    H239850   5.866   2.174   6.957
13325TIP3   OH239851   5.099   1.760   6.969
13325TIP3    H139852   5.087   1.665   6.988
13325TIP3    H239853   5.021   1.797   7.017
13326TIP3   OH239854   5.214   3.261   6.302
13326TIP3    H139855   5.265   3.179   6.281
13326TIP3    H239856   5.273   3.327   6.259
13327TIP3   OH239857   5.357   3.045   6.204
13327TIP3    H139858   5.309   2.968   6.172
13327TIP3    H239859   5.391   3.012   6.290
13328TIP3   OH239860   5.737   3.129   6.970
13328TIP3    H139861   5.726   3.049   6.913
13328TIP3    H239862   5.720   3.201   6.906
13329TIP3   OH239863   5.025   2.518   6.224
13329TIP3    H139864   4.944   2.570   6.203
13329TIP3    H239865   5.073   2.520   6.140
13330TIP3   OH239866   4.985   2.306   5.943
13330TIP3    H139867   5.052   2.353   5.995
13330TIP3    H239868   5.041   2.240   5.898
13331TIP3   OH239869   5.948   2.779   6.813
13331TIP3    H139870   5.855   2.804   6.829
13331TIP3    H239871   5.956   2.790   6.716
13332TIP3   OH239872   5.374   2.602   6.199
13332TIP3    H139873   5.319   2.628   6.277
13332TIP3    H239874   5.457   2.576   6.244
13333TIP3   OH239875   5.607   2.639   7.125
13333TIP3    H139876   5.605   2.729   7.162
13333TIP3    H239877   5.532   2.644   7.063
13334TIP3   OH239878   4.608   2.602   6.614
13334TIP3    H139879   4.566   2.543   6.547
13334TIP3    H239880   4.684   2.549   6.643
13335TIP3   OH239881   4.738   3.014   6.763
13335TIP3    H139882   4.717   2.964   6.683
13335TIP3    H239883   4.828   2.982   6.783
13336TIP3   OH239884   4.744   2.572   6.968
13336TIP3    H139885   4.778   2.554   6.878
13336TIP3    H239886   4.787   2.658   6.991
13337TIP3   OH239887   5.267   3.209   6.745
13337TIP3    H139888   5.255   3.289   6.800
13337TIP3    H239889   5.255   3.136   6.809
13338TIP3   OH239890   4.880   3.129   7.293
13338TIP3    H139891   4.822   3.192   7.340
13338TIP3    H239892   4.813   3.076   7.245
13339TIP3   OH239893   5.218   2.460   6.025
13339TIP3    H139894   5.275   2.519   6.079
13339TIP3    H239895   5.244   2.487   5.934
13340TIP3   OH239896   4.633   2.688   7.391
13340TIP3    H139897   4.638   2.773   7.438
13340TIP3    H239898   4.538   2.668   7.400
13341TIP3   OH239899   4.957   3.142   6.297
13341TIP3    H139900   5.033   3.196   6.323
13341TIP3    H239901   4.894   3.208   6.264
13342TIP3   OH239902   4.675   3.298   7.379
13342TIP3    H139903   4.640   3.295   7.288
13342TIP3    H239904   4.595   3.277   7.433
13343TIP3   OH239905   5.729   1.704   6.070
13343TIP3    H139906   5.649   1.720   6.125
13343TIP3    H239907   5.740   1.791   6.026
13344TIP3   OH239908   4.474   2.443   6.417
13344TIP3    H139909   4.407   2.488   6.362
13344TIP3    H239910   4.431   2.359   6.436
13345TIP3   OH239911   5.528   3.070   5.618
13345TIP3    H139912   5.536   3.167   5.607
13345TIP3    H239913   5.621   3.042   5.607
13346TIP3   OH239914   4.254   2.828   7.326
13346TIP3    H139915   4.189   2.804   7.258
13346TIP3    H239916   4.290   2.740   7.353
13347TIP3   OH239917   4.108   3.022   6.958
13347TIP3    H139918   4.204   3.014   6.951
13347TIP3    H239919   4.098   3.100   7.015
13348TIP3   OH239920   5.973   3.470   7.011
13348TIP3    H139921   5.973   3.374   7.026
13348TIP3    H239922   5.890   3.495   7.058
13349TIP3   OH239923   5.078   3.261   7.149
13349TIP3    H139924   5.081   3.353   7.184
13349TIP3    H239925   5.008   3.222   7.205
13350TIP3   OH239926   4.837   3.389   6.101
13350TIP3    H139927   4.791   3.370   6.017
13350TIP3    H239928   4.805   3.478   6.123
13351TIP3   OH239929   4.277   3.237   6.484
13351TIP3    H139930   4.325   3.228   6.569
13351TIP3    H239931   4.215   3.162   6.490
13352TIP3   OH239932   5.041   3.288   5.743
13352TIP3    H139933   5.100   3.218   5.707
13352TIP3    H239934   5.074   3.297   5.835
13353TIP3   OH239935   5.090   3.335   6.013
13353TIP3    H139936   5.001   3.345   6.056
13353TIP3    H239937   5.140   3.294   6.085
13354TIP3   OH239938   5.858   2.603   7.279
13354TIP3    H139939   5.780   2.620   7.222
13354TIP3    H239940   5.875   2.510   7.258
13355TIP3   OH239941   4.459   3.011   7.318
13355TIP3    H139942   4.510   2.994   7.400
13355TIP3    H239943   4.385   2.947   7.325
13356TIP3   OH239944   4.858   1.835   7.097
13356TIP3    H139945   4.768   1.804   7.074
13356TIP3    H239946   4.835   1.918   7.143
13357TIP3   OH239947   5.392   1.950   7.293
13357TIP3    H139948   5.460   1.923   7.359
13357TIP3    H239949   5.308   1.930   7.339
13358TIP3   OH239950   5.624   2.368   7.200
13358TIP3    H139951   5.592   2.373   7.292
13358TIP3    H239952   5.622   2.461   7.171
13359TIP3   OH239953   5.290   2.507   5.766
13359TIP3    H139954   5.259   2.482   5.677
13359TIP3    H239955   5.368   2.562   5.745
13360TIP3   OH239956   5.007   1.885   6.070
13360TIP3    H139957   4.975   1.884   6.162
13360TIP3    H239958   4.967   1.801   6.039
13361TIP3   OH239959   4.789   2.349   7.117
13361TIP3    H139960   4.740   2.371   7.199
13361TIP3    H239961   4.773   2.431   7.064
13362TIP3   OH239962   4.673   2.236   6.632
13362TIP3    H139963   4.581   2.209   6.649
13362TIP3    H239964   4.687   2.194   6.544
13363TIP3   OH239965   5.164   2.322   6.358
13363TIP3    H139966   5.109   2.393   6.318
13363TIP3    H239967   5.218   2.295   6.282
13364TIP3   OH239968   5.337   2.604   7.449
13364TIP3    H139969   5.317   2.529   7.509
13364TIP3    H239970   5.433   2.614   7.464
13365TIP3   OH239971   5.322   2.351   6.599
13365TIP3    H139972   5.264   2.381   6.527
13365TIP3    H239973   5.354   2.267   6.559
13366TIP3   OH239974   4.608   2.380   7.327
13366TIP3    H139975   4.636   2.442   7.395
13366TIP3    H239976   4.597   2.297   7.379
13367TIP3   OH239977   4.659   1.856   6.036
13367TIP3    H139978   4.654   1.852   6.134
13367TIP3    H239979   4.579   1.906   6.015
13368TIP3   OH239980   4.202   1.904   6.905
13368TIP3    H139981   4.278   1.933   6.960
13368TIP3    H239982   4.244   1.867   6.826
13369TIP3   OH239983   4.179   1.883   6.425
13369TIP3    H139984   4.225   1.923   6.349
13369TIP3    H239985   4.118   1.955   6.448
13370TIP3   OH239986   5.319   2.599   7.018
13370TIP3    H139987   5.359   2.527   6.964
13370TIP3    H239988   5.302   2.550   7.101
13371TIP3   OH239989   4.997   2.060   6.693
13371TIP3    H139990   4.916   2.057   6.748
13371TIP3    H239991   5.067   2.059   6.761
13372TIP3   OH239992   4.436   2.113   6.702
13372TIP3    H139993   4.341   2.120   6.676
13372TIP3    H239994   4.459   2.021   6.679
13373TIP3   OH239995   4.707   2.110   6.390
13373TIP3    H139996   4.802   2.126   6.370
13373TIP3    H239997   4.661   2.135   6.306
13374TIP3   OH239998   5.481   2.137   6.889
13374TIP3    H139999   5.453   2.147   6.983
13374TIP3    H240000   5.418   2.071   6.858
13375TIP3   OH240001   4.543   2.143   6.169
13375TIP3    H140002   4.469   2.101   6.123
13375TIP3    H240003   4.594   2.178   6.093
13376TIP3   OH240004   5.664   3.820   7.113
13376TIP3    H140005   5.660   3.847   7.019
13376TIP3    H240006   5.738   3.874   7.146
13377TIP3   OH240007   4.620   2.933   7.536
13377TIP3    H140008   4.700   2.963   7.584
13377TIP3    H240009   4.555   2.932   7.610
13378TIP3   OH240010   5.085   2.385   6.789
13378TIP3    H140011   5.159   2.346   6.741
13378TIP3    H240012   5.097   2.347   6.878
13379TIP3   OH240013   4.608   1.874   6.667
13379TIP3    H140014   4.576   1.794   6.713
13379TIP3    H240015   4.665   1.837   6.598
13380TIP3   OH240016   5.061   2.280   7.083
13380TIP3    H140017   4.973   2.319   7.097
13380TIP3    H240018   5.121   2.339   7.133
13381TIP3   OH240019   4.798   2.674   6.175
13381TIP3    H140020   4.726   2.609   6.165
13381TIP3    H240021   4.781   2.708   6.266
13382TIP3   OH240022   5.698   2.910   6.808
13382TIP3    H140023   5.726   2.956   6.726
13382TIP3    H240024   5.614   2.868   6.782
13383TIP3   OH240025   5.253   1.994   6.020
13383TIP3    H140026   5.160   1.973   6.042
13383TIP3    H240027   5.267   2.083   6.059
13384TIP3   OH240028   5.197   2.992   7.172
13384TIP3    H140029   5.218   2.968   7.263
13384TIP3    H240030   5.159   3.081   7.181
13385TIP3   OH240031   5.328   2.230   6.136
13385TIP3    H140032   5.423   2.237   6.158
13385TIP3    H240033   5.310   2.313   6.088
13386TIP3   OH240034   4.489   2.694   6.853
13386TIP3    H140035   4.529   2.666   6.768
13386TIP3    H240036   4.528   2.631   6.915
13387TIP3   OH240037   4.942   2.823   5.993
13387TIP3    H140038   4.896   2.909   6.002
13387TIP3    H240039   4.888   2.768   6.054
13388TIP3   OH240040   4.368   2.617   7.465
13388TIP3    H140041   4.391   2.603   7.559
13388TIP3    H240042   4.300   2.549   7.450
13389TIP3   OH240043   5.094   2.729   7.485
13389TIP3    H140044   5.037   2.671   7.432
13389TIP3    H240045   5.183   2.697   7.459
13390TIP3   OH240046   5.358   3.253   7.064
13390TIP3    H140047   5.262   3.251   7.079
13390TIP3    H240048   5.387   3.302   7.144
13391TIP3   OH240049   5.770   2.320   5.976
13391TIP3    H140050   5.707   2.275   5.916
13391TIP3    H240051   5.766   2.410   5.937
13392TIP3   OH240052   5.987   3.183   7.057
13392TIP3    H140053   5.889   3.175   7.051
13392TIP3    H240054   6.012   3.150   6.967
13393TIP3   OH240055   5.467   3.143   5.884
13393TIP3    H140056   5.444   3.074   5.949
13393TIP3    H240057   5.479   3.093   5.802
13394TIP3   OH240058   5.463   2.773   6.723
13394TIP3    H140059   5.371   2.745   6.738
13394TIP3    H240060   5.500   2.693   6.681
13395TIP3   OH240061   4.589   2.996   6.473
13395TIP3    H140062   4.591   3.080   6.423
13395TIP3    H240063   4.494   2.985   6.487
13396TIP3   OH240064   4.151   2.304   6.177
13396TIP3    H140065   4.199   2.387   6.199
13396TIP3    H240066   4.075   2.310   6.239
13397TIP3   OH240067   4.733   2.766   6.421
13397TIP3    H140068   4.696   2.855   6.439
13397TIP3    H240069   4.697   2.715   6.496
13398TIP3   OH240070   4.859   3.342   6.947
13398TIP3    H140071   4.900   3.416   6.898
13398TIP3    H240072   4.935   3.310   6.998
13399TIP3   OH240073   4.511   3.238   6.329
13399TIP3    H140074   4.425   3.245   6.375
13399TIP3    H240075   4.541   3.331   6.333
13400TIP3   OH240076   5.251   2.978   6.903
13400TIP3    H140077   5.241   2.976   7.001
13400TIP3    H240078   5.331   2.925   6.891
13401TIP3   OH240079   5.220   2.866   5.786
13401TIP3    H140080   5.274   2.843   5.865
13401TIP3    H240081   5.132   2.844   5.819
13402TIP3   OH240082   5.499   3.510   6.956
13402TIP3    H140083   5.421   3.453   6.951
13402TIP3    H240084   5.481   3.575   6.884
13403TIP3   OH240085   5.562   3.346   5.607
13403TIP3    H140086   5.601   3.419   5.555
13403TIP3    H240087   5.482   3.392   5.640
13404TIP3   OH240088   4.584   2.122   7.475
13404TIP3    H140089   4.488   2.127   7.489
13404TIP3    H240090   4.611   2.061   7.545
13405TIP3   OH240091   5.381   2.800   6.001
13405TIP3    H140092   5.371   2.737   6.075
13405TIP3    H240093   5.479   2.802   5.992
13406TIP3   OH240094   4.298   3.207   7.106
13406TIP3    H140095   4.349   3.130   7.135
13406TIP3    H240096   4.328   3.274   7.170
13407TIP3   OH240097   4.589   2.850   5.785
13407TIP3    H140098   4.605   2.758   5.757
13407TIP3    H240099   4.572   2.839   5.881
13408TIP3   OH240100   4.537   2.855   6.057
13408TIP3    H140101   4.603   2.827   6.121
13408TIP3    H240102   4.540   2.953   6.065
13409TIP3   OH240103   4.271   2.549   6.261
13409TIP3    H140104   4.206   2.593   6.319
13409TIP3    H240105   4.286   2.620   6.195
13410TIP3   OH240106   5.416   2.186   7.150
13410TIP3    H140107   5.497   2.231   7.182
13410TIP3    H240108   5.410   2.108   7.209
13411TIP3   OH240109   5.300   1.940   6.314
13411TIP3    H140110   5.286   1.970   6.223
13411TIP3    H240111   5.339   2.019   6.356
13412TIP3   OH240112   4.799   3.053   6.006
13412TIP3    H140113   4.714   3.081   6.043
13412TIP3    H240114   4.817   3.128   5.946
13413TIP3   OH240115   4.989   2.116   6.420
13413TIP3    H140116   5.055   2.187   6.404
13413TIP3    H240117   4.993   2.108   6.518
13414TIP3   OH240118   5.257   2.436   7.231
13414TIP3    H140119   5.277   2.490   7.310
13414TIP3    H240120   5.318   2.361   7.242
13415TIP3   OH240121   5.134   1.847   6.524
13415TIP3    H140122   5.133   1.919   6.589
13415TIP3    H240123   5.195   1.884   6.456
13416TIP3   OH240124   4.541   3.128   6.074
13416TIP3    H140125   4.512   3.198   6.011
13416TIP3    H240126   4.525   3.172   6.160
13417TIP3   OH240127   4.645   1.841   6.312
13417TIP3    H140128   4.642   1.931   6.350
13417TIP3    H240129   4.741   1.822   6.322
13418TIP3   OH240130   5.552   2.531   6.597
13418TIP3    H140131   5.477   2.471   6.614
13418TIP3    H240132   5.625   2.487   6.647
13419TIP3   OH240133   4.260   2.762   6.068
13419TIP3    H140134   4.323   2.836   6.078
13419TIP3    H240135   4.309   2.710   6.001
13420TIP3   OH240136   4.209   2.035   6.197
13420TIP3    H140137   4.205   2.133   6.194
13420TIP3    H240138   4.120   2.011   6.167
13421TIP3   OH240139   5.516   3.485   6.548
13421TIP3    H140140   5.475   3.532   6.473
13421TIP3    H240141   5.611   3.504   6.528
13422TIP3   OH240142   4.594   1.755   7.076
13422TIP3    H140143   4.562   1.721   6.990
13422TIP3    H240144   4.583   1.676   7.134
13423TIP3   OH240145   4.135   2.974   6.458
13423TIP3    H140146   4.060   3.005   6.510
13423TIP3    H240147   4.114   3.013   6.371
13424TIP3   OH240148   4.287   3.511   7.528
13424TIP3    H140149   4.374   3.511   7.574
13424TIP3    H240150   4.267   3.416   7.525
13425TIP3   OH240151   4.770   3.481   7.575
13425TIP3    H140152   4.866   3.470   7.580
13425TIP3    H240153   4.749   3.425   7.498
13426TIP3   OH240154   4.752   3.056   5.699
13426TIP3    H140155   4.695   2.985   5.739
13426TIP3    H240156   4.827   3.002   5.670
13427TIP3   OH240157   5.414   3.381   7.300
13427TIP3    H140158   5.402   3.314   7.371
13427TIP3    H240159   5.487   3.436   7.334
13428TIP3   OH240160   5.189   3.097   5.610
13428TIP3    H140161   5.235   3.034   5.668
13428TIP3    H240162   5.247   3.099   5.531
13429TIP3   OH240163   4.420   2.920   7.728
13429TIP3    H140164   4.437   2.824   7.731
13429TIP3    H240165   4.332   2.922   7.684
13430TIP3   OH240166   4.396   2.573   5.917
13430TIP3    H140167   4.448   2.538   5.992
13430TIP3    H240168   4.466   2.577   5.848
13431TIP3   OH240169   5.028   3.003   7.500
13431TIP3    H140170   4.987   3.018   7.413
13431TIP3    H240171   5.059   2.911   7.494
13432TIP3   OH240172   4.903   2.769   5.725
13432TIP3    H140173   4.906   2.783   5.821
13432TIP3    H240174   4.901   2.671   5.722
13433TIP3   OH240175   5.520   3.010   7.105
13433TIP3    H140176   5.594   3.057   7.061
13433TIP3    H240177   5.449   3.075   7.093
13434TIP3   OH240178   4.538   2.653   7.707
13434TIP3    H140179   4.612   2.594   7.689
13434TIP3    H240180   4.562   2.686   7.797
13435TIP3   OH240181   4.606   2.474   6.143
13435TIP3    H140182   4.578   2.435   6.228
13435TIP3    H240183   4.640   2.397   6.094
13436TIP3   OH240184   4.872   2.538   7.369
13436TIP3    H140185   4.797   2.600   7.374
13436TIP3    H240186   4.921   2.571   7.291
13437TIP3   OH240187   4.704   2.266   5.983
13437TIP3    H140188   4.677   2.268   5.889
13437TIP3    H240189   4.801   2.275   5.976
13438TIP3   OH240190   5.391   2.941   7.505
13438TIP3    H140191   5.470   2.920   7.454
13438TIP3    H240192   5.390   2.872   7.573
13439TIP3   OH240193   5.530   2.601   5.642
13439TIP3    H140194   5.505   2.554   5.560
13439TIP3    H240195   5.498   2.691   5.619
13440TIP3   OH240196   4.995   2.326   7.499
13440TIP3    H140197   4.997   2.246   7.443
13440TIP3    H240198   4.953   2.391   7.439
13441TIP3   OH240199   4.999   2.112   7.304
13441TIP3    H140200   5.027   2.154   7.220
13441TIP3    H240201   4.905   2.090   7.285
13442TIP3   OH240202   5.029   2.649   7.176
13442TIP3    H140203   5.112   2.653   7.126
13442TIP3    H240204   4.975   2.718   7.132
13443TIP3   OH240205   5.613   2.619   7.562
13443TIP3    H140206   5.657   2.533   7.563
13443TIP3    H240207   5.680   2.675   7.520
13444TIP3   OH240208   5.650   2.875   7.300
13444TIP3    H140209   5.593   2.925   7.237
13444TIP3    H240210   5.737   2.890   7.258
13445TIP3   OH240211   4.872   2.443   7.726
13445TIP3    H140212   4.804   2.374   7.739
13445TIP3    H240213   4.909   2.416   7.639
13446TIP3   OH240214   5.132   1.878   7.369
13446TIP3    H140215   5.084   1.961   7.347
13446TIP3    H240216   5.061   1.811   7.358
13447TIP3   OH240217   5.257   2.384   7.587
13447TIP3    H140218   5.247   2.373   7.683
13447TIP3    H240219   5.167   2.358   7.558
13448TIP3   OH240220   5.500   2.337   7.444
13448TIP3    H140221   5.423   2.334   7.504
13448TIP3    H240222   5.572   2.301   7.500
13449TIP3   OH240223   5.731   2.272   7.596
13449TIP3    H140224   5.740   2.176   7.614
13449TIP3    H240225   5.724   2.311   7.685
13450TIP3   OH240226   4.714   2.222   7.778
13450TIP3    H140227   4.722   2.132   7.742
13450TIP3    H240228   4.750   2.208   7.868
13451TIP3   OH240229   5.227   1.887   7.626
13451TIP3    H140230   5.295   1.817   7.621
13451TIP3    H240231   5.187   1.880   7.537
13452TIP3   OH240232   5.291   2.101   7.787
13452TIP3    H140233   5.269   2.031   7.722
13452TIP3    H240234   5.214   2.162   7.780
13453TIP3   OH240235   4.511   3.330   5.886
13453TIP3    H140236   4.607   3.329   5.867
13453TIP3    H240237   4.480   3.379   5.807
13454TIP3   OH240238   3.992   2.713   6.102
13454TIP3    H140239   4.087   2.735   6.091
13454TIP3    H240240   3.988   2.624   6.062
13455TIP3   OH240241   3.906   3.325   6.516
13455TIP3    H140242   3.838   3.263   6.482
13455TIP3    H240243   3.950   3.269   6.583
13456TIP3   OH240244   4.043   3.180   6.703
13456TIP3    H140245   4.031   3.104   6.762
13456TIP3    H240246   4.093   3.240   6.761
13457TIP3   OH240247   5.768   3.581   6.501
13457TIP3    H140248   5.795   3.608   6.590
13457TIP3    H240249   5.833   3.625   6.445
13458TIP3   OH240250   5.802   3.597   6.782
13458TIP3    H140251   5.756   3.511   6.780
13458TIP3    H240252   5.873   3.575   6.844
13459TIP3   OH240253   5.847   3.274   7.356
13459TIP3    H140254   5.772   3.280   7.419
13459TIP3    H240255   5.886   3.363   7.363
13460TIP3   OH240256   5.663   2.787   5.978
13460TIP3    H140257   5.733   2.850   5.953
13460TIP3    H240258   5.703   2.747   6.059
13461TIP3   OH240259   5.788   2.655   6.182
13461TIP3    H140260   5.724   2.612   6.243
13461TIP3    H240261   5.854   2.693   6.244
13462TIP3   OH240262   5.840   3.045   6.613
13462TIP3    H140263   5.898   2.982   6.567
13462TIP3    H240264   5.830   3.117   6.548
13463TIP3   OH240265   5.677   3.348   6.808
13463TIP3    H140266   5.607   3.387   6.863
13463TIP3    H240267   5.625   3.297   6.742
13464TIP3   OH240268   5.727   2.561   5.829
13464TIP3    H140269   5.655   2.568   5.762
13464TIP3    H240270   5.703   2.637   5.886
13465TIP3   OH240271   5.600   2.231   5.784
13465TIP3    H140272   5.557   2.278   5.711
13465TIP3    H240273   5.572   2.139   5.768
13466TIP3   OH240274   5.603   2.509   6.329
13466TIP3    H140275   5.615   2.413   6.329
13466TIP3    H240276   5.591   2.528   6.425
13467TIP3   OH240277   4.231   2.584   7.074
13467TIP3    H140278   4.230   2.555   6.981
13467TIP3    H240279   4.328   2.586   7.091
13468TIP3   OH240280   5.892   2.936   7.187
13468TIP3    H140281   5.962   2.867   7.179
13468TIP3    H240282   5.919   3.001   7.121
13469TIP3   OH240283   6.079   2.746   7.212
13469TIP3    H140284   6.003   2.690   7.238
13469TIP3    H240285   6.152   2.681   7.227
13470TIP3   OH240286   5.544   1.959   5.756
13470TIP3    H140287   5.620   1.943   5.816
13470TIP3    H240288   5.471   1.913   5.801
13471TIP3   OH240289   5.597   2.224   6.224
13471TIP3    H140290   5.639   2.136   6.240
13471TIP3    H240291   5.659   2.259   6.158
13472TIP3   OH240292   5.764   2.403   6.722
13472TIP3    H140293   5.847   2.434   6.679
13472TIP3    H240294   5.786   2.421   6.814
13473TIP3   OH240295   4.447   2.272   7.750
13473TIP3    H140296   4.545   2.265   7.751
13473TIP3    H240297   4.422   2.188   7.792
13474TIP3   OH240298   6.289   2.137   7.510
13474TIP3    H140299   6.340   2.069   7.462
13474TIP3    H240300   6.252   2.189   7.434
13475TIP3   OH240301   5.709   1.975   6.260
13475TIP3    H140302   5.758   1.962   6.344
13475TIP3    H240303   5.649   1.898   6.262
13476TIP3   OH240304   4.409   1.962   7.079
13476TIP3    H140305   4.471   1.888   7.092
13476TIP3    H240306   4.470   2.038   7.076
13477TIP3   OH240307   4.213   2.237   7.155
13477TIP3    H140308   4.262   2.230   7.071
13477TIP3    H240309   4.242   2.324   7.186
13478TIP3   OH240310   6.157   2.280   7.323
13478TIP3    H140311   6.075   2.322   7.353
13478TIP3    H240312   6.129   2.249   7.234
13479TIP3   OH240313   5.788   1.918   5.885
13479TIP3    H140314   5.835   1.841   5.848
13479TIP3    H240315   5.859   1.985   5.888
13480TIP3   OH240316   4.194   1.741   6.655
13480TIP3    H140317   4.101   1.739   6.681
13480TIP3    H240318   4.193   1.799   6.576
13481TIP3   OH240319   5.353   3.443   6.160
13481TIP3    H140320   5.406   3.427   6.079
13481TIP3    H240321   5.408   3.508   6.207
13482TIP3   OH240322   4.415   1.821   7.470
13482TIP3    H140323   4.365   1.815   7.553
13482TIP3    H240324   4.347   1.859   7.411
13483TIP3   OH240325   4.454   3.247   7.547
13483TIP3    H140326   4.363   3.217   7.530
13483TIP3    H240327   4.464   3.228   7.641
13484TIP3   OH240328   4.631   3.276   7.093
13484TIP3    H140329   4.584   3.353   7.055
13484TIP3    H240330   4.718   3.291   7.050
13485TIP3   OH240331   5.083   3.527   7.237
13485TIP3    H140332   5.123   3.534   7.327
13485TIP3    H240333   5.149   3.578   7.185
13486TIP3   OH240334   5.258   3.676   7.085
13486TIP3    H140335   5.332   3.622   7.053
13486TIP3    H240336   5.304   3.733   7.150
13487TIP3   OH240337   6.048   2.029   7.203
13487TIP3    H140338   5.971   2.052   7.149
13487TIP3    H240339   6.071   1.939   7.172
13488TIP3   OH240340   4.310   3.538   7.115
13488TIP3    H140341   4.221   3.573   7.093
13488TIP3    H240342   4.318   3.567   7.207
13489TIP3   OH240343   4.547   3.515   6.974
13489TIP3    H140344   4.461   3.528   7.020
13489TIP3    H240345   4.526   3.549   6.885
13490TIP3   OH240346   4.973   3.547   6.771
13490TIP3    H140347   4.902   3.569   6.708
13490TIP3    H240348   4.986   3.632   6.817
13491TIP3   OH240349   5.241   3.484   6.819
13491TIP3    H140350   5.146   3.500   6.803
13491TIP3    H240351   5.280   3.566   6.786
13492TIP3   OH240352   5.453   3.680   6.741
13492TIP3    H140353   5.436   3.763   6.692
13492TIP3    H240354   5.474   3.617   6.669
13493TIP3   OH240355   4.222   3.332   6.863
13493TIP3    H140356   4.248   3.306   6.954
13493TIP3    H240357   4.293   3.287   6.813
13494TIP3   OH240358   4.414   3.202   6.717
13494TIP3    H140359   4.430   3.118   6.766
13494TIP3    H240360   4.505   3.239   6.714
13495TIP3   OH240361   4.680   3.298   6.720
13495TIP3    H140362   4.712   3.206   6.709
13495TIP3    H240363   4.722   3.320   6.805
13496TIP3   OH240364   5.252   1.951   6.802
13496TIP3    H140365   5.212   1.884   6.860
13496TIP3    H240366   5.329   1.904   6.764
13497TIP3   OH240367   5.782   1.823   6.708
13497TIP3    H140368   5.819   1.884   6.641
13497TIP3    H240369   5.690   1.854   6.714
13498TIP3   OH240370   5.876   1.937   6.476
13498TIP3    H140371   5.951   1.886   6.438
13498TIP3    H240372   5.909   2.029   6.464
13499TIP3   OH240373   4.506   1.663   6.826
13499TIP3    H140374   4.414   1.629   6.827
13499TIP3    H240375   4.556   1.578   6.824
13500TIP3   OH240376   4.288   1.531   6.472
13500TIP3    H140377   4.320   1.590   6.402
13500TIP3    H240378   4.260   1.595   6.541
13501TIP3   OH240379   4.946   1.697   6.705
13501TIP3    H140380   5.007   1.748   6.650
13501TIP3    H240381   4.967   1.731   6.794
13502TIP3   OH240382   5.494   1.841   6.692
13502TIP3    H140383   5.496   1.804   6.603
13502TIP3    H240384   5.482   1.759   6.746
13503TIP3   OH240385   5.525   1.761   6.251
13503TIP3    H140386   5.439   1.804   6.265
13503TIP3    H240387   5.512   1.677   6.300
13504TIP3   OH240388   4.010   3.099   6.254
13504TIP3    H140389   3.925   3.067   6.220
13504TIP3    H240390   3.997   3.195   6.241
13505TIP3   OH240391   4.407   1.694   6.236
13505TIP3    H140392   4.457   1.630   6.182
13505TIP3    H240393   4.480   1.747   6.274
13506TIP3   OH240394   4.923   1.866   6.335
13506TIP3    H140395   4.981   1.819   6.397
13506TIP3    H240396   4.943   1.958   6.362
13507TIP3   OH240397   4.781   3.293   5.835
13507TIP3    H140398   4.869   3.315   5.800
13507TIP3    H240399   4.758   3.218   5.776
13508TIP3   OH240400   5.501   3.409   5.927
13508TIP3    H140401   5.491   3.311   5.915
13508TIP3    H240402   5.454   3.442   5.848
13509TIP3   OH240403   4.713   1.943   7.717
13509TIP3    H140404   4.680   1.873   7.775
13509TIP3    H240405   4.808   1.945   7.743
13510TIP3   OH240406   4.961   1.941   7.836
13510TIP3    H140407   5.047   1.915   7.797
13510TIP3    H240408   4.949   1.871   7.904
13511TIP3   OH240409   4.085   3.129   5.894
13511TIP3    H140410   4.081   3.157   5.987
13511TIP3    H240411   4.175   3.090   5.888
13512TIP3   OH240412   5.785   2.000   7.624
13512TIP3    H140413   5.806   1.969   7.715
13512TIP3    H240414   5.873   1.996   7.581
13513TIP3   OH240415   5.730   3.554   7.114
13513TIP3    H140416   5.649   3.520   7.071
13513TIP3    H240417   5.707   3.649   7.120
13514TIP3   OH240418   6.993   2.925   5.883
13514TIP3    H140419   6.968   3.018   5.865
13514TIP3    H240420   6.911   2.879   5.856
13515TIP3   OH240421   6.990   2.924   6.261
13515TIP3    H140422   7.021   2.896   6.349
13515TIP3    H240423   6.947   2.843   6.229
13516TIP3   OH240424   6.292   2.821   6.623
13516TIP3    H140425   6.319   2.754   6.689
13516TIP3    H240426   6.366   2.883   6.629
13517TIP3   OH240427   7.232   3.226   5.945
13517TIP3    H140428   7.222   3.158   6.012
13517TIP3    H240429   7.262   3.302   5.997
13518TIP3   OH240430   6.260   3.231   6.354
13518TIP3    H140431   6.251   3.133   6.358
13518TIP3    H240432   6.357   3.238   6.353
13519TIP3   OH240433   5.971   2.438   6.138
13519TIP3    H140434   5.922   2.521   6.155
13519TIP3    H240435   5.899   2.380   6.110
13520TIP3   OH240436   6.029   2.720   6.305
13520TIP3    H140437   6.076   2.645   6.349
13520TIP3    H240438   6.092   2.745   6.237
13521TIP3   OH240439   6.880   3.688   5.959
13521TIP3    H140440   6.930   3.618   5.913
13521TIP3    H240441   6.879   3.655   6.050
13522TIP3   OH240442   6.791   3.151   6.310
13522TIP3    H140443   6.828   3.074   6.264
13522TIP3    H240444   6.875   3.195   6.334
13523TIP3   OH240445   7.801   2.472   6.308
13523TIP3    H140446   7.829   2.554   6.354
13523TIP3    H240447   7.824   2.494   6.216
13524TIP3   OH240448   7.204   2.655   6.346
13524TIP3    H140449   7.245   2.569   6.366
13524TIP3    H240450   7.172   2.639   6.255
13525TIP3   OH240451   6.539   2.313   6.310
13525TIP3    H140452   6.516   2.386   6.248
13525TIP3    H240453   6.489   2.239   6.268
13526TIP3   OH240454   7.232   2.400   5.933
13526TIP3    H140455   7.303   2.385   5.999
13526TIP3    H240456   7.285   2.439   5.861
13527TIP3   OH240457   6.179   2.518   6.414
13527TIP3    H140458   6.259   2.495   6.465
13527TIP3    H240459   6.188   2.458   6.338
13528TIP3   OH240460   6.616   2.714   6.203
13528TIP3    H140461   6.708   2.686   6.222
13528TIP3    H240462   6.575   2.629   6.176
13529TIP3   OH240463   7.874   2.677   6.480
13529TIP3    H140464   7.792   2.727   6.461
13529TIP3    H240465   7.892   2.706   6.571
13530TIP3   OH240466   6.535   2.297   6.747
13530TIP3    H140467   6.475   2.334   6.680
13530TIP3    H240468   6.483   2.314   6.828
13531TIP3   OH240469   6.888   3.148   5.752
13531TIP3    H140470   6.840   3.125   5.671
13531TIP3    H240471   6.845   3.233   5.775
13532TIP3   OH240472   6.643   3.070   6.542
13532TIP3    H140473   6.578   3.133   6.581
13532TIP3    H240474   6.684   3.125   6.472
13533TIP3   OH240475   7.445   2.404   6.102
13533TIP3    H140476   7.436   2.355   6.184
13533TIP3    H240477   7.500   2.480   6.129
13534TIP3   OH240478   6.408   2.413   6.530
13534TIP3    H140479   6.472   2.485   6.552
13534TIP3    H240480   6.456   2.370   6.456
13535TIP3   OH240481   6.469   3.262   6.637
13535TIP3    H140482   6.443   3.348   6.599
13535TIP3    H240483   6.391   3.246   6.695
13536TIP3   OH240484   5.869   2.954   5.873
13536TIP3    H140485   5.825   2.982   5.791
13536TIP3    H240486   5.898   3.039   5.912
13537TIP3   OH240487   7.305   3.468   6.112
13537TIP3    H140488   7.215   3.461   6.152
13537TIP3    H240489   7.299   3.555   6.068
13538TIP3   OH240490   7.595   2.371   6.475
13538TIP3    H140491   7.508   2.404   6.447
13538TIP3    H240492   7.654   2.404   6.403
13539TIP3   OH240493   6.896   2.017   6.457
13539TIP3    H140494   6.883   1.922   6.475
13539TIP3    H240495   6.818   2.054   6.504
13540TIP3   OH240496   7.010   3.517   5.789
13540TIP3    H140497   7.060   3.436   5.767
13540TIP3    H240498   7.069   3.584   5.746
13541TIP3   OH240499   7.151   3.302   5.691
13541TIP3    H140500   7.106   3.223   5.657
13541TIP3    H240501   7.187   3.268   5.777
13542TIP3   OH240502   7.531   3.385   6.457
13542TIP3    H140503   7.522   3.307   6.398
13542TIP3    H240504   7.516   3.459   6.396
13543TIP3   OH240505   6.820   2.773   5.709
13543TIP3    H140506   6.740   2.827   5.692
13543TIP3    H240507   6.868   2.781   5.625
13544TIP3   OH240508   6.784   2.566   5.422
13544TIP3    H140509   6.851   2.612   5.477
13544TIP3    H240510   6.819   2.476   5.417
13545TIP3   OH240511   7.726   3.017   6.299
13545TIP3    H140512   7.645   3.072   6.306
13545TIP3    H240513   7.757   3.042   6.209
13546TIP3   OH240514   7.169   2.857   5.687
13546TIP3    H140515   7.115   2.884   5.765
13546TIP3    H240516   7.253   2.833   5.731
13547TIP3   OH240517   7.406   2.900   6.595
13547TIP3    H140518   7.404   2.984   6.644
13547TIP3    H240519   7.319   2.905   6.550
13548TIP3   OH240520   6.404   2.858   6.099
13548TIP3    H140521   6.362   2.800   6.033
13548TIP3    H240522   6.481   2.805   6.129
13549TIP3   OH240523   6.534   3.273   6.249
13549TIP3    H140524   6.512   3.221   6.170
13549TIP3    H240525   6.624   3.239   6.269
13550TIP3   OH240526   6.546   2.827   6.455
13550TIP3    H140527   6.576   2.812   6.363
13550TIP3    H240528   6.584   2.915   6.477
13551TIP3   OH240529   7.062   3.467   6.232
13551TIP3    H140530   7.051   3.546   6.287
13551TIP3    H240531   7.050   3.393   6.296
13552TIP3   OH240532   6.675   3.387   6.779
13552TIP3    H140533   6.616   3.449   6.827
13552TIP3    H240534   6.609   3.332   6.732
13553TIP3   OH240535   7.017   2.713   5.511
13553TIP3    H140536   7.072   2.774   5.566
13553TIP3    H240537   7.041   2.743   5.420
13554TIP3   OH240538   6.427   2.945   6.875
13554TIP3    H140539   6.433   3.029   6.924
13554TIP3    H240540   6.333   2.922   6.891
13555TIP3   OH240541   6.753   3.399   5.785
13555TIP3    H140542   6.830   3.453   5.808
13555TIP3    H240543   6.691   3.464   5.750
13556TIP3   OH240544   6.470   3.557   6.867
13556TIP3    H140545   6.435   3.551   6.776
13556TIP3    H240546   6.392   3.534   6.921
13557TIP3   OH240547   7.526   1.962   5.557
13557TIP3    H140548   7.446   1.976   5.611
13557TIP3    H240549   7.534   2.047   5.511
13558TIP3   OH240550   6.271   2.700   5.903
13558TIP3    H140551   6.203   2.744   5.848
13558TIP3    H240552   6.227   2.617   5.925
13559TIP3   OH240553   7.325   3.327   5.106
13559TIP3    H140554   7.332   3.424   5.093
13559TIP3    H240555   7.418   3.299   5.094
13560TIP3   OH240556   6.052   3.082   6.813
13560TIP3    H140557   5.984   3.057   6.747
13560TIP3    H240558   6.086   2.994   6.841
13561TIP3   OH240559   5.904   3.281   6.441
13561TIP3    H140560   6.000   3.268   6.439
13561TIP3    H240561   5.894   3.355   6.502
13562TIP3   OH240562   7.769   3.726   6.502
13562TIP3    H140563   7.767   3.630   6.515
13562TIP3    H240564   7.686   3.752   6.547
13563TIP3   OH240565   6.874   3.516   6.636
13563TIP3    H140566   6.875   3.608   6.669
13563TIP3    H240567   6.804   3.476   6.691
13564TIP3   OH240568   6.631   3.644   5.589
13564TIP3    H140569   6.588   3.626   5.503
13564TIP3    H240570   6.602   3.735   5.609
13565TIP3   OH240571   6.072   3.495   5.971
13565TIP3    H140572   6.121   3.484   6.056
13565TIP3    H240573   6.013   3.418   5.976
13566TIP3   OH240574   6.836   3.544   5.230
13566TIP3    H140575   6.896   3.475   5.193
13566TIP3    H240576   6.871   3.553   5.321
13567TIP3   OH240577   6.885   3.592   5.500
13567TIP3    H140578   6.797   3.601   5.544
13567TIP3    H240579   6.938   3.553   5.572
13568TIP3   OH240580   7.659   2.860   6.777
13568TIP3    H140581   7.579   2.874   6.724
13568TIP3    H240582   7.673   2.764   6.765
13569TIP3   OH240583   6.254   3.268   6.805
13569TIP3    H140584   6.305   3.249   6.887
13569TIP3    H240585   6.182   3.202   6.811
13570TIP3   OH240586   6.656   2.094   6.584
13570TIP3    H140587   6.567   2.060   6.561
13570TIP3    H240588   6.630   2.175   6.631
13571TIP3   OH240589   7.187   2.207   6.780
13571TIP3    H140590   7.254   2.180   6.846
13571TIP3    H240591   7.102   2.187   6.825
13572TIP3   OH240592   7.430   2.636   6.699
13572TIP3    H140593   7.381   2.632   6.784
13572TIP3    H240594   7.404   2.723   6.664
13573TIP3   OH240595   7.084   2.762   5.253
13573TIP3    H140596   7.058   2.737   5.162
13573TIP3    H240597   7.163   2.816   5.235
13574TIP3   OH240598   6.807   2.140   5.560
13574TIP3    H140599   6.771   2.138   5.651
13574TIP3    H240600   6.765   2.059   5.525
13575TIP3   OH240601   6.589   2.606   6.606
13575TIP3    H140602   6.535   2.625   6.686
13575TIP3    H240603   6.571   2.687   6.553
13576TIP3   OH240604   6.470   2.493   6.118
13576TIP3    H140605   6.377   2.466   6.137
13576TIP3    H240606   6.483   2.450   6.030
13577TIP3   OH240607   6.960   2.579   5.845
13577TIP3    H140608   6.905   2.651   5.806
13577TIP3    H240609   7.016   2.554   5.770
13578TIP3   OH240610   7.135   2.859   6.934
13578TIP3    H140611   7.112   2.786   6.996
13578TIP3    H240612   7.229   2.872   6.955
13579TIP3   OH240613   7.120   2.608   6.087
13579TIP3    H140614   7.060   2.640   6.016
13579TIP3    H240615   7.150   2.525   6.045
13580TIP3   OH240616   6.406   2.634   6.813
13580TIP3    H140617   6.421   2.698   6.885
13580TIP3    H240618   6.385   2.553   6.863
13581TIP3   OH240619   6.458   2.116   5.523
13581TIP3    H140620   6.450   2.109   5.620
13581TIP3    H240621   6.376   2.163   5.501
13582TIP3   OH240622   5.997   2.161   6.384
13582TIP3    H140623   6.067   2.191   6.446
13582TIP3    H240624   6.047   2.121   6.313
13583TIP3   OH240625   5.974   2.139   5.911
13583TIP3    H140626   6.022   2.180   5.836
13583TIP3    H240627   5.914   2.213   5.936
13584TIP3   OH240628   7.128   2.856   6.509
13584TIP3    H140629   7.161   2.783   6.452
13584TIP3    H240630   7.100   2.805   6.587
13585TIP3   OH240631   6.794   2.316   6.180
13585TIP3    H140632   6.711   2.313   6.231
13585TIP3    H240633   6.861   2.316   6.251
13586TIP3   OH240634   6.234   2.371   6.185
13586TIP3    H140635   6.138   2.377   6.162
13586TIP3    H240636   6.254   2.277   6.168
13587TIP3   OH240637   6.504   2.366   5.876
13587TIP3    H140638   6.598   2.383   5.856
13587TIP3    H240639   6.456   2.391   5.794
13588TIP3   OH240640   7.288   2.390   6.380
13588TIP3    H140641   7.255   2.402   6.472
13588TIP3    H240642   7.222   2.328   6.345
13589TIP3   OH240643   6.339   2.400   5.656
13589TIP3    H140644   6.265   2.357   5.610
13589TIP3    H240645   6.390   2.434   5.580
13590TIP3   OH240646   7.457   4.080   6.600
13590TIP3    H140647   7.457   4.102   6.505
13590TIP3    H240648   7.537   4.127   6.630
13591TIP3   OH240649   6.416   3.191   7.022
13591TIP3    H140650   6.495   3.220   7.072
13591TIP3    H240651   6.351   3.186   7.095
13592TIP3   OH240652   6.881   2.642   6.278
13592TIP3    H140653   6.954   2.600   6.230
13592TIP3    H240654   6.890   2.603   6.367
13593TIP3   OH240655   6.405   2.130   6.154
13593TIP3    H140656   6.371   2.051   6.202
13593TIP3    H240657   6.461   2.091   6.086
13594TIP3   OH240658   6.858   2.539   6.566
13594TIP3    H140659   6.768   2.574   6.582
13594TIP3    H240660   6.914   2.598   6.619
13595TIP3   OH240661   6.595   2.930   5.663
13595TIP3    H140662   6.522   2.865   5.652
13595TIP3    H240663   6.577   2.965   5.754
13596TIP3   OH240664   7.496   3.167   6.293
13596TIP3    H140665   7.521   3.215   6.212
13596TIP3    H240666   7.410   3.127   6.269
13597TIP3   OH240667   7.031   2.274   5.482
13597TIP3    H140668   6.952   2.233   5.526
13597TIP3    H240669   7.060   2.344   5.545
13598TIP3   OH240670   6.995   3.249   6.659
13598TIP3    H140671   7.012   3.223   6.751
13598TIP3    H240672   6.955   3.337   6.668
13599TIP3   OH240673   7.125   2.485   5.626
13599TIP3    H140674   7.221   2.492   5.647
13599TIP3    H240675   7.109   2.569   5.579
13600TIP3   OH240676   6.288   2.954   6.340
13600TIP3    H140677   6.327   2.921   6.256
13600TIP3    H240678   6.318   2.888   6.404
13601TIP3   OH240679   6.738   3.079   5.481
13601TIP3    H140680   6.693   3.166   5.489
13601TIP3    H240681   6.684   3.025   5.542
13602TIP3   OH240682   6.169   2.871   6.953
13602TIP3    H140683   6.179   2.850   7.048
13602TIP3    H240684   6.096   2.811   6.926
13603TIP3   OH240685   6.890   2.986   6.972
13603TIP3    H140686   6.830   2.926   6.924
13603TIP3    H240687   6.977   2.952   6.943
13604TIP3   OH240688   7.155   3.508   6.554
13604TIP3    H140689   7.058   3.506   6.567
13604TIP3    H240690   7.182   3.560   6.633
13605TIP3   OH240691   7.560   2.577   5.463
13605TIP3    H140692   7.489   2.537   5.408
13605TIP3    H240693   7.561   2.665   5.421
13606TIP3   OH240694   7.782   3.435   6.547
13606TIP3    H140695   7.684   3.431   6.538
13606TIP3    H240696   7.808   3.406   6.456
13607TIP3   OH240697   7.258   3.399   5.369
13607TIP3    H140698   7.242   3.329   5.434
13607TIP3    H240699   7.277   3.351   5.287
13608TIP3   OH240700   7.260   3.029   6.212
13608TIP3    H140701   7.167   3.002   6.226
13608TIP3    H240702   7.295   2.949   6.168
13609TIP3   OH240703   6.385   3.253   5.960
13609TIP3    H140704   6.387   3.336   5.909
13609TIP3    H240705   6.291   3.241   5.973
13610TIP3   OH240706   5.948   2.561   5.664
13610TIP3    H140707   5.996   2.644   5.685
13610TIP3    H240708   5.872   2.567   5.726
13611TIP3   OH240709   6.529   3.023   5.908
13611TIP3    H140710   6.492   3.112   5.926
13611TIP3    H240711   6.492   2.972   5.983
13612TIP3   OH240712   6.655   3.601   6.433
13612TIP3    H140713   6.697   3.672   6.382
13612TIP3    H240714   6.731   3.566   6.483
13613TIP3   OH240715   6.307   3.495   5.816
13613TIP3    H140716   6.221   3.501   5.862
13613TIP3    H240717   6.337   3.588   5.819
13614TIP3   OH240718   7.047   3.234   6.390
13614TIP3    H140719   7.038   3.233   6.488
13614TIP3    H240720   7.128   3.182   6.378
13615TIP3   OH240721   7.016   3.120   5.273
13615TIP3    H140722   7.070   3.098   5.353
13615TIP3    H240723   6.927   3.101   5.306
13616TIP3   OH240724   7.293   3.770   6.443
13616TIP3    H140725   7.215   3.712   6.434
13616TIP3    H240726   7.279   3.834   6.370
13617TIP3   OH240727   7.358   3.602   5.094
13617TIP3    H140728   7.399   3.675   5.044
13617TIP3    H240729   7.278   3.649   5.126
13618TIP3   OH240730   6.371   2.378   6.963
13618TIP3    H140731   6.273   2.377   6.976
13618TIP3    H240732   6.398   2.318   7.034
13619TIP3   OH240733   7.177   3.055   5.489
13619TIP3    H140734   7.169   2.993   5.563
13619TIP3    H240735   7.274   3.058   5.478
13620TIP3   OH240736   6.096   3.465   6.592
13620TIP3    H140737   6.144   3.385   6.621
13620TIP3    H240738   6.122   3.527   6.661
13621TIP3   OH240739   6.386   3.107   5.272
13621TIP3    H140740   6.400   3.015   5.243
13621TIP3    H240741   6.368   3.095   5.368
13622TIP3   OH240742   6.332   3.111   5.545
13622TIP3    H140743   6.400   3.085   5.609
13622TIP3    H240744   6.336   3.209   5.551
13623TIP3   OH240745   6.067   2.806   5.747
13623TIP3    H140746   6.002   2.850   5.806
13623TIP3    H240747   6.082   2.877   5.682
13624TIP3   OH240748   7.215   2.441   6.638
13624TIP3    H140749   7.293   2.480   6.681
13624TIP3    H240750   7.199   2.362   6.693
13625TIP3   OH240751   7.097   2.198   5.801
13625TIP3    H140752   7.081   2.233   5.713
13625TIP3    H240753   7.137   2.275   5.846
13626TIP3   OH240754   6.596   3.309   5.493
13626TIP3    H140755   6.510   3.338   5.530
13626TIP3    H240756   6.614   3.382   5.432
13627TIP3   OH240757   6.787   2.372   5.907
13627TIP3    H140758   6.851   2.445   5.892
13627TIP3    H240759   6.789   2.365   6.005
13628TIP3   OH240760   7.055   2.694   6.716
13628TIP3    H140761   7.070   2.749   6.795
13628TIP3    H240762   7.110   2.616   6.734
13629TIP3   OH240763   6.931   2.104   6.012
13629TIP3    H140764   6.924   2.179   6.074
13629TIP3    H240765   6.991   2.142   5.944
13630TIP3   OH240766   6.337   3.385   5.560
13630TIP3    H140767   6.308   3.455   5.498
13630TIP3    H240768   6.322   3.429   5.647
13631TIP3   OH240769   6.441   2.097   5.798
13631TIP3    H140770   6.438   2.186   5.837
13631TIP3    H240771   6.536   2.078   5.809
13632TIP3   OH240772   7.696   2.592   6.697
13632TIP3    H140773   7.598   2.590   6.704
13632TIP3    H240774   7.708   2.556   6.608
13633TIP3   OH240775   7.346   2.787   6.084
13633TIP3    H140776   7.270   2.728   6.099
13633TIP3    H240777   7.418   2.741   6.132
13634TIP3   OH240778   6.056   3.019   5.555
13634TIP3    H140779   6.119   3.092   5.565
13634TIP3    H240780   6.104   2.966   5.488
13635TIP3   OH240781   6.006   2.293   5.683
13635TIP3    H140782   6.003   2.390   5.681
13635TIP3    H240783   5.916   2.270   5.658
13636TIP3   OH240784   7.313   3.740   6.035
13636TIP3    H140785   7.272   3.788   5.959
13636TIP3    H240786   7.408   3.760   6.016
13637TIP3   OH240787   6.396   2.008   6.562
13637TIP3    H140788   6.359   1.978   6.477
13637TIP3    H240789   6.381   1.931   6.620
13638TIP3   OH240790   5.932   3.232   5.945
13638TIP3    H140791   5.857   3.262   5.998
13638TIP3    H240792   5.910   3.270   5.857
13639TIP3   OH240793   6.083   3.768   7.011
13639TIP3    H140794   6.169   3.765   7.059
13639TIP3    H240795   6.060   3.673   7.011
13640TIP3   OH240796   6.571   3.740   7.055
13640TIP3    H140797   6.664   3.715   7.065
13640TIP3    H240798   6.544   3.681   6.982
13641TIP3   OH240799   6.548   3.313   5.187
13641TIP3    H140800   6.493   3.241   5.226
13641TIP3    H240801   6.624   3.260   5.155
13642TIP3   OH240802   7.206   3.642   6.790
13642TIP3    H140803   7.197   3.572   6.859
13642TIP3    H240804   7.284   3.692   6.821
13643TIP3   OH240805   6.985   3.353   5.096
13643TIP3    H140806   7.036   3.295   5.154
13643TIP3    H240807   7.041   3.357   5.016
13644TIP3   OH240808   6.216   3.177   7.214
13644TIP3    H140809   6.234   3.081   7.216
13644TIP3    H240810   6.128   3.179   7.171
13645TIP3   OH240811   6.192   2.830   5.405
13645TIP3    H140812   6.246   2.795   5.478
13645TIP3    H240813   6.261   2.834   5.334
13646TIP3   OH240814   6.825   3.261   6.986
13646TIP3    H140815   6.781   3.274   6.900
13646TIP3    H240816   6.855   3.167   6.981
13647TIP3   OH240817   6.699   3.026   5.212
13647TIP3    H140818   6.702   3.040   5.309
13647TIP3    H240819   6.695   2.928   5.208
13648TIP3   OH240820   7.317   3.266   6.592
13648TIP3    H140821   7.390   3.314   6.548
13648TIP3    H240822   7.245   3.331   6.581
13649TIP3   OH240823   6.336   2.916   7.195
13649TIP3    H140824   6.397   2.843   7.180
13649TIP3    H240825   6.360   2.944   7.285
13650TIP3   OH240826   6.403   2.730   5.631
13650TIP3    H140827   6.374   2.692   5.715
13650TIP3    H240828   6.435   2.652   5.582
13651TIP3   OH240829   6.673   2.800   6.861
13651TIP3    H140830   6.592   2.855   6.863
13651TIP3    H240831   6.716   2.830   6.778
13652TIP3   OH240832   6.500   2.522   5.469
13652TIP3    H140833   6.470   2.524   5.376
13652TIP3    H240834   6.595   2.539   5.458
13653TIP3   OH240835   7.186   3.198   6.992
13653TIP3    H140836   7.268   3.178   6.944
13653TIP3    H240837   7.185   3.129   7.061
13654TIP3   OH240838   7.327   2.858   5.129
13654TIP3    H140839   7.300   2.812   5.047
13654TIP3    H240840   7.295   2.949   5.107
13655TIP3   OH240841   6.796   2.584   6.984
13655TIP3    H140842   6.791   2.503   6.930
13655TIP3    H240843   6.750   2.649   6.927
13656TIP3   OH240844   6.795   2.368   6.789
13656TIP3    H140845   6.820   2.410   6.704
13656TIP3    H240846   6.701   2.346   6.773
13657TIP3   OH240847   6.827   2.907   6.661
13657TIP3    H140848   6.908   2.914   6.609
13657TIP3    H240849   6.769   2.974   6.620
13658TIP3   OH240850   7.408   2.874   7.047
13658TIP3    H140851   7.456   2.790   7.054
13658TIP3    H240852   7.476   2.933   7.012
13659TIP3   OH240853   7.447   3.125   6.781
13659TIP3    H140854   7.389   3.178   6.722
13659TIP3    H240855   7.535   3.145   6.741
13660TIP3   OH240856   6.673   2.699   7.213
13660TIP3    H140857   6.604   2.630   7.227
13660TIP3    H240858   6.706   2.675   7.125
13661TIP3   OH240859   6.928   2.134   6.855
13661TIP3    H140860   6.879   2.217   6.834
13661TIP3    H240861   6.857   2.067   6.845
13662TIP3   OH240862   7.054   2.640   7.073
13662TIP3    H140863   7.042   2.629   7.169
13662TIP3    H240864   6.965   2.615   7.043
13663TIP3   OH240865   7.294   2.587   6.928
13663TIP3    H140866   7.217   2.589   6.988
13663TIP3    H240867   7.366   2.556   6.986
13664TIP3   OH240868   7.525   2.528   7.081
13664TIP3    H140869   7.535   2.433   7.100
13664TIP3    H240870   7.519   2.568   7.170
13665TIP3   OH240871   6.520   2.476   7.260
13665TIP3    H140872   6.519   2.384   7.225
13665TIP3    H240873   6.547   2.460   7.353
13666TIP3   OH240874   7.024   2.144   7.113
13666TIP3    H140875   7.091   2.073   7.107
13666TIP3    H240876   6.983   2.137   7.024
13667TIP3   OH240877   7.088   2.359   7.273
13667TIP3    H140878   7.065   2.288   7.209
13667TIP3    H240879   7.011   2.418   7.267
13668TIP3   OH240880   6.307   3.587   5.373
13668TIP3    H140881   6.403   3.585   5.355
13668TIP3    H240882   6.277   3.635   5.294
13669TIP3   OH240883   5.788   2.970   5.589
13669TIP3    H140884   5.883   2.992   5.578
13669TIP3    H240885   5.784   2.881   5.549
13670TIP3   OH240886   5.702   3.582   6.003
13670TIP3    H140887   5.634   3.520   5.969
13670TIP3    H240888   5.746   3.526   6.070
13671TIP3   OH240889   5.839   3.437   6.190
13671TIP3    H140890   5.828   3.360   6.250
13671TIP3    H240891   5.888   3.497   6.249
13672TIP3   OH240892   7.563   3.837   5.989
13672TIP3    H140893   7.593   3.871   6.075
13672TIP3    H240894   7.626   3.878   5.928
13673TIP3   OH240895   7.593   3.855   6.273
13673TIP3    H140896   7.555   3.765   6.268
13673TIP3    H240897   7.673   3.837   6.324
13674TIP3   OH240898   7.642   3.530   6.844
13674TIP3    H140899   7.568   3.539   6.908
13674TIP3    H240900   7.683   3.619   6.849
13675TIP3   OH240901   7.458   3.043   5.464
13675TIP3    H140902   7.527   3.107   5.437
13675TIP3    H240903   7.501   3.004   5.544
13676TIP3   OH240904   7.584   2.911   5.667
13676TIP3    H140905   7.521   2.870   5.730
13676TIP3    H240906   7.652   2.949   5.727
13677TIP3   OH240907   7.636   3.300   6.099
13677TIP3    H140908   7.692   3.240   6.048
13677TIP3    H240909   7.630   3.378   6.040
13678TIP3   OH240910   7.472   3.602   6.297
13678TIP3    H140911   7.402   3.645   6.349
13678TIP3    H240912   7.421   3.554   6.228
13679TIP3   OH240913   7.523   2.815   5.316
13679TIP3    H140914   7.451   2.823   5.249
13679TIP3    H240915   7.500   2.892   5.373
13680TIP3   OH240916   7.375   2.504   5.273
13680TIP3    H140917   7.394   2.540   5.185
13680TIP3    H240918   7.366   2.408   5.256
13681TIP3   OH240919   7.399   2.766   5.816
13681TIP3    H140920   7.410   2.669   5.817
13681TIP3    H240921   7.386   2.785   5.912
13682TIP3   OH240922   6.027   2.854   6.550
13682TIP3    H140923   6.027   2.815   6.461
13682TIP3    H240924   6.123   2.847   6.574
13683TIP3   OH240925   7.688   3.191   6.671
13683TIP3    H140926   7.762   3.127   6.664
13683TIP3    H240927   7.717   3.263   6.612
13684TIP3   OH240928   7.874   2.999   6.694
13684TIP3    H140929   7.800   2.948   6.732
13684TIP3    H240930   7.947   2.935   6.706
13685TIP3   OH240931   7.329   2.233   5.242
13685TIP3    H140932   7.412   2.208   5.288
13685TIP3    H240933   7.266   2.168   5.279
13686TIP3   OH240934   7.393   2.480   5.712
13686TIP3    H140935   7.435   2.392   5.727
13686TIP3    H240936   7.456   2.517   5.647
13687TIP3   OH240937   7.559   2.659   6.205
13687TIP3    H140938   7.645   2.686   6.166
13687TIP3    H240939   7.571   2.695   6.295
13688TIP3   OH240940   7.625   2.801   6.439
13688TIP3    H140941   7.547   2.835   6.487
13688TIP3    H240942   7.657   2.881   6.393
13689TIP3   OH240943   6.257   2.550   7.267
13689TIP3    H140944   6.350   2.524   7.250
13689TIP3    H240945   6.213   2.462   7.264
13690TIP3   OH240946   8.080   2.392   6.996
13690TIP3    H140947   8.136   2.325   6.951
13690TIP3    H240948   8.051   2.447   6.921
13691TIP3   OH240949   7.505   2.232   5.748
13691TIP3    H140950   7.554   2.217   5.831
13691TIP3    H240951   7.445   2.154   5.748
13692TIP3   OH240952   6.209   2.213   6.546
13692TIP3    H140953   6.272   2.143   6.572
13692TIP3    H240954   6.261   2.293   6.564
13693TIP3   OH240955   5.993   2.512   6.625
13693TIP3    H140956   6.057   2.500   6.552
13693TIP3    H240957   6.040   2.573   6.683
13694TIP3   OH240958   7.951   2.533   6.804
13694TIP3    H140959   7.863   2.572   6.823
13694TIP3    H240960   7.924   2.462   6.742
13695TIP3   OH240961   7.581   2.178   5.366
13695TIP3    H140962   7.625   2.099   5.329
13695TIP3    H240963   7.654   2.242   5.372
13696TIP3   OH240964   5.990   1.990   6.136
13696TIP3    H140965   5.900   1.996   6.171
13696TIP3    H240966   5.988   2.054   6.062
13697TIP3   OH240967   7.148   3.700   5.647
13697TIP3    H140968   7.200   3.684   5.565
13697TIP3    H240969   7.204   3.766   5.693
13698TIP3   OH240970   6.207   2.066   6.955
13698TIP3    H140971   6.169   2.070   7.044
13698TIP3    H240972   6.165   2.147   6.920
13699TIP3   OH240973   6.251   3.505   7.035
13699TIP3    H140974   6.161   3.474   7.015
13699TIP3    H240975   6.260   3.482   7.129
13700TIP3   OH240976   6.428   3.533   6.582
13700TIP3    H140977   6.379   3.608   6.543
13700TIP3    H240978   6.514   3.548   6.537
13701TIP3   OH240979   6.876   3.782   6.720
13701TIP3    H140980   6.918   3.782   6.808
13701TIP3    H240981   6.943   3.831   6.667
13702TIP3   OH240982   7.055   3.932   6.575
13702TIP3    H140983   7.126   3.880   6.535
13702TIP3    H240984   7.106   3.989   6.636
13703TIP3   OH240985   7.848   2.296   6.678
13703TIP3    H140986   7.756   2.292   6.645
13703TIP3    H240987   7.876   2.202   6.664
13704TIP3   OH240988   6.108   3.799   6.600
13704TIP3    H140989   6.017   3.832   6.581
13704TIP3    H240990   6.113   3.818   6.694
13705TIP3   OH240991   6.344   3.774   6.462
13705TIP3    H140992   6.258   3.785   6.508
13705TIP3    H240993   6.321   3.803   6.371
13706TIP3   OH240994   6.769   3.803   6.258
13706TIP3    H140995   6.700   3.824   6.193
13706TIP3    H240996   6.782   3.889   6.302
13707TIP3   OH240997   7.037   3.741   6.310
13707TIP3    H140998   6.943   3.758   6.289
13707TIP3    H240999   7.080   3.818   6.269
13708TIP3   OH241000   7.242   3.933   6.227
13708TIP3    H141001   7.231   4.018   6.179
13708TIP3    H241002   7.271   3.874   6.154
13709TIP3   OH241003   6.019   3.590   6.351
13709TIP3    H141004   6.045   3.562   6.441
13709TIP3    H241005   6.089   3.543   6.299
13710TIP3   OH241006   6.210   3.458   6.204
13710TIP3    H141007   6.225   3.374   6.253
13710TIP3    H241008   6.301   3.494   6.201
13711TIP3   OH241009   6.477   3.555   6.207
13711TIP3    H141010   6.507   3.463   6.194
13711TIP3    H241011   6.519   3.575   6.292
13712TIP3   OH241012   7.052   2.209   6.293
13712TIP3    H141013   7.008   2.143   6.349
13712TIP3    H241014   7.124   2.159   6.252
13713TIP3   OH241015   7.578   2.088   6.201
13713TIP3    H141016   7.614   2.142   6.127
13713TIP3    H241017   7.483   2.108   6.196
13714TIP3   OH241018   7.672   2.192   5.964
13714TIP3    H141019   7.745   2.140   5.925
13714TIP3    H241020   7.706   2.284   5.951
13715TIP3   OH241021   6.302   1.919   6.311
13715TIP3    H141022   6.211   1.885   6.314
13715TIP3    H241023   6.353   1.835   6.311
13716TIP3   OH241024   6.077   1.788   5.956
13716TIP3    H141025   6.116   1.848   5.889
13716TIP3    H241026   6.055   1.851   6.027
13717TIP3   OH241027   6.743   1.953   6.191
13717TIP3    H141028   6.805   2.005   6.138
13717TIP3    H241029   6.760   1.988   6.280
13718TIP3   OH241030   7.295   2.097   6.177
13718TIP3    H141031   7.290   2.059   6.088
13718TIP3    H241032   7.281   2.017   6.233
13719TIP3   OH241033   7.321   2.018   5.738
13719TIP3    H141034   7.234   2.059   5.753
13719TIP3    H241035   7.309   1.933   5.786
13720TIP3   OH241036   5.806   3.356   5.741
13720TIP3    H141037   5.721   3.323   5.706
13720TIP3    H241038   5.793   3.451   5.728
13721TIP3   OH241039   6.203   1.952   5.721
13721TIP3    H141040   6.252   1.886   5.668
13721TIP3    H241041   6.276   2.004   5.760
13722TIP3   OH241042   6.719   2.122   5.821
13722TIP3    H141043   6.775   2.074   5.884
13722TIP3    H241044   6.739   2.214   5.850
13723TIP3   OH241045   6.577   3.550   5.323
13723TIP3    H141046   6.666   3.572   5.287
13723TIP3    H241047   6.555   3.475   5.264
13724TIP3   OH241048   7.293   3.665   5.415
13724TIP3    H141049   7.284   3.568   5.400
13724TIP3    H241050   7.252   3.700   5.334
13725TIP3   OH241051   6.511   2.200   7.203
13725TIP3    H141052   6.474   2.132   7.262
13725TIP3    H241053   6.605   2.200   7.232
13726TIP3   OH241054   6.759   2.198   7.325
13726TIP3    H141055   6.843   2.170   7.284
13726TIP3    H241056   6.745   2.126   7.391
13727TIP3   OH241057   5.881   3.387   5.381
13727TIP3    H141058   5.879   3.412   5.474
13727TIP3    H241059   5.970   3.346   5.372
13728TIP3   OH241060   7.582   2.257   7.111
13728TIP3    H141061   7.602   2.226   7.202
13728TIP3    H241062   7.670   2.252   7.068
13729TIP3   OH241063   7.523   3.811   6.605
13729TIP3    H141064   7.444   3.779   6.556
13729TIP3    H241065   7.505   3.907   6.605
13730TIP3   OH241066   8.789   3.180   5.370
13730TIP3    H141067   8.764   3.273   5.355
13730TIP3    H241068   8.708   3.135   5.340
13731TIP3   OH241069   8.781   3.181   5.748
13731TIP3    H141070   8.815   3.159   5.837
13731TIP3    H241071   8.744   3.096   5.719
13732TIP3   OH241072   8.087   3.080   6.117
13732TIP3    H141073   8.120   3.013   6.180
13732TIP3    H241074   8.165   3.136   6.107
13733TIP3   OH241075   9.028   3.482   5.432
13733TIP3    H141076   9.020   3.414   5.500
13733TIP3    H241077   9.057   3.559   5.484
13734TIP3   OH241078   8.056   3.485   5.842
13734TIP3    H141079   8.049   3.387   5.846
13734TIP3    H241080   8.153   3.495   5.837
13735TIP3   OH241081   7.765   2.691   5.626
13735TIP3    H141082   7.720   2.776   5.641
13735TIP3    H241083   7.691   2.637   5.593
13736TIP3   OH241084   7.824   2.976   5.792
13736TIP3    H141085   7.874   2.902   5.833
13736TIP3    H241086   7.889   3.012   5.730
13737TIP3   OH241087   8.675   3.944   5.445
13737TIP3    H141088   8.725   3.873   5.401
13737TIP3    H241089   8.675   3.915   5.537
13738TIP3   OH241090   8.588   3.406   5.797
13738TIP3    H141091   8.628   3.329   5.753
13738TIP3    H241092   8.670   3.452   5.823
13739TIP3   OH241093   9.536   2.747   5.809
13739TIP3    H141094   9.590   2.808   5.864
13739TIP3    H241095   9.574   2.764   5.721
13740TIP3   OH241096   8.995   2.912   5.832
13740TIP3    H141097   9.041   2.829   5.855
13740TIP3    H241098   8.968   2.893   5.740
13741TIP3   OH241099   8.332   2.568   5.798
13741TIP3    H141100   8.315   2.642   5.736
13741TIP3    H241101   8.284   2.496   5.752
13742TIP3   OH241102   9.031   2.657   5.421
13742TIP3    H141103   9.103   2.642   5.487
13742TIP3    H241104   9.081   2.697   5.348
13743TIP3   OH241105   7.969   2.772   5.904
13743TIP3    H141106   8.053   2.753   5.951
13743TIP3    H241107   7.983   2.716   5.824
13744TIP3   OH241108   8.412   2.969   5.694
13744TIP3    H141109   8.505   2.944   5.708
13744TIP3    H241110   8.373   2.885   5.663
13745TIP3   OH241111   9.663   2.929   5.969
13745TIP3    H141112   9.585   2.987   5.957
13745TIP3    H241113   9.707   2.968   6.047
13746TIP3   OH241114   8.332   2.551   6.231
13746TIP3    H141115   8.273   2.590   6.163
13746TIP3    H241116   8.281   2.572   6.312
13747TIP3   OH241117   8.683   3.404   5.239
13747TIP3    H141118   8.637   3.383   5.157
13747TIP3    H241119   8.641   3.489   5.263
13748TIP3   OH241120   8.437   3.326   6.028
13748TIP3    H141121   8.375   3.392   6.066
13748TIP3    H241122   8.484   3.379   5.960
13749TIP3   OH241123   9.246   2.658   5.592
13749TIP3    H141124   9.229   2.619   5.679
13749TIP3    H241125   9.296   2.738   5.618
13750TIP3   OH241126   8.202   2.668   6.016
13750TIP3    H141127   8.263   2.741   6.039
13750TIP3    H241128   8.251   2.627   5.942
13751TIP3   OH241129   8.264   3.520   6.123
13751TIP3    H141130   8.241   3.606   6.084
13751TIP3    H241131   8.186   3.507   6.181
13752TIP3   OH241132   7.664   3.211   5.361
13752TIP3    H141133   7.623   3.239   5.277
13752TIP3    H241134   7.693   3.296   5.399
13753TIP3   OH241135   9.100   3.724   5.596
13753TIP3    H141136   9.011   3.716   5.638
13753TIP3    H241137   9.094   3.812   5.555
13754TIP3   OH241138   9.368   2.604   5.961
13754TIP3    H141139   9.289   2.659   5.953
13754TIP3    H241140   9.431   2.653   5.902
13755TIP3   OH241141   8.691   2.273   5.943
13755TIP3    H141142   8.679   2.178   5.961
13755TIP3    H241143   8.614   2.310   5.990
13756TIP3   OH241144   8.805   3.773   5.274
13756TIP3    H141145   8.857   3.692   5.252
13756TIP3    H241146   8.864   3.840   5.233
13757TIP3   OH241147   8.948   3.557   5.178
13757TIP3    H141148   8.906   3.478   5.143
13757TIP3    H241149   8.983   3.524   5.264
13758TIP3   OH241150   9.328   3.644   5.945
13758TIP3    H141151   9.318   3.563   5.890
13758TIP3    H241152   9.314   3.715   5.880
13759TIP3   OH241153   8.616   3.031   5.198
13759TIP3    H141154   8.538   3.085   5.176
13759TIP3    H241155   8.666   3.033   5.114
13760TIP3   OH241156   8.577   2.818   4.918
13760TIP3    H141157   8.644   2.867   4.969
13760TIP3    H241158   8.635   2.754   4.871
13761TIP3   OH241159   9.522   3.275   5.796
13761TIP3    H141160   9.441   3.331   5.800
13761TIP3    H241161   9.551   3.290   5.704
13762TIP3   OH241162   8.965   3.115   5.173
13762TIP3    H141163   8.911   3.141   5.251
13762TIP3    H241164   9.049   3.089   5.217
13763TIP3   OH241165   9.199   3.155   6.069
13763TIP3    H141166   9.225   3.228   6.127
13763TIP3    H241167   9.115   3.187   6.033
13764TIP3   OH241168   8.199   3.115   5.589
13764TIP3    H141169   8.159   3.057   5.521
13764TIP3    H241170   8.277   3.063   5.618
13765TIP3   OH241171   8.328   3.523   5.739
13765TIP3    H141172   8.311   3.478   5.655
13765TIP3    H241173   8.419   3.494   5.759
13766TIP3   OH241174   8.334   3.087   5.941
13766TIP3    H141175   8.370   3.068   5.853
13766TIP3    H241176   8.378   3.171   5.965
13767TIP3   OH241177   8.860   3.722   5.719
13767TIP3    H141178   8.847   3.802   5.773
13767TIP3    H241179   8.847   3.650   5.784
13768TIP3   OH241180   8.472   3.642   6.268
13768TIP3    H141181   8.413   3.706   6.313
13768TIP3    H241182   8.406   3.589   6.219
13769TIP3   OH241183   8.809   2.973   4.999
13769TIP3    H141184   8.867   3.032   5.052
13769TIP3    H241185   8.835   3.000   4.907
13770TIP3   OH241186   8.226   3.199   6.367
13770TIP3    H141187   8.231   3.286   6.412
13770TIP3    H241188   8.130   3.182   6.373
13771TIP3   OH241189   8.548   3.656   5.271
13771TIP3    H141190   8.626   3.709   5.295
13771TIP3    H241191   8.487   3.724   5.238
13772TIP3   OH241192   8.267   3.811   6.352
13772TIP3    H141193   8.232   3.810   6.261
13772TIP3    H241194   8.187   3.790   6.405
13773TIP3   OH241195   9.332   2.231   5.073
13773TIP3    H141196   9.242   2.248   5.110
13773TIP3    H241197   9.336   2.298   5.002
13774TIP3   OH241198   8.067   2.956   5.391
13774TIP3    H141199   8.001   3.002   5.335
13774TIP3    H241200   8.022   2.873   5.408
13775TIP3   OH241201   9.119   3.584   4.590
13775TIP3    H141202   9.126   3.682   4.581
13775TIP3    H241203   9.213   3.558   4.579
13776TIP3   OH241204   7.845   3.341   6.301
13776TIP3    H141205   7.783   3.317   6.230
13776TIP3    H241206   7.883   3.254   6.327
13777TIP3   OH241207   7.701   3.532   5.936
13777TIP3    H141208   7.796   3.527   5.924
13777TIP3    H241209   7.694   3.613   5.989
13778TIP3   OH241210   9.555   3.980   5.976
13778TIP3    H141211   9.560   3.884   5.994
13778TIP3    H241212   9.475   4.003   6.029
13779TIP3   OH241213   8.671   3.773   6.123
13779TIP3    H141214   8.672   3.865   6.155
13779TIP3    H241215   8.601   3.733   6.179
13780TIP3   OH241216   8.428   3.901   5.076
13780TIP3    H141217   8.384   3.885   4.990
13780TIP3    H241218   8.399   3.991   5.099
13781TIP3   OH241219   7.868   3.749   5.458
13781TIP3    H141220   7.919   3.741   5.541
13781TIP3    H241221   7.804   3.677   5.470
13782TIP3   OH241222   8.632   3.800   4.716
13782TIP3    H141223   8.692   3.731   4.681
13782TIP3    H241224   8.666   3.811   4.808
13783TIP3   OH241225   8.681   3.848   4.987
13783TIP3    H141226   8.594   3.858   5.031
13783TIP3    H241227   8.735   3.812   5.059
13784TIP3   OH241228   8.051   3.523   6.291
13784TIP3    H141229   8.102   3.508   6.374
13784TIP3    H241230   7.977   3.460   6.300
13785TIP3   OH241231   8.451   2.347   6.072
13785TIP3    H141232   8.360   2.318   6.048
13785TIP3    H241233   8.429   2.431   6.115
13786TIP3   OH241234   8.984   2.460   6.265
13786TIP3    H141235   9.052   2.440   6.332
13786TIP3    H241236   8.900   2.444   6.313
13787TIP3   OH241237   9.224   2.891   6.177
13787TIP3    H141238   9.192   2.896   6.270
13787TIP3    H241239   9.220   2.985   6.150
13788TIP3   OH241240   8.880   3.022   4.741
13788TIP3    H141241   8.852   2.995   4.651
13788TIP3    H241242   8.960   3.075   4.721
13789TIP3   OH241243   8.596   2.399   5.043
13789TIP3    H141244   8.566   2.397   5.136
13789TIP3    H241245   8.559   2.314   5.012
13790TIP3   OH241246   8.379   2.863   6.090
13790TIP3    H141247   8.333   2.887   6.172
13790TIP3    H241248   8.365   2.944   6.036
13791TIP3   OH241249   8.267   2.748   5.605
13791TIP3    H141250   8.174   2.722   5.622
13791TIP3    H241251   8.280   2.707   5.517
13792TIP3   OH241252   8.755   2.833   5.330
13792TIP3    H141253   8.702   2.906   5.291
13792TIP3    H241254   8.812   2.808   5.254
13793TIP3   OH241255   8.929   3.117   6.420
13793TIP3    H141256   8.917   3.041   6.481
13793TIP3    H241257   9.025   3.124   6.413
13794TIP3   OH241258   8.912   2.862   5.574
13794TIP3    H141259   8.857   2.897   5.501
13794TIP3    H241260   8.944   2.780   5.531
13795TIP3   OH241261   8.199   2.893   6.302
13795TIP3    H141262   8.231   2.957   6.367
13795TIP3    H241263   8.191   2.812   6.354
13796TIP3   OH241264   8.250   2.368   5.010
13796TIP3    H141265   8.246   2.366   5.108
13796TIP3    H241266   8.171   2.421   4.989
13797TIP3   OH241267   7.795   2.416   5.878
13797TIP3    H141268   7.869   2.448   5.935
13797TIP3    H241269   7.841   2.381   5.800
13798TIP3   OH241270   7.769   2.395   5.400
13798TIP3    H141271   7.817   2.433   5.324
13798TIP3    H241272   7.711   2.470   5.422
13799TIP3   OH241273   8.902   3.111   5.991
13799TIP3    H141274   8.949   3.042   5.938
13799TIP3    H241275   8.895   3.063   6.076
13800TIP3   OH241276   8.589   2.569   5.667
13800TIP3    H141277   8.509   2.570   5.723
13800TIP3    H241278   8.659   2.576   5.733
13801TIP3   OH241279   8.028   2.626   5.676
13801TIP3    H141280   7.934   2.632   5.649
13801TIP3    H241281   8.053   2.535   5.652
13802TIP3   OH241282   8.300   2.622   5.363
13802TIP3    H141283   8.394   2.639   5.345
13802TIP3    H241284   8.255   2.649   5.279
13803TIP3   OH241285   9.078   2.648   5.862
13803TIP3    H141286   9.050   2.660   5.956
13803TIP3    H241287   9.011   2.586   5.831
13804TIP3   OH241288   8.135   2.655   5.141
13804TIP3    H141289   8.063   2.613   5.091
13804TIP3    H241290   8.188   2.693   5.068
13805TIP3   OH241291   9.253   4.337   6.087
13805TIP3    H141292   9.252   4.359   5.992
13805TIP3    H241293   9.331   4.385   6.118
13806TIP3   OH241294   8.211   3.444   6.511
13806TIP3    H141295   8.292   3.476   6.556
13806TIP3    H241296   8.148   3.448   6.585
13807TIP3   OH241297   8.676   2.894   5.761
13807TIP3    H141298   8.754   2.862   5.712
13807TIP3    H241299   8.694   2.862   5.851
13808TIP3   OH241300   8.199   2.388   5.639
13808TIP3    H141301   8.170   2.307   5.685
13808TIP3    H241302   8.258   2.354   5.571
13809TIP3   OH241303   8.653   2.790   6.062
13809TIP3    H141304   8.567   2.834   6.071
13809TIP3    H241305   8.715   2.851   6.108
13810TIP3   OH241306   8.390   3.187   5.148
13810TIP3    H141307   8.317   3.123   5.138
13810TIP3    H241308   8.374   3.221   5.239
13811TIP3   OH241309   9.294   3.425   5.779
13811TIP3    H141310   9.318   3.471   5.696
13811TIP3    H241311   9.206   3.387   5.759
13812TIP3   OH241312   8.848   2.502   5.005
13812TIP3    H141313   8.752   2.488   5.017
13812TIP3    H241314   8.862   2.595   5.032
13813TIP3   OH241315   8.776   3.500   6.150
13813TIP3    H141316   8.820   3.485   6.234
13813TIP3    H241317   8.752   3.594   6.154
13814TIP3   OH241318   8.921   2.745   5.111
13814TIP3    H141319   9.017   2.752   5.128
13814TIP3    H241320   8.903   2.826   5.059
13815TIP3   OH241321   8.077   3.202   5.826
13815TIP3    H141322   8.119   3.179   5.741
13815TIP3    H241323   8.126   3.145   5.888
13816TIP3   OH241324   8.534   3.336   4.966
13816TIP3    H141325   8.488   3.423   4.974
13816TIP3    H241326   8.481   3.281   5.028
13817TIP3   OH241327   7.960   3.131   6.440
13817TIP3    H141328   7.985   3.117   6.533
13817TIP3    H241329   7.893   3.061   6.426
13818TIP3   OH241330   8.686   3.240   6.462
13818TIP3    H141331   8.632   3.186   6.402
13818TIP3    H241332   8.776   3.211   6.436
13819TIP3   OH241333   8.949   3.766   6.042
13819TIP3    H141334   8.852   3.767   6.054
13819TIP3    H241335   8.978   3.818   6.120
13820TIP3   OH241336   9.356   2.826   4.961
13820TIP3    H141337   9.297   2.781   4.897
13820TIP3    H241338   9.377   2.904   4.906
13821TIP3   OH241339   9.578   3.698   6.033
13821TIP3    H141340   9.480   3.687   6.027
13821TIP3    H241341   9.603   3.667   5.942
13822TIP3   OH241342   9.054   3.656   4.856
13822TIP3    H141343   9.039   3.587   4.922
13822TIP3    H241344   9.073   3.605   4.775
13823TIP3   OH241345   9.055   3.288   5.695
13823TIP3    H141346   8.963   3.262   5.712
13823TIP3    H241347   9.090   3.207   5.653
13824TIP3   OH241348   8.182   3.509   5.447
13824TIP3    H141349   8.187   3.593   5.397
13824TIP3    H241350   8.087   3.502   5.459
13825TIP3   OH241351   7.742   2.818   5.146
13825TIP3    H141352   7.792   2.900   5.168
13825TIP3    H241353   7.668   2.825   5.210
13826TIP3   OH241354   8.323   3.278   5.394
13826TIP3    H141355   8.289   3.368   5.411
13826TIP3    H241356   8.288   3.230   5.471
13827TIP3   OH241357   8.451   3.855   5.920
13827TIP3    H141358   8.491   3.929   5.870
13827TIP3    H241359   8.529   3.823   5.970
13828TIP3   OH241360   8.104   3.750   5.303
13828TIP3    H141361   8.018   3.760   5.348
13828TIP3    H241362   8.137   3.843   5.306
13829TIP3   OH241363   8.842   3.489   5.879
13829TIP3    H141364   8.833   3.487   5.976
13829TIP3    H241365   8.930   3.449   5.869
13830TIP3   OH241366   8.813   3.377   4.760
13830TIP3    H141367   8.868   3.355   4.839
13830TIP3    H241368   8.725   3.358   4.794
13831TIP3   OH241369   9.089   4.027   5.931
13831TIP3    H141370   9.012   3.968   5.922
13831TIP3    H241371   9.075   4.090   5.857
13832TIP3   OH241372   9.153   3.859   4.581
13832TIP3    H141373   9.191   3.932   4.528
13832TIP3    H241374   9.074   3.905   4.615
13833TIP3   OH241375   8.176   2.635   6.449
13833TIP3    H141376   8.080   2.641   6.463
13833TIP3    H241377   8.204   2.573   6.519
13834TIP3   OH241378   8.972   3.313   4.976
13834TIP3    H141379   8.964   3.249   5.049
13834TIP3    H241380   9.069   3.316   4.965
13835TIP3   OH241381   7.888   3.719   6.082
13835TIP3    H141382   7.944   3.646   6.112
13835TIP3    H241383   7.921   3.792   6.137
13836TIP3   OH241384   8.181   3.363   4.759
13836TIP3    H141385   8.198   3.272   4.731
13836TIP3    H241386   8.164   3.352   4.855
13837TIP3   OH241387   8.128   3.368   5.032
13837TIP3    H141388   8.198   3.343   5.094
13837TIP3    H241389   8.131   3.466   5.038
13838TIP3   OH241390   7.862   3.061   5.234
13838TIP3    H141391   7.798   3.107   5.293
13838TIP3    H241392   7.880   3.132   5.169
13839TIP3   OH241393   9.013   2.698   6.121
13839TIP3    H141394   9.088   2.748   6.160
13839TIP3    H241395   9.004   2.622   6.182
13840TIP3   OH241396   8.890   2.453   5.289
13840TIP3    H141397   8.877   2.480   5.196
13840TIP3    H241398   8.930   2.534   5.328
13841TIP3   OH241399   8.390   3.565   4.978
13841TIP3    H141400   8.306   3.595   5.017
13841TIP3    H241401   8.412   3.642   4.923
13842TIP3   OH241402   8.580   2.629   5.394
13842TIP3    H141403   8.646   2.700   5.375
13842TIP3    H241404   8.586   2.621   5.491
13843TIP3   OH241405   8.847   2.945   6.208
13843TIP3    H141406   8.866   3.003   6.284
13843TIP3    H241407   8.913   2.875   6.220
13844TIP3   OH241408   8.727   2.359   5.497
13844TIP3    H141409   8.724   2.432   5.562
13844TIP3    H241410   8.786   2.398   5.429
13845TIP3   OH241411   8.131   3.640   5.047
13845TIP3    H141412   8.104   3.711   4.984
13845TIP3    H241413   8.118   3.685   5.134
13846TIP3   OH241414   8.237   2.354   5.286
13846TIP3    H141415   8.235   2.445   5.322
13846TIP3    H241416   8.333   2.335   5.296
13847TIP3   OH241417   9.490   2.802   6.170
13847TIP3    H141418   9.402   2.838   6.194
13847TIP3    H241419   9.500   2.838   6.081
13848TIP3   OH241420   9.136   3.047   5.567
13848TIP3    H141421   9.063   2.985   5.587
13848TIP3    H241422   9.211   3.005   5.616
13849TIP3   OH241423   7.852   3.275   5.042
13849TIP3    H141424   7.913   3.350   5.053
13849TIP3    H241425   7.901   3.224   4.975
13850TIP3   OH241426   7.802   2.549   5.177
13850TIP3    H141427   7.802   2.647   5.169
13850TIP3    H241428   7.722   2.526   5.129
13851TIP3   OH241429   9.109   3.996   5.521
13851TIP3    H141430   9.067   4.044   5.446
13851TIP3    H241431   9.203   4.017   5.502
13852TIP3   OH241432   8.185   2.268   6.050
13852TIP3    H141433   8.154   2.235   5.963
13852TIP3    H241434   8.175   2.189   6.107
13853TIP3   OH241435   7.725   3.480   5.433
13853TIP3    H141436   7.651   3.518   5.482
13853TIP3    H241437   7.712   3.523   5.346
13854TIP3   OH241438   7.879   4.024   6.505
13854TIP3    H141439   7.967   4.025   6.549
13854TIP3    H241440   7.862   3.929   6.499
13855TIP3   OH241441   8.362   3.992   6.550
13855TIP3    H141442   8.458   3.981   6.554
13855TIP3    H241443   8.341   3.937   6.471
13856TIP3   OH241444   8.344   3.569   4.672
13856TIP3    H141445   8.288   3.499   4.713
13856TIP3    H241446   8.420   3.516   4.644
13857TIP3   OH241447   9.001   3.899   6.279
13857TIP3    H141448   8.994   3.828   6.346
13857TIP3    H241449   9.081   3.948   6.308
13858TIP3   OH241450   8.780   3.609   4.582
13858TIP3    H141451   8.830   3.551   4.642
13858TIP3    H241452   8.840   3.614   4.505
13859TIP3   OH241453   8.011   3.433   6.702
13859TIP3    H141454   8.029   3.337   6.703
13859TIP3    H241455   7.924   3.436   6.658
13860TIP3   OH241456   7.988   3.084   4.892
13860TIP3    H141457   8.044   3.053   4.966
13860TIP3    H241458   8.056   3.090   4.822
13861TIP3   OH241459   8.618   3.516   6.475
13861TIP3    H141460   8.582   3.534   6.386
13861TIP3    H241461   8.653   3.425   6.467
13862TIP3   OH241462   8.493   3.281   4.698
13862TIP3    H141463   8.499   3.297   4.795
13862TIP3    H241464   8.493   3.183   4.696
13863TIP3   OH241465   9.098   3.511   6.055
13863TIP3    H141466   9.188   3.547   6.044
13863TIP3    H241467   9.046   3.593   6.060
13864TIP3   OH241468   8.129   3.163   6.682
13864TIP3    H141469   8.207   3.111   6.660
13864TIP3    H241470   8.154   3.199   6.770
13865TIP3   OH241471   8.195   2.987   5.115
13865TIP3    H141472   8.173   2.948   5.201
13865TIP3    H241473   8.232   2.911   5.066
13866TIP3   OH241474   8.463   3.048   6.341
13866TIP3    H141475   8.390   3.113   6.346
13866TIP3    H241476   8.514   3.083   6.264
13867TIP3   OH241477   8.297   2.778   4.958
13867TIP3    H141478   8.271   2.782   4.864
13867TIP3    H241479   8.394   2.788   4.951
13868TIP3   OH241480   8.982   3.455   6.477
13868TIP3    H141481   9.070   3.451   6.437
13868TIP3    H241482   8.987   3.386   6.544
13869TIP3   OH241483   9.122   3.114   4.615
13869TIP3    H141484   9.096   3.066   4.534
13869TIP3    H241485   9.090   3.204   4.592
13870TIP3   OH241486   8.587   2.839   6.473
13870TIP3    H141487   8.591   2.759   6.416
13870TIP3    H241488   8.547   2.905   6.413
13871TIP3   OH241489   8.591   2.623   6.278
13871TIP3    H141490   8.620   2.669   6.196
13871TIP3    H241491   8.498   2.603   6.258
13872TIP3   OH241492   8.622   3.160   6.150
13872TIP3    H141493   8.705   3.166   6.101
13872TIP3    H241494   8.570   3.231   6.107
13873TIP3   OH241495   8.466   2.955   6.701
13873TIP3    H141496   8.397   2.887   6.712
13873TIP3    H241497   8.502   2.932   6.613
13874TIP3   OH241498   8.724   2.391   6.345
13874TIP3    H141499   8.677   2.474   6.321
13874TIP3    H241500   8.653   2.325   6.331
13875TIP3   OH241501   8.850   2.897   6.563
13875TIP3    H141502   8.838   2.887   6.659
13875TIP3    H241503   8.761   2.873   6.531
13876TIP3   OH241504   9.084   2.842   6.412
13876TIP3    H141505   9.013   2.842   6.478
13876TIP3    H241506   9.162   2.819   6.467
13877TIP3   OH241507   9.291   2.776   6.574
13877TIP3    H141508   9.325   2.686   6.591
13877TIP3    H241509   9.312   2.823   6.657
13878TIP3   OH241510   8.305   2.735   6.752
13878TIP3    H141511   8.315   2.646   6.714
13878TIP3    H241512   8.340   2.721   6.842
13879TIP3   OH241513   8.818   2.398   6.602
13879TIP3    H141514   8.887   2.329   6.593
13879TIP3    H241515   8.779   2.394   6.512
13880TIP3   OH241516   8.881   2.611   6.765
13880TIP3    H141517   8.860   2.544   6.696
13880TIP3    H241518   8.807   2.675   6.754
13881TIP3   OH241519   8.103   3.840   4.858
13881TIP3    H141520   8.199   3.841   4.842
13881TIP3    H241521   8.073   3.892   4.781
13882TIP3   OH241522   7.584   3.226   5.078
13882TIP3    H141523   7.679   3.249   5.066
13882TIP3    H241524   7.581   3.137   5.036
13883TIP3   OH241525   7.496   3.837   5.490
13883TIP3    H141526   7.429   3.774   5.456
13883TIP3    H241527   7.542   3.782   5.557
13884TIP3   OH241528   7.635   3.691   5.675
13884TIP3    H141529   7.626   3.617   5.737
13884TIP3    H241530   7.687   3.753   5.731
13885TIP3   OH241531   9.359   4.094   5.476
13885TIP3    H141532   9.390   4.123   5.564
13885TIP3    H241533   9.424   4.135   5.417
13886TIP3   OH241534   9.392   4.111   5.759
13886TIP3    H141535   9.349   4.023   5.753
13886TIP3    H241536   9.468   4.086   5.815
13887TIP3   OH241537   9.440   3.789   6.331
13887TIP3    H141538   9.364   3.794   6.393
13887TIP3    H241539   9.479   3.878   6.337
13888TIP3   OH241540   9.249   3.303   4.949
13888TIP3    H141541   9.319   3.368   4.927
13888TIP3    H241542   9.289   3.260   5.028
13889TIP3   OH241543   9.367   3.163   5.148
13889TIP3    H141544   9.303   3.122   5.211
13889TIP3    H241545   9.431   3.206   5.209
13890TIP3   OH241546   9.434   3.552   5.577
13890TIP3    H141547   9.491   3.513   5.510
13890TIP3    H241548   9.414   3.639   5.537
13891TIP3   OH241549   9.267   3.860   5.779
13891TIP3    H141550   9.199   3.899   5.837
13891TIP3    H241551   9.214   3.810   5.714
13892TIP3   OH241552   9.325   3.081   4.796
13892TIP3    H141553   9.248   3.081   4.736
13892TIP3    H241554   9.298   3.153   4.858
13893TIP3   OH241555   9.180   2.748   4.768
13893TIP3    H141556   9.162   2.791   4.684
13893TIP3    H241557   9.158   2.654   4.748
13894TIP3   OH241558   9.194   3.021   5.303
13894TIP3    H141559   9.205   2.925   5.301
13894TIP3    H241560   9.180   3.039   5.399
13895TIP3   OH241561   7.824   3.097   6.048
13895TIP3    H141562   7.823   3.070   5.954
13895TIP3    H241563   7.921   3.100   6.065
13896TIP3   OH241564   9.482   3.455   6.158
13896TIP3    H141565   9.544   3.381   6.148
13896TIP3    H241566   9.518   3.523   6.099
13897TIP3   OH241567   9.663   3.256   6.184
13897TIP3    H141568   9.595   3.231   6.249
13897TIP3    H241569   9.722   3.178   6.188
13898TIP3   OH241570   9.132   2.480   4.743
13898TIP3    H141571   9.208   2.450   4.798
13898TIP3    H241572   9.059   2.424   4.772
13899TIP3   OH241573   9.193   2.740   5.197
13899TIP3    H141574   9.235   2.652   5.212
13899TIP3    H241575   9.249   2.774   5.125
13900TIP3   OH241576   9.346   2.927   5.686
13900TIP3    H141577   9.432   2.961   5.651
13900TIP3    H241578   9.360   2.949   5.780
13901TIP3   OH241579   9.420   3.054   5.929
13901TIP3    H141580   9.344   3.086   5.982
13901TIP3    H241581   9.450   3.137   5.887
13902TIP3   OH241582   8.037   2.784   6.722
13902TIP3    H141583   8.135   2.778   6.723
13902TIP3    H241584   8.015   2.700   6.766
13903TIP3   OH241585   9.301   2.489   5.241
13903TIP3    H141586   9.338   2.476   5.331
13903TIP3    H241587   9.239   2.413   5.235
13904TIP3   OH241588   8.000   2.476   6.054
13904TIP3    H141589   8.064   2.402   6.065
13904TIP3    H241590   8.061   2.551   6.049
13905TIP3   OH241591   7.805   2.751   6.128
13905TIP3    H141592   7.855   2.744   6.044
13905TIP3    H241593   7.834   2.837   6.160
13906TIP3   OH241594   9.741   2.782   6.300
13906TIP3    H141595   9.673   2.822   6.360
13906TIP3    H241596   9.681   2.745   6.232
13907TIP3   OH241597   9.380   2.413   4.859
13907TIP3    H141598   9.426   2.330   4.838
13907TIP3    H241599   9.432   2.475   4.804
13908TIP3   OH241600   7.786   2.250   5.626
13908TIP3    H141601   7.694   2.253   5.656
13908TIP3    H241602   7.786   2.311   5.550
13909TIP3   OH241603   8.945   3.955   5.133
13909TIP3    H141604   8.999   3.941   5.053
13909TIP3    H241605   8.997   4.022   5.181
13910TIP3   OH241606   8.007   2.333   6.444
13910TIP3    H141607   7.956   2.328   6.527
13910TIP3    H241608   7.940   2.372   6.384
13911TIP3   OH241609   8.047   3.757   6.520
13911TIP3    H141610   7.955   3.730   6.504
13911TIP3    H241611   8.056   3.746   6.615
13912TIP3   OH241612   8.223   3.790   6.066
13912TIP3    H141613   8.177   3.867   6.028
13912TIP3    H241614   8.310   3.804   6.024
13913TIP3   OH241615   8.673   4.037   6.205
13913TIP3    H141616   8.714   4.041   6.295
13913TIP3    H241617   8.739   4.088   6.153
13914TIP3   OH241618   8.852   4.187   6.062
13914TIP3    H141619   8.925   4.137   6.023
13914TIP3    H241620   8.901   4.246   6.123
13915TIP3   OH241621   9.639   2.544   6.173
13915TIP3    H141622   9.558   2.581   6.133
13915TIP3    H241623   9.649   2.459   6.127
13916TIP3   OH241624   7.901   4.044   6.094
13916TIP3    H141625   7.815   4.083   6.067
13916TIP3    H241626   7.914   4.088   6.179
13917TIP3   OH241627   8.137   4.025   5.947
13917TIP3    H141628   8.051   4.040   5.992
13917TIP3    H241629   8.118   4.063   5.858
13918TIP3   OH241630   8.564   4.058   5.745
13918TIP3    H141631   8.495   4.081   5.680
13918TIP3    H241632   8.578   4.144   5.790
13919TIP3   OH241633   8.833   3.997   5.794
13919TIP3    H141634   8.738   4.014   5.776
13919TIP3    H241635   8.875   4.076   5.757
13920TIP3   OH241636   9.042   4.191   5.714
13920TIP3    H141637   9.027   4.275   5.667
13920TIP3    H241638   9.067   4.130   5.641
13921TIP3   OH241639   7.811   3.842   5.836
13921TIP3    H141640   7.840   3.821   5.927
13921TIP3    H241641   7.886   3.801   5.786
13922TIP3   OH241642   8.006   3.715   5.690
13922TIP3    H141643   8.024   3.631   5.740
13922TIP3    H241644   8.096   3.754   5.687
13923TIP3   OH241645   8.270   3.809   5.694
13923TIP3    H141646   8.305   3.720   5.684
13923TIP3    H241647   8.312   3.835   5.778
13924TIP3   OH241648   8.845   2.465   5.776
13924TIP3    H141649   8.805   2.397   5.833
13924TIP3    H241650   8.922   2.419   5.738
13925TIP3   OH241651   9.374   2.345   5.705
13925TIP3    H141652   9.407   2.400   5.631
13925TIP3    H241653   9.279   2.366   5.703
13926TIP3   OH241654   9.462   2.443   5.467
13926TIP3    H141655   9.548   2.402   5.448
13926TIP3    H241656   9.486   2.538   5.457
13927TIP3   OH241657   8.098   2.175   5.801
13927TIP3    H141658   8.006   2.141   5.801
13927TIP3    H241659   8.149   2.091   5.798
13928TIP3   OH241660   7.876   2.045   5.444
13928TIP3    H141661   7.913   2.103   5.375
13928TIP3    H241662   7.854   2.109   5.514
13929TIP3   OH241663   8.539   2.209   5.680
13929TIP3    H141664   8.598   2.261   5.622
13929TIP3    H241665   8.561   2.246   5.767
13930TIP3   OH241666   9.086   2.354   5.668
13930TIP3    H141667   9.092   2.320   5.578
13930TIP3    H241668   9.074   2.271   5.719
13931TIP3   OH241669   9.109   2.280   5.229
13931TIP3    H141670   9.023   2.323   5.243
13931TIP3    H241671   9.095   2.194   5.275
13932TIP3   OH241672   7.601   3.613   5.230
13932TIP3    H141673   7.516   3.583   5.193
13932TIP3    H241674   7.591   3.709   5.217
13933TIP3   OH241675   8.000   2.207   5.210
13933TIP3    H141676   8.049   2.143   5.155
13933TIP3    H241677   8.073   2.261   5.248
13934TIP3   OH241678   8.515   2.378   5.310
13934TIP3    H141679   8.576   2.333   5.371
13934TIP3    H241680   8.534   2.471   5.335
13935TIP3   OH241681   8.373   3.806   4.810
13935TIP3    H141682   8.461   3.829   4.774
13935TIP3    H241683   8.351   3.731   4.750
13936TIP3   OH241684   9.092   3.922   4.901
13936TIP3    H141685   9.081   3.825   4.887
13936TIP3    H241686   9.047   3.957   4.821
13937TIP3   OH241687   8.305   2.455   6.690
13937TIP3    H141688   8.273   2.385   6.749
13937TIP3    H241689   8.400   2.458   6.715
13938TIP3   OH241690   8.553   2.455   6.810
13938TIP3    H141691   8.638   2.432   6.768
13938TIP3    H241692   8.543   2.382   6.875
13939TIP3   OH241693   7.676   3.639   4.868
13939TIP3    H141694   7.677   3.673   4.959
13939TIP3    H241695   7.766   3.601   4.858
13940TIP3   OH241696   9.377   2.509   6.598
13940TIP3    H141697   9.403   2.483   6.689
13940TIP3    H241698   9.464   2.515   6.552
13941TIP3   OH241699   9.318   4.068   6.093
13941TIP3    H141700   9.239   4.035   6.045
13941TIP3    H241701   9.298   4.164   6.094
13942TIP3   OH241702   9.540   2.943   5.131
13942TIP3    H141703   9.480   3.020   5.135
13942TIP3    H241704   9.487   2.883   5.076
13943TIP3   OH241705   9.596   3.240   5.272
13943TIP3    H141706   9.654   3.187   5.328
13943TIP3    H241707   9.640   3.230   5.186
13944TIP3   OH241708   9.453   3.471   4.868
13944TIP3    H141709   9.430   3.485   4.775
13944TIP3    H241710   9.484   3.561   4.893
13945TIP3   OH241711   9.630   3.594   5.793
13945TIP3    H141712   9.577   3.564   5.718
13945TIP3    H241713   9.691   3.520   5.810
13946TIP3   OH241714   9.498   3.793   5.419
13946TIP3    H141715   9.594   3.786   5.415
13946TIP3    H241716   9.487   3.871   5.476
13947TIP3   OH241717   9.627   4.011   4.957
13947TIP3    H141718   9.691   4.009   5.031
13947TIP3    H241719   9.577   3.929   4.974
13948TIP3   OH241720   9.564   2.682   5.392
13948TIP3    H141721   9.616   2.734   5.455
13948TIP3    H241722   9.571   2.734   5.310
13949TIP3   OH241723   9.754   3.368   5.921
13949TIP3    H141724   9.756   3.351   6.016
13949TIP3    H241725   9.672   3.322   5.895
13950TIP3   OH241726   9.520   3.140   4.614
13950TIP3    H141727   9.591   3.149   4.680
13950TIP3    H241728   9.444   3.119   4.673
13951TIP3   OH241729   9.680   3.983   5.572
13951TIP3    H141730   9.731   3.903   5.592
13951TIP3    H241731   9.722   4.048   5.630
13952TIP3   OH241732   9.517   3.736   4.919
13952TIP3    H141733   9.442   3.769   4.969
13952TIP3    H241734   9.505   3.783   4.834
13953TIP3   OH241735   9.672   4.283   5.985
13953TIP3    H141736   9.759   4.261   6.024
13953TIP3    H241737   9.638   4.192   5.979
13954TIP3   OH241738   9.807   3.715   6.182
13954TIP3    H141739   9.832   3.623   6.202
13954TIP3    H241740   9.723   3.703   6.132
13955TIP3   OH241741   9.378   3.489   4.554
13955TIP3    H141742   9.475   3.482   4.568
13955TIP3    H241743   9.363   3.405   4.505
13956TIP3   OH241744   9.293   4.095   4.978
13956TIP3    H141745   9.226   4.032   4.944
13956TIP3    H241746   9.339   4.039   5.044
13957TIP3   OH241747   9.428   3.944   5.167
13957TIP3    H141748   9.418   3.873   5.232
13957TIP3    H241749   9.480   4.008   5.220
13958TIP3   OH241750   9.643   3.312   5.540
13958TIP3    H141751   9.613   3.323   5.449
13958TIP3    H241752   9.726   3.365   5.538
13959TIP3   OH241753   9.816   3.032   6.188
13959TIP3    H141754   9.907   3.064   6.201
13959TIP3    H241755   9.812   2.954   6.248
13960TIP3   OH241756   9.585   3.027   5.598
13960TIP3    H141757   9.661   2.974   5.571
13960TIP3    H241758   9.621   3.116   5.609
13961TIP3   OH241759   9.548   2.558   5.099
13961TIP3    H141760   9.453   2.545   5.114
13961TIP3    H241761   9.551   2.586   5.006
13962TIP3   OH241762   9.819   4.051   6.056
13962TIP3    H141763   9.750   4.003   6.006
13962TIP3    H241764   9.838   3.988   6.127
13963TIP3   OH241765   9.692   4.305   5.575
13963TIP3    H141766   9.605   4.344   5.553
13963TIP3    H241767   9.703   4.335   5.666
13964TIP3   OH241768   9.940   4.288   5.444
13964TIP3    H141769   9.850   4.294   5.479
13964TIP3    H241770   9.929   4.321   5.352
13965TIP3   OH241771   9.609   4.099   5.322
13965TIP3    H141772   9.636   4.077   5.414
13965TIP3    H241773   9.688   4.068   5.273
13966TIP3   OH241774   9.812   4.001   5.154
13966TIP3    H141775   9.820   3.917   5.202
13966TIP3    H241776   9.903   4.037   5.168
13967TIP3   OH241777   9.398   3.867   4.713
13967TIP3    H141778   9.311   3.840   4.678
13967TIP3    H241779   9.390   3.963   4.706
13968TIP3   OH241780   9.487   3.895   4.365
13968TIP3    H141781   9.457   3.937   4.447
13968TIP3    H241782   9.558   3.838   4.397
13969TIP3   OH241783   1.239   3.969   7.062
13969TIP3    H141784   1.213   4.061   7.043
13969TIP3    H241785   1.164   3.921   7.023
13970TIP3   OH241786   1.229   3.968   7.441
13970TIP3    H141787   1.268   3.946   7.527
13970TIP3    H241788   1.201   3.881   7.410
13971TIP3   OH241789   0.575   3.870   7.786
13971TIP3    H141790   0.577   3.799   7.853
13971TIP3    H241791   0.610   3.944   7.838
13972TIP3   OH241792   1.481   4.271   7.121
13972TIP3    H141793   1.472   4.203   7.188
13972TIP3    H241794   1.509   4.348   7.173
13973TIP3   OH241795   0.514   4.267   7.517
13973TIP3    H141796   0.491   4.202   7.585
13973TIP3    H241797   0.611   4.275   7.525
13974TIP3   OH241798   0.181   3.479   7.315
13974TIP3    H141799   0.154   3.568   7.342
13974TIP3    H241800   0.166   3.427   7.395
13975TIP3   OH241801   0.309   3.781   7.485
13975TIP3    H141802   0.344   3.699   7.525
13975TIP3    H241803   0.318   3.764   7.391
13976TIP3   OH241804   1.125   4.732   7.131
13976TIP3    H141805   1.178   4.659   7.093
13976TIP3    H241806   1.122   4.711   7.225
13977TIP3   OH241807   1.045   4.186   7.479
13977TIP3    H141808   1.096   4.112   7.443
13977TIP3    H241809   1.120   4.241   7.508
13978TIP3   OH241810   2.048   3.517   7.485
13978TIP3    H141811   2.078   3.599   7.530
13978TIP3    H241812   2.073   3.536   7.393
13979TIP3   OH241813   1.453   3.700   7.523
13979TIP3    H141814   1.496   3.614   7.542
13979TIP3    H241815   1.421   3.684   7.432
13980TIP3   OH241816   0.786   3.362   7.486
13980TIP3    H141817   0.766   3.434   7.422
13980TIP3    H241818   0.739   3.287   7.442
13981TIP3   OH241819   1.481   3.447   7.110
13981TIP3    H141820   1.553   3.431   7.175
13981TIP3    H241821   1.532   3.483   7.036
13982TIP3   OH241822   0.423   3.558   7.585
13982TIP3    H141823   0.496   3.536   7.647
13982TIP3    H241824   0.442   3.495   7.512
13983TIP3   OH241825   2.123   3.722   7.656
13983TIP3    H141826   2.040   3.771   7.638
13983TIP3    H241827   2.140   3.749   7.748
13984TIP3   OH241828   0.785   3.341   7.920
13984TIP3    H141829   0.722   3.375   7.854
13984TIP3    H241830   0.735   3.359   8.003
13985TIP3   OH241831   1.129   4.189   6.932
13985TIP3    H141832   1.094   4.173   6.843
13985TIP3    H241833   1.091   4.277   6.952
13986TIP3   OH241834   0.883   4.105   7.712
13986TIP3    H141835   0.820   4.169   7.753
13986TIP3    H241836   0.930   4.162   7.649
13987TIP3   OH241837   1.693   3.449   7.279
13987TIP3    H141838   1.690   3.397   7.360
13987TIP3    H241839   1.750   3.524   7.305
13988TIP3   OH241840   0.654   3.456   7.707
13988TIP3    H141841   0.717   3.528   7.728
13988TIP3    H241842   0.701   3.413   7.632
13989TIP3   OH241843   0.717   4.304   7.803
13989TIP3    H141844   0.697   4.396   7.774
13989TIP3    H241845   0.643   4.293   7.867
13990TIP3   OH241846   0.168   4.015   7.000
13990TIP3    H141847   0.084   4.048   6.961
13990TIP3    H241848   0.181   4.081   7.071
13991TIP3   OH241849   1.554   4.512   7.289
13991TIP3    H141850   1.464   4.506   7.329
13991TIP3    H241851   1.547   4.599   7.245
13992TIP3   OH241852   1.844   3.417   7.652
13992TIP3    H141853   1.757   3.448   7.623
13992TIP3    H241854   1.903   3.448   7.581
13993TIP3   OH241855   1.144   3.061   7.633
13993TIP3    H141856   1.133   2.966   7.650
13993TIP3    H241857   1.065   3.098   7.680
13994TIP3   OH241858   1.258   4.559   6.965
13994TIP3    H141859   1.309   4.479   6.941
13994TIP3    H241860   1.316   4.628   6.924
13995TIP3   OH241861   1.399   4.345   6.868
13995TIP3    H141862   1.366   4.264   6.826
13995TIP3    H241863   1.433   4.311   6.953
13996TIP3   OH241864   1.780   4.429   7.634
13996TIP3    H141865   1.770   4.352   7.574
13996TIP3    H241866   1.763   4.504   7.573
13997TIP3   OH241867   1.071   3.824   6.888
13997TIP3    H141868   0.992   3.873   6.860
13997TIP3    H241869   1.121   3.817   6.805
13998TIP3   OH241870   1.030   3.605   6.610
13998TIP3    H141871   1.100   3.655   6.656
13998TIP3    H241872   1.086   3.541   6.561
13999TIP3   OH241873   1.975   4.063   7.477
13999TIP3    H141874   1.893   4.117   7.483
13999TIP3    H241875   2.005   4.087   7.386
14000TIP3   OH241876   1.418   3.904   6.864
14000TIP3    H141877   1.365   3.929   6.943
14000TIP3    H241878   1.502   3.877   6.907
14001TIP3   OH241879   1.654   3.945   7.772
14001TIP3    H141880   1.652   4.029   7.822
14001TIP3    H241881   1.568   3.951   7.725
14002TIP3   OH241882   0.782   4.287   7.428
14002TIP3    H141883   0.777   4.283   7.332
14002TIP3    H241884   0.877   4.272   7.446
14003TIP3   OH241885   1.313   4.510   7.410
14003TIP3    H141886   1.297   4.592   7.461
14003TIP3    H241887   1.299   4.439   7.475
14004TIP3   OH241888   0.923   4.429   7.957
14004TIP3    H141889   0.865   4.493   8.003
14004TIP3    H241890   0.856   4.377   7.907
14005TIP3   OH241891   1.260   3.763   6.689
14005TIP3    H141892   1.320   3.821   6.741
14005TIP3    H241893   1.286   3.788   6.597
14006TIP3   OH241894   0.682   3.994   8.040
14006TIP3    H141895   0.688   4.080   8.086
14006TIP3    H241896   0.592   3.967   8.067
14007TIP3   OH241897   0.999   4.444   6.966
14007TIP3    H141898   1.077   4.498   6.986
14007TIP3    H241899   0.938   4.509   6.928
14008TIP3   OH241900   0.723   4.603   8.043
14008TIP3    H141901   0.686   4.597   7.953
14008TIP3    H241902   0.649   4.566   8.098
14009TIP3   OH241903   1.775   3.005   6.735
14009TIP3    H141904   1.695   3.024   6.787
14009TIP3    H241905   1.787   3.089   6.686
14010TIP3   OH241906   0.518   3.753   7.094
14010TIP3    H141907   0.457   3.791   7.027
14010TIP3    H241908   0.482   3.664   7.103
14011TIP3   OH241909   1.573   4.372   6.283
14011TIP3    H141910   1.581   4.469   6.270
14011TIP3    H241911   1.665   4.343   6.270
14012TIP3   OH241912   0.304   4.140   7.979
14012TIP3    H141913   0.243   4.101   7.916
14012TIP3    H241914   0.331   4.060   8.028
14013TIP3   OH241915   2.019   4.771   7.678
14013TIP3    H141916   2.016   4.675   7.692
14013TIP3    H241917   1.935   4.798   7.723
14014TIP3   OH241918   1.124   4.560   7.815
14014TIP3    H141919   1.124   4.653   7.847
14014TIP3    H241920   1.053   4.521   7.870
14015TIP3   OH241921   0.883   4.689   6.765
14015TIP3    H141922   0.836   4.672   6.681
14015TIP3    H241923   0.851   4.778   6.790
14016TIP3   OH241924   0.365   4.509   7.113
14016TIP3    H141925   0.378   4.503   7.210
14016TIP3    H241926   0.270   4.490   7.101
14017TIP3   OH241927   1.085   4.589   6.406
14017TIP3    H141928   1.145   4.519   6.370
14017TIP3    H241929   1.119   4.598   6.498
14018TIP3   OH241930   1.135   4.636   6.676
14018TIP3    H141931   1.047   4.647   6.719
14018TIP3    H241932   1.187   4.600   6.749
14019TIP3   OH241933   1.908   3.904   7.954
14019TIP3    H141934   1.829   3.919   7.899
14019TIP3    H241935   1.923   3.809   7.941
14020TIP3   OH241936   0.515   4.311   7.977
14020TIP3    H141937   0.551   4.314   8.068
14020TIP3    H241938   0.437   4.253   7.989
14021TIP3   OH241939   0.904   3.136   7.762
14021TIP3    H141940   0.815   3.103   7.738
14021TIP3    H241941   0.879   3.219   7.806
14022TIP3   OH241942   1.436   3.252   7.957
14022TIP3    H141943   1.504   3.224   8.021
14022TIP3    H241944   1.352   3.230   8.002
14023TIP3   OH241945   1.677   3.679   7.874
14023TIP3    H141946   1.629   3.676   7.960
14023TIP3    H241947   1.653   3.767   7.840
14024TIP3   OH241948   1.335   3.812   6.433
14024TIP3    H141949   1.303   3.784   6.345
14024TIP3    H241950   1.416   3.862   6.408
14025TIP3   OH241951   1.049   3.187   6.733
14025TIP3    H141952   1.018   3.184   6.826
14025TIP3    H241953   1.012   3.102   6.701
14026TIP3   OH241954   0.831   3.660   7.779
14026TIP3    H141955   0.785   3.660   7.866
14026TIP3    H241956   0.816   3.752   7.753
14027TIP3   OH241957   0.709   3.547   7.298
14027TIP3    H141958   0.619   3.510   7.311
14027TIP3    H241959   0.731   3.507   7.211
14028TIP3   OH241960   1.209   3.623   7.021
14028TIP3    H141961   1.156   3.695   6.980
14028TIP3    H241962   1.264   3.594   6.946
14029TIP3   OH241963   1.383   3.903   8.110
14029TIP3    H141964   1.362   3.830   8.172
14029TIP3    H241965   1.477   3.918   8.131
14030TIP3   OH241966   1.368   3.653   7.262
14030TIP3    H141967   1.310   3.683   7.190
14030TIP3    H241968   1.401   3.570   7.221
14031TIP3   OH241969   0.660   3.677   7.990
14031TIP3    H141970   0.665   3.744   8.060
14031TIP3    H241971   0.640   3.596   8.041
14032TIP3   OH241972   0.704   3.157   6.700
14032TIP3    H141973   0.697   3.154   6.797
14032TIP3    H241974   0.624   3.207   6.677
14033TIP3   OH241975   0.247   3.227   7.537
14033TIP3    H141976   0.306   3.244   7.614
14033TIP3    H241977   0.287   3.147   7.500
14034TIP3   OH241978   0.236   3.208   7.106
14034TIP3    H141979   0.271   3.227   7.017
14034TIP3    H241980   0.178   3.285   7.117
14035TIP3   OH241981   1.374   3.900   7.684
14035TIP3    H141982   1.408   3.828   7.627
14035TIP3    H241983   1.348   3.849   7.763
14036TIP3   OH241984   1.044   3.362   7.357
14036TIP3    H141985   0.962   3.359   7.410
14036TIP3    H241986   1.113   3.358   7.426
14037TIP3   OH241987   0.476   3.410   7.358
14037TIP3    H141988   0.384   3.403   7.326
14037TIP3    H241989   0.510   3.319   7.345
14038TIP3   OH241990   0.751   3.416   7.056
14038TIP3    H141991   0.846   3.427   7.035
14038TIP3    H241992   0.707   3.437   6.971
14039TIP3   OH241993   1.537   3.436   7.559
14039TIP3    H141994   1.501   3.447   7.650
14039TIP3    H241995   1.474   3.373   7.521
14040TIP3   OH241996   0.588   3.447   6.832
14040TIP3    H141997   0.518   3.400   6.783
14040TIP3    H241998   0.641   3.481   6.758
14041TIP3   OH241999   1.706   5.123   7.777
14041TIP3    H142000   1.704   5.149   7.683
14041TIP3    H242001   1.782   5.174   7.810
14042TIP3   OH242002   0.676   4.224   8.201
14042TIP3    H142003   0.752   4.263   8.247
14042TIP3    H242004   0.606   4.240   8.267
14043TIP3   OH242005   1.141   3.695   7.460
14043TIP3    H142006   1.201   3.646   7.403
14043TIP3    H242007   1.148   3.647   7.544
14044TIP3   OH242008   0.654   3.178   7.331
14044TIP3    H142009   0.621   3.097   7.377
14044TIP3    H242010   0.708   3.140   7.261
14045TIP3   OH242011   1.105   3.580   7.748
14045TIP3    H142012   1.018   3.622   7.760
14045TIP3    H242013   1.166   3.640   7.796
14046TIP3   OH242014   0.840   3.980   6.841
14046TIP3    H142015   0.771   3.911   6.829
14046TIP3    H242016   0.830   4.002   6.936
14047TIP3   OH242017   1.745   4.211   7.470
14047TIP3    H142018   1.770   4.260   7.388
14047TIP3    H242019   1.659   4.171   7.445
14048TIP3   OH242020   1.301   3.289   6.699
14048TIP3    H142021   1.205   3.274   6.707
14048TIP3    H242022   1.312   3.383   6.723
14049TIP3   OH242023   1.237   4.290   7.838
14049TIP3    H142024   1.264   4.272   7.929
14049TIP3    H242025   1.205   4.382   7.843
14050TIP3   OH242026   1.371   3.534   6.803
14050TIP3    H142027   1.468   3.539   6.819
14050TIP3    H242028   1.355   3.613   6.749
14051TIP3   OH242029   0.989   4.126   6.659
14051TIP3    H142030   0.942   4.212   6.665
14051TIP3    H242031   0.934   4.071   6.718
14052TIP3   OH242032   0.441   3.908   8.128
14052TIP3    H142033   0.448   3.906   8.225
14052TIP3    H242034   0.348   3.881   8.113
14053TIP3   OH242035   1.139   4.030   8.150
14053TIP3    H142036   1.081   3.970   8.100
14053TIP3    H242037   1.228   3.998   8.121
14054TIP3   OH242038   1.403   4.545   7.734
14054TIP3    H142039   1.306   4.552   7.744
14054TIP3    H242040   1.432   4.601   7.810
14055TIP3   OH242041   1.814   3.622   6.641
14055TIP3    H142042   1.751   3.577   6.580
14055TIP3    H242043   1.811   3.711   6.599
14056TIP3   OH242044   2.030   4.479   7.723
14056TIP3    H142045   1.932   4.476   7.714
14056TIP3    H242046   2.056   4.451   7.633
14057TIP3   OH242047   1.512   4.443   6.547
14057TIP3    H142048   1.488   4.374   6.610
14057TIP3    H242049   1.524   4.395   6.464
14058TIP3   OH242050   1.509   4.073   7.390
14058TIP3    H142051   1.416   4.047   7.401
14058TIP3    H242052   1.545   3.994   7.344
14059TIP3   OH242053   0.635   4.296   7.133
14059TIP3    H142054   0.645   4.379   7.081
14059TIP3    H242055   0.541   4.302   7.156
14060TIP3   OH242056   0.198   3.607   6.847
14060TIP3    H142057   0.264   3.680   6.855
14060TIP3    H242058   0.127   3.645   6.902
14061TIP3   OH242059   0.777   4.057   7.116
14061TIP3    H142060   0.769   4.154   7.108
14061TIP3    H242061   0.684   4.032   7.114
14062TIP3   OH242062   0.904   4.623   7.602
14062TIP3    H142063   0.919   4.720   7.597
14062TIP3    H242064   0.984   4.594   7.649
14063TIP3   OH242065   0.594   4.539   6.982
14063TIP3    H142066   0.506   4.538   7.026
14063TIP3    H242067   0.615   4.635   6.986
14064TIP3   OH242068   1.293   4.278   7.568
14064TIP3    H142069   1.285   4.276   7.666
14064TIP3    H242070   1.377   4.231   7.555
14065TIP3   OH242071   1.266   4.169   6.451
14065TIP3    H142072   1.319   4.145   6.530
14065TIP3    H242073   1.177   4.144   6.481
14066TIP3   OH242074   1.542   4.813   7.618
14066TIP3    H142075   1.462   4.759   7.607
14066TIP3    H242076   1.530   4.879   7.547
14067TIP3   OH242077   1.607   4.648   6.271
14067TIP3    H142078   1.644   4.721   6.219
14067TIP3    H242079   1.527   4.692   6.304
14068TIP3   OH242080   0.635   3.420   8.143
14068TIP3    H142081   0.543   3.431   8.168
14068TIP3    H242082   0.666   3.356   8.210
14069TIP3   OH242083   1.425   4.106   6.669
14069TIP3    H142084   1.417   4.038   6.740
14069TIP3    H242085   1.522   4.104   6.656
14070TIP3   OH242086   0.382   4.525   7.763
14070TIP3    H142087   0.403   4.438   7.799
14070TIP3    H242088   0.361   4.574   7.843
14071TIP3   OH242089   0.634   4.152   6.448
14071TIP3    H142090   0.649   4.060   6.419
14071TIP3    H242091   0.616   4.139   6.543
14072TIP3   OH242092   0.584   4.156   6.721
14072TIP3    H142093   0.657   4.133   6.779
14072TIP3    H242094   0.584   4.255   6.726
14073TIP3   OH242095   0.340   3.838   6.903
14073TIP3    H142096   0.274   3.890   6.955
14073TIP3    H242097   0.355   3.904   6.834
14074TIP3   OH242098   1.460   3.489   7.818
14074TIP3    H142099   1.542   3.526   7.854
14074TIP3    H242100   1.448   3.408   7.871
14075TIP3   OH242101   1.340   3.242   6.980
14075TIP3    H142102   1.329   3.265   6.886
14075TIP3    H242103   1.382   3.323   7.017
14076TIP3   OH242104   0.844   4.354   6.672
14076TIP3    H142105   0.757   4.384   6.706
14076TIP3    H242106   0.864   4.426   6.610
14077TIP3   OH242107   1.033   3.417   7.084
14077TIP3    H142108   1.100   3.487   7.065
14077TIP3    H242109   1.039   3.410   7.181
14078TIP3   OH242110   1.302   3.737   7.893
14078TIP3    H142111   1.321   3.792   7.972
14078TIP3    H242112   1.359   3.660   7.906
14079TIP3   OH242113   1.179   3.148   7.188
14079TIP3    H142114   1.175   3.223   7.250
14079TIP3    H242115   1.239   3.185   7.118
14080TIP3   OH242116   0.584   4.427   6.733
14080TIP3    H142117   0.555   4.499   6.672
14080TIP3    H242118   0.581   4.473   6.819
14081TIP3   OH242119   0.689   3.142   6.976
14081TIP3    H142120   0.687   3.232   7.014
14081TIP3    H242121   0.785   3.123   6.985
14082TIP3   OH242122   1.944   3.638   7.873
14082TIP3    H142123   1.846   3.635   7.879
14082TIP3    H242124   1.957   3.599   7.785
14083TIP3   OH242125   1.594   3.832   7.261
14083TIP3    H142126   1.519   3.771   7.274
14083TIP3    H242127   1.667   3.786   7.309
14084TIP3   OH242128   0.316   4.067   6.726
14084TIP3    H142129   0.383   4.136   6.737
14084TIP3    H242130   0.359   4.014   6.656
14085TIP3   OH242131   0.249   3.335   6.865
14085TIP3    H142132   0.247   3.433   6.865
14085TIP3    H242133   0.177   3.312   6.806
14086TIP3   OH242134   1.562   4.783   7.211
14086TIP3    H142135   1.520   4.831   7.136
14086TIP3    H242136   1.656   4.804   7.191
14087TIP3   OH242137   0.641   3.052   7.741
14087TIP3    H142138   0.607   3.022   7.654
14087TIP3    H242139   0.626   2.974   7.798
14088TIP3   OH242140   0.199   4.239   7.150
14088TIP3    H142141   0.112   4.282   7.153
14088TIP3    H242142   0.237   4.287   7.075
14089TIP3   OH242143   0.817   4.790   8.229
14089TIP3    H142144   0.909   4.765   8.245
14089TIP3    H242145   0.790   4.724   8.162
14090TIP3   OH242146   0.797   4.357   6.363
14090TIP3    H142147   0.741   4.286   6.402
14090TIP3    H242148   0.872   4.304   6.331
14091TIP3   OH242149   1.456   4.685   7.965
14091TIP3    H142150   1.447   4.616   8.035
14091TIP3    H242151   1.533   4.737   7.997
14092TIP3   OH242152   1.234   4.398   6.273
14092TIP3    H142153   1.281   4.336   6.331
14092TIP3    H242154   1.291   4.400   6.194
14093TIP3   OH242155   0.483   4.208   8.398
14093TIP3    H142156   0.512   4.115   8.392
14093TIP3    H242157   0.388   4.196   8.379
14094TIP3   OH242158   0.444   3.874   6.581
14094TIP3    H142159   0.498   3.838   6.653
14094TIP3    H242160   0.511   3.878   6.509
14095TIP3   OH242161   1.075   4.305   8.162
14095TIP3    H142162   1.031   4.320   8.077
14095TIP3    H242163   1.105   4.212   8.156
14096TIP3   OH242164   0.948   4.071   6.389
14096TIP3    H142165   0.951   4.084   6.486
14096TIP3    H242166   0.948   3.973   6.385
14097TIP3   OH242167   1.564   4.312   7.768
14097TIP3    H142168   1.639   4.357   7.725
14097TIP3    H242169   1.495   4.380   7.758
14098TIP3   OH242170   0.571   3.937   8.386
14098TIP3    H142171   0.651   3.893   8.357
14098TIP3    H242172   0.600   3.977   8.471
14099TIP3   OH242173   0.658   3.775   6.811
14099TIP3    H142174   0.623   3.728   6.888
14099TIP3    H242175   0.689   3.700   6.755
14100TIP3   OH242176   0.922   3.842   8.035
14100TIP3    H142177   0.843   3.901   8.036
14100TIP3    H242178   0.970   3.876   7.955
14101TIP3   OH242179   0.749   3.569   6.647
14101TIP3    H142180   0.722   3.569   6.553
14101TIP3    H242181   0.846   3.575   6.639
14102TIP3   OH242182   1.433   4.241   8.167
14102TIP3    H142183   1.517   4.225   8.122
14102TIP3    H242184   1.435   4.174   8.238
14103TIP3   OH242185   1.574   3.902   6.307
14103TIP3    H142186   1.551   3.854   6.225
14103TIP3    H242187   1.542   3.992   6.282
14104TIP3   OH242188   1.041   3.627   8.163
14104TIP3    H142189   1.041   3.547   8.107
14104TIP3    H242190   0.999   3.693   8.104
14105TIP3   OH242191   1.044   3.413   7.968
14105TIP3    H142192   1.072   3.454   7.883
14105TIP3    H242193   0.951   3.390   7.949
14106TIP3   OH242194   1.070   3.947   7.834
14106TIP3    H142195   1.155   3.959   7.789
14106TIP3    H242196   1.014   4.014   7.791
14107TIP3   OH242197   1.657   3.919   8.226
14107TIP3    H142198   1.706   3.835   8.226
14107TIP3    H242199   1.724   3.980   8.190
14108TIP3   OH242200   1.695   4.169   7.957
14108TIP3    H142201   1.637   4.223   7.897
14108TIP3    H242202   1.783   4.190   7.917
14109TIP3   OH242203   0.916   3.745   8.389
14109TIP3    H142204   0.849   3.675   8.402
14109TIP3    H242205   0.954   3.719   8.302
14110TIP3   OH242206   1.177   3.180   8.034
14110TIP3    H142207   1.128   3.262   8.011
14110TIP3    H242208   1.107   3.112   8.021
14111TIP3   OH242209   1.303   3.685   8.251
14111TIP3    H142210   1.290   3.675   8.347
14111TIP3    H242211   1.213   3.659   8.221
14112TIP3   OH242212   1.542   3.633   8.105
14112TIP3    H142213   1.466   3.634   8.166
14112TIP3    H242214   1.615   3.602   8.163
14113TIP3   OH242215   1.770   3.573   8.258
14113TIP3    H142216   1.783   3.477   8.276
14113TIP3    H242217   1.767   3.612   8.348
14114TIP3   OH242218   0.755   3.528   8.437
14114TIP3    H142219   0.765   3.437   8.402
14114TIP3    H242220   0.797   3.515   8.526
14115TIP3   OH242221   1.271   3.187   8.291
14115TIP3    H142222   1.340   3.118   8.283
14115TIP3    H242223   1.231   3.182   8.202
14116TIP3   OH242224   1.336   3.404   8.448
14116TIP3    H142225   1.313   3.334   8.384
14116TIP3    H242226   1.259   3.464   8.442
14117TIP3   OH242227   0.555   4.630   6.548
14117TIP3    H142228   0.651   4.629   6.531
14117TIP3    H242229   0.526   4.680   6.470
14118TIP3   OH242230   0.049   4.030   6.708
14118TIP3    H142231   0.143   4.041   6.736
14118TIP3    H242232   0.044   3.933   6.698
14119TIP3   OH242233   1.814   4.877   7.165
14119TIP3    H142234   1.838   4.912   7.253
14119TIP3    H242235   1.872   4.928   7.107
14120TIP3   OH242236   1.844   4.898   7.447
14120TIP3    H142237   1.803   4.809   7.444
14120TIP3    H242238   1.919   4.880   7.505
14121TIP3   OH242239   1.891   4.574   8.021
14121TIP3    H142240   1.817   4.583   8.084
14121TIP3    H242241   1.931   4.663   8.025
14122TIP3   OH242242   1.706   4.089   6.642
14122TIP3    H142243   1.776   4.152   6.616
14122TIP3    H242244   1.747   4.049   6.721
14123TIP3   OH242245   1.833   3.957   6.845
14123TIP3    H142246   1.769   3.914   6.905
14123TIP3    H242247   1.899   3.994   6.907
14124TIP3   OH242248   1.885   4.346   7.277
14124TIP3    H142249   1.941   4.284   7.225
14124TIP3    H242250   1.877   4.422   7.216
14125TIP3   OH242251   1.721   4.646   7.474
14125TIP3    H142252   1.651   4.691   7.525
14125TIP3    H242253   1.669   4.599   7.405
14126TIP3   OH242254   1.773   3.864   6.493
14126TIP3    H142255   1.701   3.867   6.426
14126TIP3    H242256   1.746   3.940   6.549
14127TIP3   OH242257   1.642   3.538   6.448
14127TIP3    H142258   1.603   3.576   6.369
14127TIP3    H242259   1.617   3.443   6.439
14128TIP3   OH242260   1.648   3.811   6.992
14128TIP3    H142261   1.658   3.714   6.989
14128TIP3    H242262   1.636   3.826   7.089
14129TIP3   OH242263   0.292   3.929   7.717
14129TIP3    H142264   0.283   3.878   7.634
14129TIP3    H242265   0.380   3.900   7.746
14130TIP3   OH242266   1.936   4.236   7.848
14130TIP3    H142267   2.010   4.171   7.840
14130TIP3    H242268   1.965   4.307   7.789
14131TIP3   OH242269   2.123   4.044   7.870
14131TIP3    H142270   2.049   3.993   7.909
14131TIP3    H242271   2.196   3.980   7.882
14132TIP3   OH242272   1.587   3.272   6.436
14132TIP3    H142273   1.664   3.241   6.487
14132TIP3    H242274   1.516   3.211   6.462
14133TIP3   OH242275   1.644   3.527   6.888
14133TIP3    H142276   1.684   3.438   6.904
14133TIP3    H242277   1.703   3.560   6.819
14134TIP3   OH242278   1.807   3.706   7.382
14134TIP3    H142279   1.894   3.731   7.342
14134TIP3    H242280   1.821   3.740   7.472
14135TIP3   OH242281   1.874   3.846   7.617
14135TIP3    H142282   1.795   3.881   7.663
14135TIP3    H242283   1.907   3.926   7.570
14136TIP3   OH242284   0.484   3.553   8.420
14136TIP3    H142285   0.579   3.570   8.405
14136TIP3    H242286   0.490   3.483   8.485
14137TIP3   OH242287   2.326   3.434   8.173
14137TIP3    H142288   2.384   3.368   8.129
14137TIP3    H242289   2.300   3.491   8.097
14138TIP3   OH242290   1.753   3.277   6.926
14138TIP3    H142291   1.803   3.261   7.009
14138TIP3    H242292   1.694   3.199   6.924
14139TIP3   OH242293   0.451   3.255   7.728
14139TIP3    H142294   0.517   3.186   7.746
14139TIP3    H242295   0.503   3.335   7.742
14140TIP3   OH242296   0.299   3.552   7.842
14140TIP3    H142297   0.307   3.531   7.748
14140TIP3    H242298   0.252   3.635   7.841
14141TIP3   OH242299   2.199   3.578   7.980
14141TIP3    H142300   2.110   3.616   7.997
14141TIP3    H242301   2.175   3.506   7.919
14142TIP3   OH242302   1.836   3.215   6.555
14142TIP3    H142303   1.877   3.141   6.507
14142TIP3    H242304   1.904   3.284   6.549
14143TIP3   OH242305   0.235   3.028   7.303
14143TIP3    H142306   0.150   3.057   7.338
14143TIP3    H242307   0.248   3.095   7.231
14144TIP3   OH242308   1.398   4.742   6.824
14144TIP3    H142309   1.452   4.729   6.743
14144TIP3    H242310   1.447   4.811   6.870
14145TIP3   OH242311   0.457   3.130   8.148
14145TIP3    H142312   0.396   3.115   8.220
14145TIP3    H242313   0.399   3.164   8.079
14146TIP3   OH242314   0.529   4.505   8.217
14146TIP3    H142315   0.445   4.550   8.194
14146TIP3    H242316   0.525   4.510   8.314
14147TIP3   OH242317   0.688   4.573   7.763
14147TIP3    H142318   0.625   4.638   7.724
14147TIP3    H242319   0.766   4.591   7.706
14148TIP3   OH242320   1.121   4.830   7.896
14148TIP3    H142321   1.166   4.826   7.984
14148TIP3    H242322   1.190   4.877   7.844
14149TIP3   OH242323   1.302   4.976   7.752
14149TIP3    H142324   1.375   4.927   7.710
14149TIP3    H242325   1.353   5.034   7.813
14150TIP3   OH242326   2.096   3.339   7.855
14150TIP3    H142327   2.005   3.334   7.821
14150TIP3    H242328   2.127   3.247   7.842
14151TIP3   OH242329   0.582   4.805   7.643
14151TIP3    H142330   0.497   4.830   7.683
14151TIP3    H242331   0.576   4.849   7.556
14152TIP3   OH242332   1.038   4.858   7.404
14152TIP3    H142333   0.953   4.871   7.357
14152TIP3    H242334   1.038   4.936   7.463
14153TIP3   OH242335   1.287   4.784   7.488
14153TIP3    H142336   1.194   4.800   7.462
14153TIP3    H242337   1.330   4.862   7.447
14154TIP3   OH242338   1.495   4.978   7.404
14154TIP3    H142339   1.479   5.063   7.358
14154TIP3    H242340   1.519   4.919   7.330
14155TIP3   OH242341   0.308   4.648   7.507
14155TIP3    H142342   0.328   4.613   7.596
14155TIP3    H242343   0.367   4.591   7.454
14156TIP3   OH242344   0.469   4.487   7.364
14156TIP3    H142345   0.482   4.407   7.420
14156TIP3    H242346   0.556   4.531   7.370
14157TIP3   OH242347   0.723   4.602   7.385
14157TIP3    H142348   0.766   4.517   7.364
14157TIP3    H242349   0.770   4.624   7.468
14158TIP3   OH242350   1.299   3.254   7.469
14158TIP3    H142351   1.258   3.185   7.524
14158TIP3    H242352   1.373   3.206   7.427
14159TIP3   OH242353   1.826   3.136   7.380
14159TIP3    H142354   1.863   3.187   7.305
14159TIP3    H242355   1.730   3.154   7.371
14160TIP3   OH242356   1.920   3.237   7.143
14160TIP3    H142357   1.992   3.184   7.103
14160TIP3    H242358   1.954   3.328   7.127
14161TIP3   OH242359   0.550   2.964   7.490
14161TIP3    H142360   0.458   2.928   7.488
14161TIP3    H242361   0.601   2.881   7.488
14162TIP3   OH242362   0.348   2.827   7.144
14162TIP3    H142363   0.364   2.884   7.067
14162TIP3    H242364   0.310   2.892   7.208
14163TIP3   OH242365   0.991   2.999   7.369
14163TIP3    H142366   1.052   3.048   7.312
14163TIP3    H242367   1.014   3.033   7.456
14164TIP3   OH242368   1.541   3.142   7.355
14164TIP3    H142369   1.541   3.106   7.265
14164TIP3    H242370   1.528   3.060   7.409
14165TIP3   OH242371   1.571   3.063   6.915
14165TIP3    H142372   1.483   3.104   6.925
14165TIP3    H242373   1.557   2.979   6.963
14166TIP3   OH242374   0.453   2.995   6.898
14166TIP3    H142375   0.503   2.932   6.843
14166TIP3    H242376   0.525   3.048   6.938
14167TIP3   OH242377   0.966   3.167   7.000
14167TIP3    H142378   1.027   3.120   7.060
14167TIP3    H242379   0.988   3.259   7.025
14168TIP3   OH242380   0.825   4.594   6.499
14168TIP3    H142381   0.914   4.616   6.464
14168TIP3    H242382   0.804   4.519   6.440
14169TIP3   OH242383   1.545   4.710   6.591
14169TIP3    H142384   1.535   4.613   6.578
14169TIP3    H242385   1.499   4.744   6.511
14170TIP3   OH242386   0.757   3.248   8.379
14170TIP3    H142387   0.723   3.174   8.434
14170TIP3    H242388   0.851   3.247   8.408
14171TIP3   OH242389   1.008   3.238   8.500
14171TIP3    H142390   1.091   3.214   8.457
14171TIP3    H242391   0.995   3.164   8.562
14172TIP3   OH242392   0.145   4.435   6.595
14172TIP3    H142393   0.164   4.528   6.617
14172TIP3    H242394   0.230   4.400   6.562
14173TIP3   OH242395   1.831   3.302   8.288
14173TIP3    H142396   1.854   3.269   8.378
14173TIP3    H242397   1.918   3.299   8.243
14174TIP3   OH242398   1.773   4.856   7.778
14174TIP3    H142399   1.693   4.824   7.733
14174TIP3    H242400   1.754   4.952   7.781
14175TIP3   OH242401   3.038   4.227   6.548
14175TIP3    H142402   3.010   4.319   6.528
14175TIP3    H242403   2.960   4.178   6.516
14176TIP3   OH242404   3.034   4.227   6.926
14176TIP3    H142405   3.065   4.196   7.013
14176TIP3    H242406   2.994   4.146   6.890
14177TIP3   OH242407   2.336   4.124   7.292
14177TIP3    H142408   2.368   4.057   7.356
14177TIP3    H242409   2.414   4.181   7.286
14178TIP3   OH242410   3.278   4.528   6.607
14178TIP3    H142411   3.265   4.457   6.671
14178TIP3    H242412   3.305   4.602   6.664
14179TIP3   OH242413   2.305   4.531   7.018
14179TIP3    H142414   2.296   4.433   7.021
14179TIP3    H242415   2.402   4.540   7.015
14180TIP3   OH242416   2.013   3.738   6.805
14180TIP3    H142417   1.964   3.821   6.817
14180TIP3    H242418   1.943   3.681   6.769
14181TIP3   OH242419   2.073   4.022   6.971
14181TIP3    H142420   2.121   3.946   7.011
14181TIP3    H242421   2.134   4.049   6.901
14182TIP3   OH242422   2.925   4.990   6.622
14182TIP3    H142423   2.974   4.919   6.577
14182TIP3    H242424   2.919   4.958   6.713
14183TIP3   OH242425   2.835   4.452   6.974
14183TIP3    H142426   2.872   4.375   6.928
14183TIP3    H242427   2.919   4.496   6.998
14184TIP3   OH242428   3.846   3.774   6.972
14184TIP3    H142429   3.875   3.856   7.017
14184TIP3    H242430   3.868   3.794   6.879
14185TIP3   OH242431   3.248   3.956   7.009
14185TIP3    H142432   3.289   3.870   7.030
14185TIP3    H242433   3.217   3.941   6.918
14186TIP3   OH242434   2.582   3.614   6.974
14186TIP3    H142435   2.562   3.686   6.911
14186TIP3    H242436   2.535   3.540   6.930
14187TIP3   OH242437   3.277   3.704   6.597
14187TIP3    H142438   3.350   3.687   6.662
14187TIP3    H242439   3.328   3.740   6.523
14188TIP3   OH242440   2.218   3.817   7.080
14188TIP3    H142441   2.301   3.796   7.128
14188TIP3    H242442   2.230   3.760   7.001
14189TIP3   OH242443   2.660   4.014   6.871
14189TIP3    H142444   2.753   3.988   6.886
14189TIP3    H242445   2.620   3.930   6.840
14190TIP3   OH242446   3.920   3.980   7.142
14190TIP3    H142447   3.836   4.028   7.124
14190TIP3    H242448   3.932   4.000   7.236
14191TIP3   OH242449   2.582   3.597   7.407
14191TIP3    H142450   2.521   3.633   7.340
14191TIP3    H242451   2.531   3.615   7.489
14192TIP3   OH242452   2.932   4.449   6.418
14192TIP3    H142453   2.889   4.424   6.335
14192TIP3    H242454   2.887   4.534   6.437
14193TIP3   OH242455   2.688   4.372   7.205
14193TIP3    H142456   2.623   4.435   7.243
14193TIP3    H242457   2.729   4.425   7.135
14194TIP3   OH242458   3.491   3.705   6.765
14194TIP3    H142459   3.483   3.653   6.846
14194TIP3    H242460   3.545   3.781   6.794
14195TIP3   OH242461   2.451   3.712   7.193
14195TIP3    H142462   2.514   3.784   7.215
14195TIP3    H242463   2.500   3.670   7.118
14196TIP3   OH242464   2.514   4.564   7.299
14196TIP3    H142465   2.489   4.650   7.261
14196TIP3    H242466   2.436   4.549   7.357
14197TIP3   OH242467   1.913   4.255   6.537
14197TIP3    H142468   1.869   4.283   6.455
14197TIP3    H242469   1.942   4.341   6.575
14198TIP3   OH242470   3.352   4.771   6.778
14198TIP3    H142471   3.262   4.760   6.818
14198TIP3    H242472   3.341   4.856   6.732
14199TIP3   OH242473   3.640   3.676   7.140
14199TIP3    H142474   3.552   3.704   7.110
14199TIP3    H242475   3.698   3.706   7.066
14200TIP3   OH242476   2.940   3.316   7.119
14200TIP3    H142477   2.931   3.221   7.141
14200TIP3    H242478   2.862   3.351   7.167
14201TIP3   OH242479   3.056   4.818   6.454
14201TIP3    H142480   3.105   4.736   6.431
14201TIP3    H242481   3.115   4.884   6.410
14202TIP3   OH242482   3.196   4.604   6.353
14202TIP3    H142483   3.158   4.524   6.314
14202TIP3    H242484   3.230   4.568   6.439
14203TIP3   OH242485   3.577   4.687   7.119
14203TIP3    H142486   3.566   4.608   7.062
14203TIP3    H242487   3.560   4.760   7.057
14204TIP3   OH242488   2.867   4.079   6.376
14204TIP3    H142489   2.787   4.129   6.351
14204TIP3    H242490   2.915   4.075   6.291
14205TIP3   OH242491   2.826   3.864   6.095
14205TIP3    H142492   2.895   3.911   6.144
14205TIP3    H242493   2.881   3.798   6.048
14206TIP3   OH242494   3.772   4.322   6.964
14206TIP3    H142495   3.689   4.374   6.970
14206TIP3    H242496   3.800   4.344   6.873
14207TIP3   OH242497   3.215   4.160   6.350
14207TIP3    H142498   3.160   4.185   6.428
14207TIP3    H242499   3.298   4.133   6.394
14208TIP3   OH242500   3.451   4.202   7.258
14208TIP3    H142501   3.447   4.286   7.308
14208TIP3    H242502   3.364   4.205   7.213
14209TIP3   OH242503   2.448   4.160   6.764
14209TIP3    H142504   2.406   4.102   6.698
14209TIP3    H242505   2.525   4.106   6.794
14210TIP3   OH242506   2.578   4.572   6.913
14210TIP3    H142507   2.557   4.522   6.833
14210TIP3    H242508   2.668   4.539   6.933
14211TIP3   OH242509   2.585   4.130   7.119
14211TIP3    H142510   2.618   4.111   7.029
14211TIP3    H242511   2.628   4.216   7.140
14212TIP3   OH242512   3.110   4.767   6.896
14212TIP3    H142513   3.095   4.847   6.950
14212TIP3    H242514   3.096   4.694   6.959
14213TIP3   OH242515   2.720   4.687   7.443
14213TIP3    H142516   2.662   4.750   7.490
14213TIP3    H242517   2.654   4.634   7.395
14214TIP3   OH242518   3.056   4.019   6.177
14214TIP3    H142519   3.116   4.077   6.229
14214TIP3    H242520   3.082   4.044   6.084
14215TIP3   OH242521   2.475   4.246   7.542
14215TIP3    H142522   2.479   4.331   7.589
14215TIP3    H242523   2.379   4.226   7.550
14216TIP3   OH242524   2.797   4.701   6.447
14216TIP3    H142525   2.874   4.755   6.473
14216TIP3    H242526   2.735   4.767   6.414
14217TIP3   OH242527   2.516   4.856   7.530
14217TIP3    H142528   2.480   4.853   7.439
14217TIP3    H242529   2.437   4.835   7.584
14218TIP3   OH242530   3.572   3.261   6.223
14218TIP3    H142531   3.490   3.279   6.274
14218TIP3    H242532   3.583   3.345   6.173
14219TIP3   OH242533   2.314   4.002   6.570
14219TIP3    H142534   2.247   4.045   6.513
14219TIP3    H242535   2.274   3.916   6.585
14220TIP3   OH242536   2.095   4.386   7.477
14220TIP3    H142537   2.031   4.362   7.407
14220TIP3    H242538   2.132   4.299   7.504
14221TIP3   OH242539   1.949   4.578   7.112
14221TIP3    H142540   2.045   4.574   7.103
14221TIP3    H242541   1.937   4.658   7.164
14222TIP3   OH242542   3.813   5.027   7.161
14222TIP3    H142543   3.813   4.931   7.178
14222TIP3    H242544   3.731   5.053   7.209
14223TIP3   OH242545   2.920   4.816   7.300
14223TIP3    H142546   2.920   4.909   7.332
14223TIP3    H242547   2.849   4.778   7.355
14224TIP3   OH242548   2.675   4.945   6.251
14224TIP3    H142549   2.633   4.930   6.164
14224TIP3    H242550   2.647   5.035   6.273
14225TIP3   OH242551   2.118   4.795   6.634
14225TIP3    H142552   2.166   4.786   6.719
14225TIP3    H242553   2.054   4.722   6.643
14226TIP3   OH242554   2.881   4.831   5.908
14226TIP3    H142555   2.952   4.774   5.871
14226TIP3    H242556   2.916   4.849   5.998
14227TIP3   OH242557   2.932   4.897   6.170
14227TIP3    H142558   2.843   4.904   6.211
14227TIP3    H242559   2.982   4.852   6.240
14228TIP3   OH242560   3.704   4.162   7.439
14228TIP3    H142561   3.624   4.175   7.387
14228TIP3    H242562   3.720   4.066   7.429
14229TIP3   OH242563   2.301   4.568   7.467
14229TIP3    H142564   2.350   4.552   7.550
14229TIP3    H242565   2.226   4.505   7.476
14230TIP3   OH242566   2.698   3.394   7.245
14230TIP3    H142567   2.608   3.362   7.222
14230TIP3    H242568   2.674   3.476   7.293
14231TIP3   OH242569   3.232   3.510   7.444
14231TIP3    H142570   3.299   3.479   7.508
14231TIP3    H242571   3.147   3.487   7.489
14232TIP3   OH242572   3.475   3.938   7.363
14232TIP3    H142573   3.426   3.933   7.448
14232TIP3    H242574   3.447   4.024   7.327
14233TIP3   OH242575   3.128   4.069   5.921
14233TIP3    H142576   3.100   4.037   5.833
14233TIP3    H242577   3.209   4.120   5.897
14234TIP3   OH242578   2.845   3.444   6.220
14234TIP3    H142579   2.814   3.441   6.312
14234TIP3    H242580   2.808   3.359   6.188
14235TIP3   OH242581   2.631   3.907   7.268
14235TIP3    H142582   2.580   3.929   7.349
14235TIP3    H242583   2.614   3.988   7.214
14236TIP3   OH242584   2.514   3.794   6.782
14236TIP3    H142585   2.422   3.766   6.799
14236TIP3    H242586   2.529   3.753   6.694
14237TIP3   OH242587   3.006   3.881   6.509
14237TIP3    H142588   2.951   3.951   6.468
14237TIP3    H242589   3.060   3.851   6.433
14238TIP3   OH242590   3.180   4.161   7.598
14238TIP3    H142591   3.157   4.087   7.659
14238TIP3    H242592   3.274   4.173   7.619
14239TIP3   OH242593   3.164   3.910   6.749
14239TIP3    H142594   3.105   3.939   6.677
14239TIP3    H242595   3.196   3.827   6.708
14240TIP3   OH242596   2.449   3.938   7.478
14240TIP3    H142597   2.477   4.000   7.546
14240TIP3    H242598   2.439   3.855   7.529
14241TIP3   OH242599   2.500   3.414   6.186
14241TIP3    H142600   2.495   3.410   6.284
14241TIP3    H242601   2.419   3.463   6.165
14242TIP3   OH242602   2.043   3.462   7.057
14242TIP3    H142603   2.119   3.491   7.110
14242TIP3    H242604   2.083   3.425   6.977
14243TIP3   OH242605   2.019   3.440   6.577
14243TIP3    H142606   2.065   3.479   6.499
14243TIP3    H242607   1.959   3.514   6.599
14244TIP3   OH242608   3.174   4.157   7.173
14244TIP3    H142609   3.206   4.084   7.115
14244TIP3    H242610   3.146   4.105   7.251
14245TIP3   OH242611   2.840   3.621   6.845
14245TIP3    H142612   2.758   3.614   6.898
14245TIP3    H242613   2.908   3.614   6.913
14246TIP3   OH242614   2.277   3.671   6.853
14246TIP3    H142615   2.182   3.676   6.826
14246TIP3    H242616   2.301   3.579   6.830
14247TIP3   OH242617   2.548   3.670   6.540
14247TIP3    H142618   2.643   3.682   6.520
14247TIP3    H242619   2.503   3.693   6.456
14248TIP3   OH242620   3.333   3.692   7.045
14248TIP3    H142621   3.298   3.703   7.136
14248TIP3    H242622   3.270   3.629   7.008
14249TIP3   OH242623   2.383   3.704   6.319
14249TIP3    H142624   2.311   3.658   6.272
14249TIP3    H242625   2.435   3.737   6.243
14250TIP3   OH242626   3.503   5.379   7.263
14250TIP3    H142627   3.499   5.407   7.170
14250TIP3    H242628   3.577   5.432   7.297
14251TIP3   OH242629   2.461   4.490   7.687
14251TIP3    H142630   2.541   4.521   7.735
14251TIP3    H242631   2.396   4.491   7.760
14252TIP3   OH242632   2.926   3.945   6.942
14252TIP3    H142633   2.996   3.901   6.891
14252TIP3    H242634   2.936   3.902   7.029
14253TIP3   OH242635   2.449   3.432   6.817
14253TIP3    H142636   2.418   3.352   6.863
14253TIP3    H242637   2.508   3.395   6.749
14254TIP3   OH242638   2.903   3.839   7.230
14254TIP3    H142639   2.813   3.875   7.245
14254TIP3    H242640   2.960   3.898   7.282
14255TIP3   OH242641   2.637   4.233   6.324
14255TIP3    H142642   2.566   4.166   6.316
14255TIP3    H242643   2.622   4.266   6.416
14256TIP3   OH242644   3.540   4.468   6.957
14256TIP3    H142645   3.564   4.516   6.875
14256TIP3    H242646   3.455   4.426   6.934
14257TIP3   OH242647   3.097   3.546   6.185
14257TIP3    H142648   3.000   3.529   6.194
14257TIP3    H242649   3.107   3.640   6.210
14258TIP3   OH242650   3.041   4.551   7.323
14258TIP3    H142651   3.057   4.525   7.414
14258TIP3    H242652   2.999   4.638   7.332
14259TIP3   OH242653   3.167   3.791   6.290
14259TIP3    H142654   3.264   3.796   6.306
14259TIP3    H242655   3.150   3.870   6.236
14260TIP3   OH242656   2.330   4.252   7.003
14260TIP3    H142657   2.369   4.224   6.918
14260TIP3    H242658   2.370   4.188   7.065
14261TIP3   OH242659   2.786   4.381   6.144
14261TIP3    H142660   2.740   4.467   6.153
14261TIP3    H242661   2.733   4.325   6.205
14262TIP3   OH242662   2.210   4.175   7.616
14262TIP3    H142663   2.233   4.161   7.709
14262TIP3    H242664   2.142   4.107   7.602
14263TIP3   OH242665   2.935   4.287   7.636
14263TIP3    H142666   2.877   4.228   7.584
14263TIP3    H242667   3.024   4.254   7.608
14264TIP3   OH242668   3.200   4.812   7.216
14264TIP3    H142669   3.104   4.807   7.229
14264TIP3    H242670   3.227   4.861   7.296
14265TIP3   OH242671   3.611   3.878   6.127
14265TIP3    H142672   3.547   3.833   6.067
14265TIP3    H242673   3.608   3.967   6.085
14266TIP3   OH242674   3.827   4.739   7.208
14266TIP3    H142675   3.729   4.733   7.201
14266TIP3    H242676   3.852   4.707   7.118
14267TIP3   OH242677   3.321   4.694   6.030
14267TIP3    H142678   3.287   4.641   6.104
14267TIP3    H242679   3.300   4.639   5.954
14268TIP3   OH242680   3.305   4.329   6.876
14268TIP3    H142681   3.212   4.303   6.889
14268TIP3    H242682   3.340   4.250   6.831
14269TIP3   OH242683   2.430   4.554   6.623
14269TIP3    H142684   2.432   4.638   6.573
14269TIP3    H242685   2.335   4.544   6.638
14270TIP3   OH242686   1.993   3.862   6.328
14270TIP3    H142687   2.041   3.945   6.350
14270TIP3    H242688   1.916   3.868   6.389
14271TIP3   OH242689   2.574   4.324   6.572
14271TIP3    H142690   2.537   4.412   6.589
14271TIP3    H242691   2.537   4.273   6.647
14272TIP3   OH242692   2.700   4.901   7.097
14272TIP3    H142693   2.740   4.974   7.047
14272TIP3    H242694   2.776   4.868   7.147
14273TIP3   OH242695   2.351   4.795   6.478
14273TIP3    H142696   2.266   4.803   6.525
14273TIP3    H242697   2.383   4.888   6.482
14274TIP3   OH242698   3.092   4.536   7.054
14274TIP3    H142699   3.082   4.534   7.152
14274TIP3    H242700   3.171   4.481   7.041
14275TIP3   OH242701   3.056   4.435   5.940
14275TIP3    H142702   3.115   4.406   6.012
14275TIP3    H242703   2.971   4.406   5.975
14276TIP3   OH242704   3.339   5.069   7.106
14276TIP3    H142705   3.261   5.011   7.100
14276TIP3    H242706   3.322   5.134   7.034
14277TIP3   OH242707   2.425   3.681   7.625
14277TIP3    H142708   2.329   3.683   7.639
14277TIP3    H242709   2.453   3.618   7.694
14278TIP3   OH242710   3.222   4.362   6.156
14278TIP3    H142711   3.213   4.295   6.226
14278TIP3    H242712   3.319   4.361   6.143
14279TIP3   OH242713   2.140   4.764   7.256
14279TIP3    H142714   2.192   4.689   7.288
14279TIP3    H242715   2.166   4.833   7.318
14280TIP3   OH242716   2.405   4.387   5.937
14280TIP3    H142717   2.471   4.318   5.917
14280TIP3    H242718   2.404   4.385   6.035
14281TIP3   OH242719   2.378   4.414   6.208
14281TIP3    H142720   2.446   4.383   6.269
14281TIP3    H242721   2.384   4.512   6.221
14282TIP3   OH242722   2.112   4.107   6.411
14282TIP3    H142723   2.046   4.151   6.470
14282TIP3    H242724   2.127   4.179   6.347
14283TIP3   OH242725   3.257   3.745   7.304
14283TIP3    H142726   3.339   3.780   7.344
14283TIP3    H242727   3.242   3.664   7.357
14284TIP3   OH242728   3.137   3.498   6.466
14284TIP3    H142729   3.125   3.522   6.372
14284TIP3    H242730   3.178   3.580   6.503
14285TIP3   OH242731   2.638   4.608   6.159
14285TIP3    H142732   2.555   4.644   6.195
14285TIP3    H242733   2.663   4.678   6.096
14286TIP3   OH242734   2.830   3.674   6.571
14286TIP3    H142735   2.896   3.745   6.554
14286TIP3    H242736   2.835   3.667   6.669
14287TIP3   OH242737   3.099   3.995   7.380
14287TIP3    H142738   3.117   4.048   7.460
14287TIP3    H242739   3.154   3.916   7.394
14288TIP3   OH242740   2.976   3.406   6.675
14288TIP3    H142741   2.972   3.481   6.737
14288TIP3    H242742   3.035   3.442   6.605
14289TIP3   OH242743   2.378   4.687   6.223
14289TIP3    H142744   2.351   4.760   6.162
14289TIP3    H242745   2.365   4.729   6.311
14290TIP3   OH242746   2.485   3.399   6.462
14290TIP3    H142747   2.484   3.488   6.501
14290TIP3    H242748   2.580   3.378   6.472
14291TIP3   OH242749   3.741   3.894   7.358
14291TIP3    H142750   3.644   3.893   7.367
14291TIP3    H242751   3.750   3.850   7.272
14292TIP3   OH242752   3.390   4.089   6.748
14292TIP3    H142753   3.315   4.029   6.760
14292TIP3    H242754   3.462   4.042   6.795
14293TIP3   OH242755   2.102   4.321   6.218
14293TIP3    H142756   2.168   4.391   6.233
14293TIP3    H242757   2.151   4.266   6.153
14294TIP3   OH242758   2.049   3.593   6.351
14294TIP3    H142759   2.045   3.691   6.345
14294TIP3    H242760   1.965   3.567   6.312
14295TIP3   OH242761   3.365   5.046   6.698
14295TIP3    H142762   3.320   5.091   6.624
14295TIP3    H242763   3.458   5.052   6.669
14296TIP3   OH242764   2.433   3.313   7.227
14296TIP3    H142765   2.403   3.278   7.140
14296TIP3    H242766   2.424   3.233   7.284
14297TIP3   OH242767   1.974   4.529   6.608
14297TIP3    H142768   1.901   4.563   6.661
14297TIP3    H242769   1.955   4.570   6.521
14298TIP3   OH242770   2.129   5.069   7.676
14298TIP3    H142771   2.214   5.070   7.724
14298TIP3    H242772   2.108   4.974   7.676
14299TIP3   OH242773   2.615   5.040   7.720
14299TIP3    H142774   2.709   5.019   7.729
14299TIP3    H242775   2.589   4.982   7.646
14300TIP3   OH242776   2.594   4.607   5.864
14300TIP3    H142777   2.564   4.525   5.907
14300TIP3    H242778   2.665   4.572   5.807
14301TIP3   OH242779   3.253   4.941   7.452
14301TIP3    H142780   3.242   4.872   7.522
14301TIP3    H242781   3.329   4.993   7.486
14302TIP3   OH242782   3.060   4.671   5.782
14302TIP3    H142783   3.057   4.581   5.820
14302TIP3    H242784   3.038   4.657   5.689
14303TIP3   OH242785   2.261   4.477   7.877
14303TIP3    H142786   2.278   4.381   7.880
14303TIP3    H242787   2.172   4.480   7.835
14304TIP3   OH242788   2.240   4.134   6.067
14304TIP3    H142789   2.291   4.095   6.140
14304TIP3    H242790   2.308   4.135   5.996
14305TIP3   OH242791   2.870   4.562   7.650
14305TIP3    H142792   2.827   4.576   7.564
14305TIP3    H242793   2.901   4.469   7.644
14306TIP3   OH242794   2.690   4.315   5.892
14306TIP3    H142795   2.736   4.338   5.975
14306TIP3    H242796   2.724   4.225   5.877
14307TIP3   OH242797   3.362   4.568   7.256
14307TIP3    H142798   3.434   4.617   7.212
14307TIP3    H242799   3.288   4.631   7.245
14308TIP3   OH242800   2.379   4.209   7.858
14308TIP3    H142801   2.455   4.152   7.840
14308TIP3    H242802   2.402   4.244   7.947
14309TIP3   OH242803   2.445   4.032   6.292
14309TIP3    H142804   2.420   3.992   6.376
14309TIP3    H242805   2.481   3.956   6.243
14310TIP3   OH242806   2.714   4.096   7.521
14310TIP3    H142807   2.637   4.158   7.525
14310TIP3    H242808   2.761   4.130   7.441
14311TIP3   OH242809   2.546   3.826   6.134
14311TIP3    H142810   2.520   3.821   6.040
14311TIP3    H242811   2.643   3.831   6.127
14312TIP3   OH242812   3.231   4.499   7.655
14312TIP3    H142813   3.313   4.478   7.608
14312TIP3    H242814   3.229   4.431   7.725
14313TIP3   OH242815   3.361   4.164   5.797
14313TIP3    H142816   3.344   4.117   5.713
14313TIP3    H242817   3.387   4.251   5.765
14314TIP3   OH242818   2.837   3.884   7.649
14314TIP3    H142819   2.838   3.803   7.594
14314TIP3    H242820   2.794   3.949   7.590
14315TIP3   OH242821   2.839   3.673   7.454
14315TIP3    H142822   2.867   3.710   7.369
14315TIP3    H242823   2.746   3.647   7.436
14316TIP3   OH242824   2.870   4.208   7.328
14316TIP3    H142825   2.951   4.212   7.275
14316TIP3    H242826   2.814   4.276   7.284
14317TIP3   OH242827   3.452   4.175   7.711
14317TIP3    H142828   3.499   4.091   7.718
14317TIP3    H242829   3.522   4.233   7.676
14318TIP3   OH242830   3.492   4.427   7.445
14318TIP3    H142831   3.434   4.479   7.386
14318TIP3    H242832   3.580   4.446   7.404
14319TIP3   OH242833   2.713   4.001   7.876
14319TIP3    H142834   2.645   3.931   7.889
14319TIP3    H242835   2.750   3.974   7.789
14320TIP3   OH242836   2.974   3.437   7.519
14320TIP3    H142837   2.922   3.518   7.497
14320TIP3    H242838   2.906   3.367   7.508
14321TIP3   OH242839   3.098   3.942   7.737
14321TIP3    H142840   3.089   3.930   7.833
14321TIP3    H242841   3.008   3.916   7.708
14322TIP3   OH242842   3.339   3.891   7.592
14322TIP3    H142843   3.263   3.890   7.652
14322TIP3    H242844   3.411   3.857   7.649
14323TIP3   OH242845   3.569   3.830   7.744
14323TIP3    H142846   3.580   3.734   7.763
14323TIP3    H242847   3.564   3.868   7.834
14324TIP3   OH242848   2.555   3.780   7.929
14324TIP3    H142849   2.562   3.690   7.892
14324TIP3    H242850   2.590   3.766   8.019
14325TIP3   OH242851   3.068   3.446   7.777
14325TIP3    H142852   3.135   3.375   7.772
14325TIP3    H242853   3.028   3.438   7.688
14326TIP3   OH242854   3.133   3.660   7.937
14326TIP3    H142855   3.111   3.589   7.872
14326TIP3    H242856   3.055   3.719   7.929
14327TIP3   OH242857   2.351   4.886   6.032
14327TIP3    H142858   2.448   4.884   6.016
14327TIP3    H242859   2.321   4.933   5.952
14328TIP3   OH242860   1.833   4.271   6.251
14328TIP3    H142861   1.928   4.292   6.241
14328TIP3    H242862   1.828   4.181   6.212
14329TIP3   OH242863   1.749   4.882   6.664
14329TIP3    H142864   1.679   4.821   6.632
14329TIP3    H242865   1.791   4.826   6.733
14330TIP3   OH242866   1.885   4.736   6.852
14330TIP3    H142867   1.872   4.662   6.913
14330TIP3    H242868   1.934   4.798   6.910
14331TIP3   OH242869   3.637   5.135   6.639
14331TIP3    H142870   3.642   5.152   6.735
14331TIP3    H242871   3.615   5.223   6.605
14332TIP3   OH242872   3.644   5.150   6.925
14332TIP3    H142873   3.597   5.064   6.930
14332TIP3    H242874   3.710   5.136   6.995
14333TIP3   OH242875   3.686   4.832   7.507
14333TIP3    H142876   3.613   4.839   7.571
14333TIP3    H242877   3.727   4.921   7.513
14334TIP3   OH242878   3.502   4.345   6.128
14334TIP3    H142879   3.570   4.409   6.100
14334TIP3    H242880   3.545   4.306   6.208
14335TIP3   OH242881   3.630   4.213   6.332
14335TIP3    H142882   3.565   4.170   6.391
14335TIP3    H242883   3.694   4.252   6.395
14336TIP3   OH242884   3.683   4.603   6.765
14336TIP3    H142885   3.737   4.539   6.715
14336TIP3    H242886   3.672   4.676   6.700
14337TIP3   OH242887   3.517   4.906   6.959
14337TIP3    H142888   3.446   4.945   7.014
14337TIP3    H242889   3.465   4.855   6.893
14338TIP3   OH242890   3.568   4.120   5.980
14338TIP3    H142891   3.492   4.120   5.918
14338TIP3    H242892   3.544   4.197   6.036
14339TIP3   OH242893   3.438   3.794   5.935
14339TIP3    H142894   3.400   3.831   5.854
14339TIP3    H242895   3.413   3.700   5.927
14340TIP3   OH242896   3.445   4.067   6.479
14340TIP3    H142897   3.453   3.970   6.475
14340TIP3    H242898   3.432   4.082   6.575
14341TIP3   OH242899   2.072   4.142   7.225
14341TIP3    H142900   2.071   4.113   7.131
14341TIP3    H242901   2.169   4.144   7.242
14342TIP3   OH242902   3.733   4.493   7.335
14342TIP3    H142903   3.806   4.427   7.328
14342TIP3    H242904   3.762   4.562   7.274
14343TIP3   OH242905   3.920   4.302   7.357
14343TIP3    H142906   3.846   4.250   7.394
14343TIP3    H242907   3.993   4.237   7.369
14344TIP3   OH242908   3.383   3.529   5.923
14344TIP3    H142909   3.459   3.496   5.976
14344TIP3    H242910   3.311   3.469   5.947
14345TIP3   OH242911   3.440   3.784   6.375
14345TIP3    H142912   3.480   3.695   6.391
14345TIP3    H242913   3.499   3.816   6.305
14346TIP3   OH242914   3.603   3.961   6.869
14346TIP3    H142915   3.690   3.988   6.829
14346TIP3    H242916   3.616   3.996   6.959
14347TIP3   OH242917   3.670   4.102   7.103
14347TIP3    H142918   3.592   4.136   7.151
14347TIP3    H242919   3.702   4.183   7.057
14348TIP3   OH242920   2.287   3.830   7.900
14348TIP3    H142921   2.385   3.823   7.900
14348TIP3    H242922   2.264   3.745   7.943
14349TIP3   OH242923   4.123   3.693   7.659
14349TIP3    H142924   4.181   3.626   7.616
14349TIP3    H242925   4.097   3.748   7.583
14350TIP3   OH242926   3.549   3.534   6.412
14350TIP3    H142927   3.598   3.517   6.496
14350TIP3    H242928   3.489   3.456   6.411
14351TIP3   OH242929   2.249   3.521   7.233
14351TIP3    H142930   2.311   3.446   7.242
14351TIP3    H242931   2.312   3.595   7.227
14352TIP3   OH242932   2.054   3.796   7.305
14352TIP3    H142933   2.103   3.786   7.221
14352TIP3    H242934   2.084   3.882   7.335
14353TIP3   OH242935   3.996   3.835   7.465
14353TIP3    H142936   3.908   3.872   7.485
14353TIP3    H242937   3.970   3.762   7.405
14354TIP3   OH242938   3.633   3.471   6.044
14354TIP3    H142939   3.672   3.398   5.992
14354TIP3    H242940   3.700   3.541   6.035
14355TIP3   OH242941   2.035   3.301   6.807
14355TIP3    H142942   1.941   3.298   6.830
14355TIP3    H242943   2.035   3.357   6.727
14356TIP3   OH242944   3.198   4.998   6.311
14356TIP3    H142945   3.245   4.984   6.226
14356TIP3    H242946   3.250   5.070   6.351
14357TIP3   OH242947   2.256   3.382   7.623
14357TIP3    H142948   2.204   3.373   7.704
14357TIP3    H242949   2.188   3.416   7.561
14358TIP3   OH242950   2.297   4.802   7.698
14358TIP3    H142951   2.205   4.776   7.681
14358TIP3    H242952   2.304   4.788   7.793
14359TIP3   OH242953   2.473   4.834   7.244
14359TIP3    H142954   2.424   4.910   7.206
14359TIP3    H242955   2.559   4.850   7.200
14360TIP3   OH242956   2.921   5.082   7.382
14360TIP3    H142957   2.962   5.084   7.471
14360TIP3    H242958   2.987   5.133   7.330
14361TIP3   OH242959   3.100   5.232   7.239
14361TIP3    H142960   3.172   5.181   7.201
14361TIP3    H242961   3.149   5.291   7.301
14362TIP3   OH242962   3.893   3.596   7.341
14362TIP3    H142963   3.801   3.590   7.309
14362TIP3    H242964   3.923   3.503   7.329
14363TIP3   OH242965   2.152   5.094   7.267
14363TIP3    H142966   2.063   5.128   7.244
14363TIP3    H242967   2.160   5.128   7.357
14364TIP3   OH242968   2.387   5.072   7.124
14364TIP3    H142969   2.301   5.086   7.171
14364TIP3    H242970   2.366   5.107   7.035
14365TIP3   OH242971   2.814   5.104   6.921
14365TIP3    H142972   2.744   5.125   6.857
14365TIP3    H242973   2.826   5.190   6.966
14366TIP3   OH242974   3.081   5.043   6.971
14366TIP3    H142975   2.986   5.058   6.954
14366TIP3    H242976   3.120   5.124   6.934
14367TIP3   OH242977   3.295   5.237   6.892
14367TIP3    H142978   3.277   5.321   6.844
14367TIP3    H242979   3.314   5.175   6.818
14368TIP3   OH242980   2.063   4.889   7.012
14368TIP3    H142981   2.088   4.864   7.104
14368TIP3    H242982   2.135   4.845   6.963
14369TIP3   OH242983   2.255   4.759   6.867
14369TIP3    H142984   2.271   4.675   6.917
14369TIP3    H242985   2.346   4.797   6.864
14370TIP3   OH242986   2.521   4.855   6.870
14370TIP3    H142987   2.553   4.764   6.859
14370TIP3    H242988   2.562   4.878   6.955
14371TIP3   OH242989   3.094   3.510   6.956
14371TIP3    H142990   3.053   3.442   7.012
14371TIP3    H242991   3.167   3.461   6.914
14372TIP3   OH242992   3.623   3.392   6.866
14372TIP3    H142993   3.658   3.444   6.790
14372TIP3    H242994   3.527   3.408   6.858
14373TIP3   OH242995   3.717   3.494   6.629
14373TIP3    H142996   3.790   3.442   6.588
14373TIP3    H242997   3.750   3.585   6.614
14374TIP3   OH242998   2.347   3.221   6.978
14374TIP3    H142999   2.255   3.186   6.978
14374TIP3    H243000   2.397   3.136   6.974
14375TIP3   OH243001   2.127   3.089   6.622
14375TIP3    H143002   2.162   3.147   6.551
14375TIP3    H243003   2.102   3.153   6.690
14376TIP3   OH243004   2.784   3.262   6.857
14376TIP3    H143005   2.849   3.307   6.801
14376TIP3    H243006   2.813   3.287   6.946
14377TIP3   OH243007   3.341   3.399   6.841
14377TIP3    H143008   3.334   3.361   6.752
14377TIP3    H243009   3.326   3.319   6.897
14378TIP3   OH243010   3.367   3.319   6.403
14378TIP3    H143011   3.279   3.360   6.412
14378TIP3    H243012   3.353   3.235   6.451
14379TIP3   OH243013   1.852   4.657   6.403
14379TIP3    H143014   1.766   4.626   6.369
14379TIP3    H243015   1.838   4.753   6.395
14380TIP3   OH243016   2.249   3.251   6.387
14380TIP3    H143017   2.297   3.187   6.332
14380TIP3    H243018   2.322   3.304   6.424
14381TIP3   OH243019   2.762   3.424   6.486
14381TIP3    H143020   2.820   3.375   6.547
14381TIP3    H243021   2.785   3.516   6.512
14382TIP3   OH243022   2.618   4.854   5.982
14382TIP3    H143023   2.710   4.872   5.951
14382TIP3    H243024   2.601   4.773   5.929
14383TIP3   OH243025   3.340   4.965   6.075
14383TIP3    H143026   3.335   4.868   6.058
14383TIP3    H243027   3.298   5.000   5.993
14384TIP3   OH243028   2.554   3.503   7.869
14384TIP3    H143029   2.522   3.430   7.925
14384TIP3    H243030   2.649   3.503   7.893
14385TIP3   OH243031   2.803   3.499   7.987
14385TIP3    H143032   2.887   3.473   7.944
14385TIP3    H243033   2.792   3.427   8.052
14386TIP3   OH243034   1.923   4.694   6.050
14386TIP3    H143035   1.909   4.722   6.142
14386TIP3    H243036   2.014   4.658   6.054
14387TIP3   OH243037   3.627   3.559   7.775
14387TIP3    H143038   3.647   3.527   7.866
14387TIP3    H243039   3.715   3.553   7.732
14388TIP3   OH243040   3.571   5.113   7.263
14388TIP3    H143041   3.489   5.079   7.221
14388TIP3    H243042   3.549   5.208   7.269
14389TIP3   OH243043   4.833   4.482   6.035
14389TIP3    H143044   4.804   4.573   6.014
14389TIP3    H243045   4.756   4.433   6.002
14390TIP3   OH243046   4.833   4.484   6.413
14390TIP3    H143047   4.861   4.450   6.500
14390TIP3    H243048   4.790   4.406   6.374
14391TIP3   OH243049   4.132   4.380   6.779
14391TIP3    H143050   4.163   4.313   6.843
14391TIP3    H243051   4.211   4.436   6.772
14392TIP3   OH243052   5.088   4.771   6.099
14392TIP3    H143053   5.059   4.710   6.168
14392TIP3    H243054   5.099   4.854   6.147
14393TIP3   OH243055   4.101   4.790   6.508
14393TIP3    H143056   4.091   4.693   6.509
14393TIP3    H243057   4.197   4.797   6.499
14394TIP3   OH243058   3.810   3.995   6.292
14394TIP3    H143059   3.759   4.078   6.303
14394TIP3    H243060   3.741   3.937   6.257
14395TIP3   OH243061   3.871   4.281   6.459
14395TIP3    H143062   3.918   4.203   6.498
14395TIP3    H243063   3.927   4.302   6.384
14396TIP3   OH243064   4.721   5.248   6.116
14396TIP3    H143065   4.766   5.181   6.059
14396TIP3    H243066   4.726   5.205   6.202
14397TIP3   OH243067   4.631   4.711   6.461
14397TIP3    H143068   4.665   4.634   6.413
14397TIP3    H243069   4.716   4.752   6.484
14398TIP3   OH243070   5.643   4.031   6.459
14398TIP3    H143071   5.671   4.114   6.504
14398TIP3    H243072   5.663   4.052   6.366
14399TIP3   OH243073   5.045   4.214   6.495
14399TIP3    H143074   5.085   4.127   6.517
14399TIP3    H243075   5.013   4.197   6.405
14400TIP3   OH243076   4.379   3.871   6.461
14400TIP3    H143077   4.358   3.943   6.398
14400TIP3    H243078   4.332   3.797   6.417
14401TIP3   OH243079   5.073   3.960   6.085
14401TIP3    H143080   5.146   3.944   6.148
14401TIP3    H243081   5.124   3.997   6.010
14402TIP3   OH243082   4.015   4.074   6.567
14402TIP3    H143083   4.097   4.052   6.614
14402TIP3    H243084   4.025   4.017   6.488
14403TIP3   OH243085   4.456   4.271   6.358
14403TIP3    H143086   4.549   4.244   6.373
14403TIP3    H243087   4.416   4.187   6.327
14404TIP3   OH243088   5.718   4.241   6.626
14404TIP3    H143089   5.631   4.285   6.610
14404TIP3    H243090   5.722   4.248   6.723
14405TIP3   OH243091   4.378   3.853   6.894
14405TIP3    H143092   4.316   3.890   6.827
14405TIP3    H243093   4.327   3.870   6.976
14406TIP3   OH243094   4.718   4.698   5.911
14406TIP3    H143095   4.695   4.683   5.819
14406TIP3    H243096   4.680   4.787   5.927
14407TIP3   OH243097   4.486   4.627   6.691
14407TIP3    H143098   4.421   4.689   6.730
14407TIP3    H243099   4.526   4.681   6.621
14408TIP3   OH243100   5.288   3.961   6.252
14408TIP3    H143101   5.276   3.910   6.334
14408TIP3    H243102   5.340   4.037   6.282
14409TIP3   OH243103   4.247   3.969   6.679
14409TIP3    H143104   4.310   4.041   6.702
14409TIP3    H243105   4.296   3.927   6.605
14410TIP3   OH243106   4.310   4.813   6.790
14410TIP3    H143107   4.287   4.900   6.752
14410TIP3    H243108   4.232   4.799   6.847
14411TIP3   OH243109   3.709   4.508   6.030
14411TIP3    H143110   3.672   4.523   5.940
14411TIP3    H243111   3.735   4.598   6.058
14412TIP3   OH243112   5.149   5.028   6.267
14412TIP3    H143113   5.059   5.018   6.305
14412TIP3    H243114   5.138   5.112   6.218
14413TIP3   OH243115   5.436   3.934   6.627
14413TIP3    H143116   5.347   3.961   6.598
14413TIP3    H243117   5.492   3.963   6.553
14414TIP3   OH243118   4.736   3.575   6.606
14414TIP3    H143119   4.725   3.480   6.625
14414TIP3    H243120   4.658   3.611   6.654
14415TIP3   OH243121   4.847   5.081   5.945
14415TIP3    H143122   4.894   4.997   5.921
14415TIP3    H243123   4.903   5.144   5.894
14416TIP3   OH243124   4.982   4.865   5.856
14416TIP3    H143125   4.975   4.803   5.781
14416TIP3    H243126   5.020   4.810   5.927
14417TIP3   OH243127   5.375   4.943   6.605
14417TIP3    H143128   5.359   4.864   6.549
14417TIP3    H243129   5.354   5.017   6.544
14418TIP3   OH243130   4.663   4.335   5.863
14418TIP3    H143131   4.583   4.387   5.841
14418TIP3    H243132   4.710   4.335   5.778
14419TIP3   OH243133   4.623   4.119   5.583
14419TIP3    H143134   4.691   4.169   5.631
14419TIP3    H243135   4.679   4.055   5.535
14420TIP3   OH243136   5.567   4.581   6.455
14420TIP3    H143137   5.482   4.631   6.462
14420TIP3    H243138   5.588   4.596   6.360
14421TIP3   OH243139   5.013   4.411   5.841
14421TIP3    H143140   4.956   4.441   5.916
14421TIP3    H243141   5.095   4.388   5.888
14422TIP3   OH243142   5.248   4.460   6.744
14422TIP3    H143143   5.242   4.542   6.796
14422TIP3    H243144   5.160   4.461   6.700
14423TIP3   OH243145   4.243   4.417   6.252
14423TIP3    H143146   4.201   4.359   6.185
14423TIP3    H243147   4.320   4.363   6.280
14424TIP3   OH243148   4.374   4.830   6.401
14424TIP3    H143149   4.350   4.785   6.318
14424TIP3    H243150   4.463   4.795   6.418
14425TIP3   OH243151   4.381   4.386   6.607
14425TIP3    H143152   4.413   4.366   6.516
14425TIP3    H243153   4.424   4.472   6.627
14426TIP3   OH243154   4.906   5.024   6.384
14426TIP3    H143155   4.893   5.103   6.440
14426TIP3    H243156   4.892   4.950   6.446
14427TIP3   OH243157   4.517   4.946   6.928
14427TIP3    H143158   4.459   5.007   6.979
14427TIP3    H243159   4.450   4.890   6.884
14428TIP3   OH243160   4.854   4.274   5.664
14428TIP3    H143161   4.911   4.335   5.715
14428TIP3    H243162   4.880   4.297   5.571
14429TIP3   OH243163   4.270   4.505   7.027
14429TIP3    H143164   4.274   4.589   7.077
14429TIP3    H243165   4.175   4.482   7.037
14430TIP3   OH243166   4.591   4.963   5.941
14430TIP3    H143167   4.674   5.013   5.955
14430TIP3    H243168   4.533   5.027   5.899
14431TIP3   OH243169   4.311   5.115   7.021
14431TIP3    H143170   4.279   5.099   6.931
14431TIP3    H243171   4.232   5.093   7.076
14432TIP3   OH243172   5.368   3.517   5.709
14432TIP3    H143173   5.286   3.536   5.761
14432TIP3    H243174   5.378   3.602   5.660
14433TIP3   OH243175   4.109   4.259   6.059
14433TIP3    H143176   4.045   4.305   6.000
14433TIP3    H243177   4.067   4.173   6.070
14434TIP3   OH243178   3.892   4.643   6.962
14434TIP3    H143179   3.826   4.617   6.895
14434TIP3    H243180   3.928   4.556   6.991
14435TIP3   OH243181   3.745   4.837   6.598
14435TIP3    H143182   3.841   4.829   6.587
14435TIP3    H243183   3.735   4.919   6.648
14436TIP3   OH243184   5.610   5.284   6.651
14436TIP3    H143185   5.608   5.188   6.667
14436TIP3    H243186   5.527   5.311   6.697
14437TIP3   OH243187   4.713   5.076   6.783
14437TIP3    H143188   4.715   5.167   6.818
14437TIP3    H243189   4.644   5.035   6.840
14438TIP3   OH243190   4.460   5.195   5.744
14438TIP3    H143191   4.430   5.182   5.653
14438TIP3    H243192   4.444   5.290   5.759
14439TIP3   OH243193   3.916   5.054   6.124
14439TIP3    H143194   3.955   5.043   6.213
14439TIP3    H243195   3.855   4.978   6.121
14440TIP3   OH243196   4.675   5.087   5.392
14440TIP3    H143197   4.744   5.032   5.350
14440TIP3    H243198   4.725   5.104   5.474
14441TIP3   OH243199   4.724   5.170   5.659
14441TIP3    H143200   4.643   5.155   5.711
14441TIP3    H243201   4.783   5.098   5.688
14442TIP3   OH243202   5.503   4.422   6.922
14442TIP3    H143203   5.418   4.431   6.877
14442TIP3    H243204   5.517   4.325   6.917
14443TIP3   OH243205   4.095   4.828   6.956
14443TIP3    H143206   4.146   4.809   7.038
14443TIP3    H243207   4.023   4.761   6.962
14444TIP3   OH243208   4.495   3.650   6.734
14444TIP3    H143209   4.405   3.618   6.711
14444TIP3    H243210   4.471   3.732   6.781
14445TIP3   OH243211   5.029   3.765   6.929
14445TIP3    H143212   5.097   3.739   6.995
14445TIP3    H243213   4.945   3.744   6.976
14446TIP3   OH243214   5.273   4.196   6.853
14446TIP3    H143215   5.224   4.188   6.938
14446TIP3    H243216   5.241   4.281   6.818
14447TIP3   OH243217   4.933   4.309   5.406
14447TIP3    H143218   4.900   4.290   5.316
14447TIP3    H243219   4.978   4.394   5.393
14448TIP3   OH243220   4.643   3.698   5.707
14448TIP3    H143221   4.610   3.697   5.799
14448TIP3    H243222   4.603   3.615   5.675
14449TIP3   OH243223   4.427   4.163   6.755
14449TIP3    H143224   4.377   4.185   6.837
14449TIP3    H243225   4.411   4.244   6.702
14450TIP3   OH243226   4.311   4.051   6.269
14450TIP3    H143227   4.218   4.024   6.286
14450TIP3    H243228   4.325   4.010   6.180
14451TIP3   OH243229   4.802   4.137   5.996
14451TIP3    H143230   4.747   4.208   5.955
14451TIP3    H243231   4.855   4.109   5.919
14452TIP3   OH243232   4.975   4.417   7.086
14452TIP3    H143233   4.952   4.343   7.148
14452TIP3    H243234   5.070   4.428   7.107
14453TIP3   OH243235   4.961   4.167   6.235
14453TIP3    H143236   4.900   4.197   6.164
14453TIP3    H243237   4.992   4.084   6.194
14454TIP3   OH243238   4.245   4.194   6.965
14454TIP3    H143239   4.275   4.255   7.034
14454TIP3    H243240   4.234   4.111   7.014
14455TIP3   OH243241   4.297   3.670   5.674
14455TIP3    H143242   4.288   3.667   5.771
14455TIP3    H243243   4.217   3.721   5.650
14456TIP3   OH243244   3.839   3.719   6.543
14456TIP3    H143245   3.916   3.747   6.597
14456TIP3    H243246   3.879   3.682   6.463
14457TIP3   OH243247   3.817   3.698   6.064
14457TIP3    H143248   3.860   3.737   5.986
14457TIP3    H243249   3.754   3.770   6.086
14458TIP3   OH243250   4.973   4.414   6.661
14458TIP3    H143251   5.004   4.341   6.603
14458TIP3    H243252   4.944   4.362   6.739
14459TIP3   OH243253   4.636   3.875   6.332
14459TIP3    H143254   4.553   3.871   6.383
14459TIP3    H243255   4.703   3.872   6.402
14460TIP3   OH243256   4.073   3.928   6.340
14460TIP3    H143257   3.978   3.934   6.313
14460TIP3    H243258   4.096   3.836   6.316
14461TIP3   OH243259   4.345   3.926   6.026
14461TIP3    H143260   4.439   3.941   6.005
14461TIP3    H243261   4.298   3.949   5.943
14462TIP3   OH243262   5.130   3.949   6.531
14462TIP3    H143263   5.096   3.960   6.623
14462TIP3    H243264   5.065   3.886   6.495
14463TIP3   OH243265   4.181   3.957   5.807
14463TIP3    H143266   4.108   3.913   5.759
14463TIP3    H243267   4.233   3.993   5.732
14464TIP3   OH243268   5.298   5.636   6.750
14464TIP3    H143269   5.296   5.660   6.656
14464TIP3    H243270   5.375   5.688   6.782
14465TIP3   OH243271   4.257   4.750   7.173
14465TIP3    H143272   4.337   4.777   7.222
14465TIP3    H243273   4.193   4.746   7.247
14466TIP3   OH243274   4.722   4.201   6.430
14466TIP3    H143275   4.792   4.157   6.379
14466TIP3    H243276   4.731   4.159   6.517
14467TIP3   OH243277   4.247   3.689   6.305
14467TIP3    H143278   4.213   3.608   6.350
14467TIP3    H243279   4.300   3.652   6.233
14468TIP3   OH243280   4.699   4.097   6.715
14468TIP3    H143281   4.609   4.132   6.732
14468TIP3    H243282   4.756   4.155   6.769
14469TIP3   OH243283   4.434   4.488   5.813
14469TIP3    H143284   4.361   4.423   5.804
14469TIP3    H243285   4.418   4.523   5.904
14470TIP3   OH243286   5.334   4.723   6.445
14470TIP3    H143287   5.354   4.772   6.363
14470TIP3    H243288   5.248   4.681   6.423
14471TIP3   OH243289   4.894   3.803   5.670
14471TIP3    H143290   4.797   3.786   5.680
14471TIP3    H243291   4.904   3.897   5.696
14472TIP3   OH243292   4.840   4.808   6.809
14472TIP3    H143293   4.854   4.778   6.900
14472TIP3    H243294   4.795   4.894   6.822
14473TIP3   OH243295   4.964   4.047   5.776
14473TIP3    H143296   5.060   4.055   5.792
14473TIP3    H243297   4.944   4.127   5.725
14474TIP3   OH243298   4.128   4.513   6.490
14474TIP3    H143299   4.164   4.482   6.405
14474TIP3    H243300   4.163   4.446   6.551
14475TIP3   OH243301   4.582   4.637   5.631
14475TIP3    H143302   4.534   4.723   5.637
14475TIP3    H243303   4.528   4.581   5.692
14476TIP3   OH243304   4.005   4.433   7.103
14476TIP3    H143305   4.029   4.417   7.196
14476TIP3    H243306   3.939   4.364   7.087
14477TIP3   OH243307   4.731   4.545   7.120
14477TIP3    H143308   4.674   4.483   7.072
14477TIP3    H243309   4.820   4.510   7.095
14478TIP3   OH243310   4.996   5.070   6.702
14478TIP3    H143311   4.900   5.063   6.715
14478TIP3    H243312   5.023   5.118   6.783
14479TIP3   OH243313   5.410   4.136   5.613
14479TIP3    H143314   5.347   4.090   5.553
14479TIP3    H243315   5.403   4.225   5.572
14480TIP3   OH243316   5.625   4.992   6.694
14480TIP3    H143317   5.526   4.988   6.687
14480TIP3    H243318   5.649   4.965   6.603
14481TIP3   OH243319   5.101   4.585   6.365
14481TIP3    H143320   5.008   4.559   6.378
14481TIP3    H243321   5.135   4.506   6.318
14482TIP3   OH243322   4.226   4.817   6.122
14482TIP3    H143323   4.229   4.893   6.060
14482TIP3    H243324   4.133   4.791   6.114
14483TIP3   OH243325   3.792   4.118   5.816
14483TIP3    H143326   3.837   4.203   5.835
14483TIP3    H243327   3.714   4.125   5.876
14484TIP3   OH243328   4.369   4.581   6.061
14484TIP3    H143329   4.335   4.671   6.080
14484TIP3    H243330   4.330   4.531   6.135
14485TIP3   OH243331   4.491   5.165   6.584
14485TIP3    H143332   4.540   5.233   6.532
14485TIP3    H243333   4.565   5.126   6.634
14486TIP3   OH243334   4.149   5.052   5.968
14486TIP3    H143335   4.061   5.060   6.012
14486TIP3    H243336   4.177   5.146   5.967
14487TIP3   OH243337   4.889   4.793   6.541
14487TIP3    H143338   4.879   4.791   6.639
14487TIP3    H243339   4.966   4.735   6.528
14488TIP3   OH243340   4.850   4.627   5.423
14488TIP3    H143341   4.906   4.657   5.497
14488TIP3    H243342   4.764   4.660   5.452
14489TIP3   OH243343   5.136   5.327   6.593
14489TIP3    H143344   5.058   5.268   6.587
14489TIP3    H243345   5.118   5.391   6.520
14490TIP3   OH243346   5.209   5.173   5.236
14490TIP3    H143347   5.239   5.265   5.224
14490TIP3    H243348   5.123   5.187   5.280
14491TIP3   OH243349   4.221   3.937   7.111
14491TIP3    H143350   4.125   3.941   7.126
14491TIP3    H243351   4.249   3.875   7.181
14492TIP3   OH243352   5.013   4.621   5.655
14492TIP3    H143353   5.015   4.548   5.720
14492TIP3    H243354   5.107   4.629   5.631
14493TIP3   OH243355   3.967   5.042   6.749
14493TIP3    H143356   3.991   4.949   6.758
14493TIP3    H243357   3.956   5.066   6.842
14494TIP3   OH243358   4.161   4.671   5.711
14494TIP3    H143359   4.247   4.641   5.744
14494TIP3    H243360   4.176   4.767   5.701
14495TIP3   OH243361   3.910   4.366   5.898
14495TIP3    H143362   3.843   4.407   5.956
14495TIP3    H243363   3.921   4.437   5.832
14496TIP3   OH243364   5.056   4.000   6.790
14496TIP3    H143365   5.134   4.036   6.835
14496TIP3    H243366   5.038   3.919   6.843
14497TIP3   OH243367   4.936   3.754   5.952
14497TIP3    H143368   4.921   3.779   5.859
14497TIP3    H243369   4.974   3.836   5.990
14498TIP3   OH243370   4.435   4.866   5.640
14498TIP3    H143371   4.350   4.897   5.676
14498TIP3    H243372   4.469   4.946   5.598
14499TIP3   OH243373   4.628   3.930   6.057
14499TIP3    H143374   4.692   4.002   6.040
14499TIP3    H243375   4.631   3.924   6.155
14500TIP3   OH243376   4.896   4.252   6.867
14500TIP3    H143377   4.912   4.305   6.948
14500TIP3    H243378   4.950   4.173   6.884
14501TIP3   OH243379   4.773   3.662   6.162
14501TIP3    H143380   4.766   3.738   6.223
14501TIP3    H243381   4.831   3.698   6.092
14502TIP3   OH243382   4.182   4.947   5.709
14502TIP3    H143383   4.148   5.015   5.647
14502TIP3    H243384   4.164   4.988   5.797
14503TIP3   OH243385   4.282   3.655   5.950
14503TIP3    H143386   4.278   3.746   5.986
14503TIP3    H243387   4.378   3.637   5.959
14504TIP3   OH243388   5.539   4.151   6.838
14504TIP3    H143389   5.442   4.153   6.855
14504TIP3    H243390   5.539   4.098   6.758
14505TIP3   OH243391   5.187   4.345   6.234
14505TIP3    H143392   5.109   4.287   6.246
14505TIP3    H243393   5.257   4.297   6.283
14506TIP3   OH243394   3.900   4.578   5.707
14506TIP3    H143395   3.971   4.644   5.721
14506TIP3    H243396   3.941   4.528   5.634
14507TIP3   OH243397   3.845   3.849   5.838
14507TIP3    H143398   3.842   3.946   5.833
14507TIP3    H243399   3.762   3.824   5.795
14508TIP3   OH243400   5.154   5.300   6.186
14508TIP3    H143401   5.111   5.347   6.111
14508TIP3    H243402   5.248   5.318   6.163
14509TIP3   OH243403   4.230   3.570   6.713
14509TIP3    H143404   4.199   3.536   6.627
14509TIP3    H243405   4.221   3.491   6.771
14510TIP3   OH243406   3.776   4.796   6.098
14510TIP3    H143407   3.693   4.820   6.140
14510TIP3    H243408   3.760   4.829   6.007
14511TIP3   OH243409   3.925   5.325   7.161
14511TIP3    H143410   4.010   5.326   7.210
14511TIP3    H243411   3.903   5.230   7.165
14512TIP3   OH243412   4.412   5.299   7.206
14512TIP3    H143413   4.505   5.275   7.217
14512TIP3    H243414   4.386   5.239   7.133
14513TIP3   OH243415   5.048   5.198   6.940
14513TIP3    H143416   5.038   5.129   7.009
14513TIP3    H243417   5.125   5.249   6.973
14514TIP3   OH243418   4.057   4.735   7.363
14514TIP3    H143419   4.074   4.639   7.370
14514TIP3    H243420   3.969   4.736   7.321
14515TIP3   OH243421   4.043   4.386   5.553
14515TIP3    H143422   4.078   4.351   5.637
14515TIP3    H243423   4.125   4.399   5.504
14516TIP3   OH243424   4.667   4.818   7.136
14516TIP3    H143425   4.624   4.829   7.049
14516TIP3    H243426   4.698   4.725   7.134
14517TIP3   OH243427   4.481   4.567   5.372
14517TIP3    H143428   4.525   4.598   5.453
14517TIP3    H243429   4.519   4.478   5.364
14518TIP3   OH243430   5.159   4.824   6.742
14518TIP3    H143431   5.230   4.875   6.699
14518TIP3    H243432   5.084   4.885   6.732
14519TIP3   OH243433   4.177   4.467   7.343
14519TIP3    H143434   4.251   4.407   7.327
14519TIP3    H243435   4.200   4.500   7.433
14520TIP3   OH243436   4.241   4.288   5.779
14520TIP3    H143437   4.216   4.246   5.863
14520TIP3    H243438   4.278   4.212   5.729
14521TIP3   OH243439   4.509   4.353   7.006
14521TIP3    H143440   4.433   4.415   7.011
14521TIP3    H243441   4.558   4.387   6.927
14522TIP3   OH243442   4.342   4.081   5.624
14522TIP3    H143443   4.313   4.082   5.530
14522TIP3    H243444   4.439   4.089   5.613
14523TIP3   OH243445   5.028   4.756   7.142
14523TIP3    H143446   5.109   4.732   7.096
14523TIP3    H243447   5.024   4.689   7.212
14524TIP3   OH243448   5.181   4.426   5.269
14524TIP3    H143449   5.143   4.373   5.197
14524TIP3    H243450   5.135   4.512   5.253
14525TIP3   OH243451   4.630   4.141   7.138
14525TIP3    H143452   4.634   4.059   7.084
14525TIP3    H243453   4.588   4.205   7.077
14526TIP3   OH243454   4.636   3.928   6.940
14526TIP3    H143455   4.663   3.967   6.854
14526TIP3    H243456   4.542   3.904   6.922
14527TIP3   OH243457   4.667   4.464   6.813
14527TIP3    H143458   4.748   4.468   6.761
14527TIP3    H243459   4.611   4.531   6.769
14528TIP3   OH243460   5.245   4.432   7.191
14528TIP3    H143461   5.287   4.350   7.224
14528TIP3    H243462   5.321   4.484   7.164
14529TIP3   OH243463   5.288   4.684   6.932
14529TIP3    H143464   5.230   4.736   6.872
14529TIP3    H243465   5.375   4.702   6.890
14530TIP3   OH243466   4.498   4.264   7.358
14530TIP3    H143467   4.437   4.189   7.373
14530TIP3    H243468   4.545   4.234   7.278
14531TIP3   OH243469   4.771   3.693   7.004
14531TIP3    H143470   4.721   3.776   6.986
14531TIP3    H243471   4.701   3.626   6.997
14532TIP3   OH243472   4.894   4.199   7.225
14532TIP3    H143473   4.883   4.178   7.320
14532TIP3    H243474   4.805   4.172   7.195
14533TIP3   OH243475   5.136   4.142   7.080
14533TIP3    H143476   5.060   4.143   7.141
14533TIP3    H243477   5.208   4.110   7.138
14534TIP3   OH243478   5.374   4.083   7.231
14534TIP3    H143479   5.374   3.987   7.253
14534TIP3    H243480   5.354   4.123   7.318
14535TIP3   OH243481   4.352   4.036   7.416
14535TIP3    H143482   4.360   3.946   7.379
14535TIP3    H243483   4.387   4.022   7.506
14536TIP3   OH243484   4.844   3.685   7.274
14536TIP3    H143485   4.928   3.635   7.270
14536TIP3    H243486   4.822   3.690   7.179
14537TIP3   OH243487   4.146   5.142   5.516
14537TIP3    H143488   4.242   5.146   5.505
14537TIP3    H243489   4.117   5.197   5.441
14538TIP3   OH243490   3.640   4.510   5.765
14538TIP3    H143491   3.723   4.548   5.731
14538TIP3    H243492   3.627   4.435   5.704
14539TIP3   OH243493   3.541   5.140   6.155
14539TIP3    H143494   3.476   5.078   6.116
14539TIP3    H243495   3.588   5.081   6.217
14540TIP3   OH243496   3.678   4.995   6.346
14540TIP3    H143497   3.671   4.906   6.383
14540TIP3    H243498   3.697   5.046   6.425
14541TIP3   OH243499   5.409   5.386   6.139
14541TIP3    H143500   5.432   5.423   6.226
14541TIP3    H243501   5.463   5.439   6.079
14542TIP3   OH243502   5.438   5.412   6.421
14542TIP3    H143503   5.393   5.325   6.417
14542TIP3    H243504   5.510   5.391   6.481
14543TIP3   OH243505   5.483   5.089   6.993
14543TIP3    H143506   5.409   5.095   7.057
14543TIP3    H243507   5.523   5.177   7.000
14544TIP3   OH243508   5.303   4.597   5.614
14544TIP3    H143509   5.368   4.666   5.592
14544TIP3    H243510   5.343   4.558   5.695
14545TIP3   OH243511   5.428   4.469   5.823
14545TIP3    H143512   5.358   4.423   5.874
14545TIP3    H243513   5.476   4.518   5.892
14546TIP3   OH243514   5.482   4.862   6.256
14546TIP3    H143515   5.514   4.800   6.190
14546TIP3    H243516   5.464   4.941   6.202
14547TIP3   OH243517   5.314   5.162   6.447
14547TIP3    H143518   5.244   5.205   6.500
14547TIP3    H243519   5.261   5.114   6.379
14548TIP3   OH243520   5.365   4.374   5.465
14548TIP3    H143521   5.295   4.379   5.396
14548TIP3    H243522   5.338   4.450   5.520
14549TIP3   OH243523   5.242   4.048   5.419
14549TIP3    H143524   5.190   4.092   5.351
14549TIP3    H243525   5.212   3.955   5.408
14550TIP3   OH243526   5.247   4.323   5.967
14550TIP3    H143527   5.249   4.226   5.962
14550TIP3    H243528   5.230   4.338   6.063
14551TIP3   OH243529   3.868   4.401   6.711
14551TIP3    H143530   3.867   4.370   6.618
14551TIP3    H243531   3.965   4.401   6.728
14552TIP3   OH243532   5.530   4.749   6.822
14552TIP3    H143533   5.602   4.683   6.814
14552TIP3    H243534   5.560   4.821   6.763
14553TIP3   OH243535   5.719   4.559   6.839
14553TIP3    H143536   5.643   4.509   6.876
14553TIP3    H243537   5.790   4.493   6.854
14554TIP3   OH243538   5.180   3.783   5.407
14554TIP3    H143539   5.254   3.753   5.463
14554TIP3    H243540   5.106   3.726   5.434
14555TIP3   OH243541   5.237   4.042   5.864
14555TIP3    H143542   5.277   3.952   5.879
14555TIP3    H243543   5.295   4.073   5.792
14556TIP3   OH243544   5.398   4.215   6.356
14556TIP3    H143545   5.485   4.241   6.318
14556TIP3    H243546   5.410   4.251   6.447
14557TIP3   OH243547   5.465   4.358   6.588
14557TIP3    H143548   5.388   4.389   6.639
14557TIP3    H243549   5.496   4.441   6.547
14558TIP3   OH243550   4.085   4.088   7.389
14558TIP3    H143551   4.183   4.079   7.388
14558TIP3    H243552   4.060   4.002   7.430
14559TIP3   OH243553   5.924   3.953   7.145
14559TIP3    H143554   5.977   3.883   7.102
14559TIP3    H243555   5.894   4.007   7.069
14560TIP3   OH243556   5.346   3.790   5.898
14560TIP3    H143557   5.393   3.774   5.982
14560TIP3    H243558   5.285   3.714   5.897
14561TIP3   OH243559   4.046   3.777   6.718
14561TIP3    H143560   4.108   3.702   6.729
14561TIP3    H243561   4.108   3.852   6.713
14562TIP3   OH243562   3.850   4.053   6.792
14562TIP3    H143563   3.898   4.043   6.707
14562TIP3    H243564   3.882   4.138   6.822
14563TIP3   OH243565   5.793   4.092   6.950
14563TIP3    H143566   5.707   4.129   6.978
14563TIP3    H243567   5.763   4.019   6.893
14564TIP3   OH243568   5.429   3.728   5.531
14564TIP3    H143569   5.468   3.654   5.480
14564TIP3    H243570   5.496   3.798   5.521
14565TIP3   OH243571   3.832   3.557   6.294
14565TIP3    H143572   3.737   3.553   6.318
14565TIP3    H243573   3.831   3.614   6.214
14566TIP3   OH243574   4.993   5.258   5.799
14566TIP3    H143575   5.033   5.228   5.715
14566TIP3    H243576   5.057   5.324   5.829
14567TIP3   OH243577   4.052   3.637   7.108
14567TIP3    H143578   4.001   3.628   7.190
14567TIP3    H243579   3.984   3.673   7.048
14568TIP3   OH243580   4.091   5.062   7.185
14568TIP3    H143581   4.000   5.031   7.169
14568TIP3    H243582   4.103   5.041   7.278
14569TIP3   OH243583   4.278   5.082   6.743
14569TIP3    H143584   4.206   5.130   6.702
14569TIP3    H243585   4.356   5.108   6.688
14570TIP3   OH243586   4.716   5.341   6.870
14570TIP3    H143587   4.758   5.340   6.958
14570TIP3    H243588   4.784   5.390   6.818
14571TIP3   OH243589   4.895   5.490   6.725
14571TIP3    H143590   4.967   5.438   6.686
14571TIP3    H243591   4.946   5.547   6.787
14572TIP3   OH243592   5.690   3.853   6.826
14572TIP3    H143593   5.597   3.845   6.798
14572TIP3    H243594   5.719   3.760   6.816
14573TIP3   OH243595   3.943   5.361   6.719
14573TIP3    H143596   3.852   5.398   6.731
14573TIP3    H243597   3.977   5.375   6.809
14574TIP3   OH243598   4.608   5.358   6.415
14574TIP3    H143599   4.555   5.383   6.337
14574TIP3    H243600   4.626   5.446   6.455
14575TIP3   OH243601   4.878   5.300   6.460
14575TIP3    H143602   4.784   5.315   6.441
14575TIP3    H243603   4.919   5.377   6.418
14576TIP3   OH243604   5.087   5.493   6.377
14576TIP3    H143605   5.072   5.577   6.330
14576TIP3    H243606   5.111   5.432   6.304
14577TIP3   OH243607   4.047   5.035   6.372
14577TIP3    H143608   4.052   4.944   6.409
14577TIP3    H243609   4.141   5.051   6.352
14578TIP3   OH243610   4.320   5.121   6.366
14578TIP3    H143611   4.345   5.032   6.334
14578TIP3    H243612   4.380   5.126   6.443
14579TIP3   OH243613   4.892   3.768   6.444
14579TIP3    H143614   4.849   3.700   6.500
14579TIP3    H243615   4.964   3.717   6.401
14580TIP3   OH243616   5.420   3.648   6.351
14580TIP3    H143617   5.454   3.701   6.276
14580TIP3    H243618   5.324   3.665   6.346
14581TIP3   OH243619   5.514   3.752   6.115
14581TIP3    H143620   5.587   3.700   6.075
14581TIP3    H243621   5.546   3.843   6.100
14582TIP3   OH243622   4.143   3.477   6.464
14582TIP3    H143623   4.051   3.443   6.464
14582TIP3    H243624   4.193   3.392   6.461
14583TIP3   OH243625   3.928   3.345   6.109
14583TIP3    H143626   3.958   3.404   6.038
14583TIP3    H243627   3.898   3.409   6.177
14584TIP3   OH243628   4.584   3.511   6.343
14584TIP3    H143629   4.645   3.562   6.287
14584TIP3    H243630   4.604   3.545   6.431
14585TIP3   OH243631   5.138   3.655   6.328
14585TIP3    H143632   5.129   3.618   6.239
14585TIP3    H243633   5.122   3.575   6.383
14586TIP3   OH243634   5.163   3.576   5.889
14586TIP3    H143635   5.076   3.619   5.899
14586TIP3    H243636   5.148   3.492   5.937
14587TIP3   OH243637   3.641   4.921   5.898
14587TIP3    H143638   3.571   4.871   5.855
14587TIP3    H243639   3.625   5.010   5.863
14588TIP3   OH243640   4.044   3.507   5.875
14588TIP3    H143641   4.094   3.444   5.819
14588TIP3    H243642   4.116   3.561   5.912
14589TIP3   OH243643   4.559   3.679   5.973
14589TIP3    H143644   4.618   3.633   6.035
14589TIP3    H243645   4.580   3.772   5.998
14590TIP3   OH243646   4.420   5.111   5.473
14590TIP3    H143647   4.515   5.123   5.446
14590TIP3    H243648   4.397   5.039   5.413
14591TIP3   OH243649   5.138   5.215   5.563
14591TIP3    H143650   5.100   5.125   5.547
14591TIP3    H243651   5.097   5.258   5.485
14592TIP3   OH243652   4.351   3.759   7.355
14592TIP3    H143653   4.319   3.687   7.412
14592TIP3    H243654   4.446   3.759   7.380
14593TIP3   OH243655   4.601   3.758   7.473
14593TIP3    H143656   4.683   3.738   7.423
14593TIP3    H243657   4.596   3.682   7.534
14594TIP3   OH243658   5.419   3.809   7.259
14594TIP3    H143659   5.432   3.788   7.355
14594TIP3    H243660   5.511   3.805   7.226
14595TIP3   OH243661   5.366   5.369   6.752
14595TIP3    H143662   5.286   5.336   6.707
14595TIP3    H243663   5.345   5.464   6.756
14596TIP3   OH243664   6.628   4.739   5.523
14596TIP3    H143665   6.602   4.831   5.502
14596TIP3    H243666   6.552   4.691   5.487
14597TIP3   OH243667   6.624   4.742   5.901
14597TIP3    H143668   6.657   4.708   5.986
14597TIP3    H243669   6.587   4.662   5.860
14598TIP3   OH243670   6.868   5.042   5.582
14598TIP3    H143671   6.861   4.970   5.646
14598TIP3    H243672   6.900   5.115   5.636
14599TIP3   OH243673   5.903   5.049   5.996
14599TIP3    H143674   5.889   4.958   5.967
14599TIP3    H243675   6.000   5.058   5.984
14600TIP3   OH243676   5.606   4.256   5.781
14600TIP3    H143677   5.549   4.335   5.791
14600TIP3    H243678   5.541   4.193   5.748
14601TIP3   OH243679   5.685   4.549   5.945
14601TIP3    H143680   5.726   4.466   5.978
14601TIP3    H243681   5.714   4.550   5.853
14602TIP3   OH243682   6.518   5.504   5.598
14602TIP3    H143683   6.566   5.434   5.548
14602TIP3    H243684   6.517   5.467   5.687
14603TIP3   OH243685   6.425   4.961   5.955
14603TIP3    H143686   6.462   4.887   5.904
14603TIP3    H243687   6.509   5.008   5.974
14604TIP3   OH243688   7.434   4.286   5.944
14604TIP3    H143689   7.466   4.366   5.991
14604TIP3    H243690   7.463   4.305   5.853
14605TIP3   OH243691   6.835   4.469   5.985
14605TIP3    H143692   6.882   4.385   6.004
14605TIP3    H243693   6.809   4.454   5.892
14606TIP3   OH243694   6.173   4.127   5.950
14606TIP3    H143695   6.155   4.198   5.884
14606TIP3    H243696   6.129   4.052   5.904
14607TIP3   OH243697   6.869   4.218   5.571
14607TIP3    H143698   6.942   4.202   5.635
14607TIP3    H243699   6.921   4.253   5.496
14608TIP3   OH243700   5.816   4.334   6.055
14608TIP3    H143701   5.895   4.299   6.102
14608TIP3    H243702   5.819   4.278   5.975
14609TIP3   OH243703   6.244   4.522   5.853
14609TIP3    H143704   6.339   4.502   5.863
14609TIP3    H243705   6.209   4.439   5.815
14610TIP3   OH243706   7.507   4.486   6.120
14610TIP3    H143707   7.428   4.540   6.101
14610TIP3    H243708   7.536   4.523   6.205
14611TIP3   OH243709   6.176   4.115   6.380
14611TIP3    H143710   6.108   4.138   6.315
14611TIP3    H243711   6.125   4.125   6.464
14612TIP3   OH243712   6.520   4.959   5.392
14612TIP3    H143713   6.484   4.938   5.305
14612TIP3    H243714   6.478   5.044   5.411
14613TIP3   OH243715   6.256   4.868   6.181
14613TIP3    H143716   6.207   4.945   6.216
14613TIP3    H243717   6.306   4.909   6.108
14614TIP3   OH243718   7.081   4.220   5.740
14614TIP3    H143719   7.081   4.167   5.821
14614TIP3    H243720   7.140   4.294   5.764
14615TIP3   OH243721   6.044   4.223   6.167
14615TIP3    H143722   6.103   4.299   6.181
14615TIP3    H243723   6.088   4.179   6.091
14616TIP3   OH243724   6.104   5.077   6.274
14616TIP3    H143725   6.082   5.163   6.233
14616TIP3    H243726   6.026   5.068   6.334
14617TIP3   OH243727   5.511   4.770   5.516
14617TIP3    H143728   5.460   4.799   5.439
14617TIP3    H243729   5.539   4.856   5.554
14618TIP3   OH243730   6.942   5.284   5.753
14618TIP3    H143731   6.851   5.276   5.790
14618TIP3    H243732   6.935   5.369   5.706
14619TIP3   OH243733   7.232   4.184   6.111
14619TIP3    H143734   7.146   4.219   6.082
14619TIP3    H243735   7.293   4.217   6.042
14620TIP3   OH243736   6.531   3.831   6.093
14620TIP3    H143737   6.522   3.735   6.112
14620TIP3    H243738   6.453   3.866   6.140
14621TIP3   OH243739   6.645   5.333   5.425
14621TIP3    H143740   6.694   5.250   5.404
14621TIP3    H243741   6.705   5.398   5.383
14622TIP3   OH243742   6.783   5.117   5.330
14622TIP3    H143743   6.757   5.037   5.284
14622TIP3    H243744   6.819   5.081   5.414
14623TIP3   OH243745   7.167   5.200   6.094
14623TIP3    H143746   7.160   5.121   6.035
14623TIP3    H243747   7.155   5.273   6.031
14624TIP3   OH243748   6.460   4.592   5.349
14624TIP3    H143749   6.380   4.643   5.326
14624TIP3    H243750   6.508   4.590   5.265
14625TIP3   OH243751   6.419   4.374   5.069
14625TIP3    H143752   6.487   4.425   5.118
14625TIP3    H243753   6.476   4.310   5.022
14626TIP3   OH243754   7.361   4.829   5.935
14626TIP3    H143755   7.282   4.887   5.941
14626TIP3    H243756   7.394   4.854   5.846
14627TIP3   OH243757   6.806   4.673   5.324
14627TIP3    H143758   6.753   4.699   5.403
14627TIP3    H243759   6.890   4.646   5.367
14628TIP3   OH243760   7.042   4.714   6.234
14628TIP3    H143761   7.042   4.798   6.284
14628TIP3    H243762   6.958   4.722   6.185
14629TIP3   OH243763   6.042   4.676   5.733
14629TIP3    H143764   5.999   4.614   5.672
14629TIP3    H243765   6.113   4.622   5.773
14630TIP3   OH243766   6.163   5.072   5.892
14630TIP3    H143767   6.151   5.038   5.802
14630TIP3    H243768   6.255   5.045   5.911
14631TIP3   OH243769   6.698   5.282   5.870
14631TIP3    H143770   6.688   5.360   5.927
14631TIP3    H243771   6.687   5.207   5.932
14632TIP3   OH243772   6.312   5.200   6.417
14632TIP3    H143773   6.255   5.264   6.465
14632TIP3    H243774   6.244   5.149   6.368
14633TIP3   OH243775   6.648   4.532   5.149
14633TIP3    H143776   6.708   4.590   5.202
14633TIP3    H243777   6.674   4.558   5.057
14634TIP3   OH243778   6.048   4.761   6.483
14634TIP3    H143779   6.065   4.843   6.536
14634TIP3    H243780   5.961   4.737   6.524
14635TIP3   OH243781   6.387   5.216   5.425
14635TIP3    H143782   6.468   5.267   5.444
14635TIP3    H243783   6.328   5.282   5.387
14636TIP3   OH243784   6.108   5.370   6.504
14636TIP3    H143785   6.073   5.367   6.413
14636TIP3    H243786   6.029   5.349   6.558
14637TIP3   OH243787   7.164   3.774   5.195
14637TIP3    H143788   7.083   3.794   5.247
14637TIP3    H243789   7.176   3.858   5.146
14638TIP3   OH243790   5.903   4.514   5.545
14638TIP3    H143791   5.841   4.561   5.486
14638TIP3    H243792   5.862   4.427   5.552
14639TIP3   OH243793   6.961   5.144   4.746
14639TIP3    H143794   6.956   5.241   4.733
14639TIP3    H243795   7.050   5.126   4.714
14640TIP3   OH243796   5.689   4.895   6.447
14640TIP3    H143797   5.614   4.876   6.388
14640TIP3    H243798   5.714   4.806   6.481
14641TIP3   OH243799   5.545   5.091   6.089
14641TIP3    H143800   5.640   5.103   6.079
14641TIP3    H243801   5.520   5.172   6.136
14642TIP3   OH243802   7.404   5.541   6.135
14642TIP3    H143803   7.406   5.444   6.148
14642TIP3    H243804   7.322   5.564   6.184
14643TIP3   OH243805   6.512   5.331   6.273
14643TIP3    H143806   6.512   5.423   6.306
14643TIP3    H243807   6.442   5.291   6.328
14644TIP3   OH243808   6.269   5.458   5.227
14644TIP3    H143809   6.225   5.440   5.142
14644TIP3    H243810   6.240   5.549   5.248
14645TIP3   OH243811   5.710   5.309   5.606
14645TIP3    H143812   5.755   5.298   5.693
14645TIP3    H243813   5.648   5.234   5.609
14646TIP3   OH243814   6.472   5.341   4.885
14646TIP3    H143815   6.540   5.284   4.841
14646TIP3    H243816   6.513   5.355   4.973
14647TIP3   OH243817   6.525   5.410   5.144
14647TIP3    H143818   6.437   5.418   5.187
14647TIP3    H243819   6.577   5.366   5.213
14648TIP3   OH243820   7.294   4.673   6.415
14648TIP3    H143821   7.218   4.686   6.356
14648TIP3    H243822   7.312   4.578   6.404
14649TIP3   OH243823   5.893   5.081   6.442
14649TIP3    H143824   5.942   5.066   6.526
14649TIP3    H243825   5.819   5.017   6.451
14650TIP3   OH243826   6.291   3.907   6.220
14650TIP3    H143827   6.202   3.874   6.197
14650TIP3    H243828   6.265   3.988   6.268
14651TIP3   OH243829   6.825   4.022   6.417
14651TIP3    H143830   6.894   3.994   6.481
14651TIP3    H243831   6.742   3.999   6.464
14652TIP3   OH243832   7.061   4.447   6.332
14652TIP3    H143833   7.018   4.445   6.420
14652TIP3    H243834   7.043   4.537   6.300
14653TIP3   OH243835   6.721   4.582   4.892
14653TIP3    H143836   6.692   4.553   4.803
14653TIP3    H243837   6.805   4.628   4.870
14654TIP3   OH243838   6.436   3.957   5.193
14654TIP3    H143839   6.406   3.955   5.286
14654TIP3    H243840   6.400   3.872   5.162
14655TIP3   OH243841   6.191   4.482   6.227
14655TIP3    H143842   6.187   4.443   6.317
14655TIP3    H243843   6.284   4.507   6.218
14656TIP3   OH243844   6.106   4.303   5.755
14656TIP3    H143845   6.013   4.278   5.771
14656TIP3    H243846   6.121   4.265   5.666
14657TIP3   OH243847   6.597   4.393   5.482
14657TIP3    H143848   6.544   4.464   5.441
14657TIP3    H243849   6.653   4.364   5.407
14658TIP3   OH243850   6.771   4.674   6.571
14658TIP3    H143851   6.751   4.600   6.633
14658TIP3    H243852   6.866   4.688   6.591
14659TIP3   OH243853   6.754   4.422   5.724
14659TIP3    H143854   6.698   4.453   5.650
14659TIP3    H243855   6.788   4.340   5.682
14660TIP3   OH243856   6.038   4.455   6.446
14660TIP3    H143857   6.057   4.512   6.522
14660TIP3    H243858   6.020   4.370   6.490
14661TIP3   OH243859   6.092   3.926   5.160
14661TIP3    H143860   6.087   3.923   5.258
14661TIP3    H243861   6.011   3.976   5.139
14662TIP3   OH243862   5.635   3.978   6.028
14662TIP3    H143863   5.713   4.002   6.082
14662TIP3    H243864   5.673   3.936   5.949
14663TIP3   OH243865   5.613   3.955   5.550
14663TIP3    H143866   5.659   3.994   5.472
14663TIP3    H243867   5.550   4.026   5.571
14664TIP3   OH243868   6.759   4.669   6.148
14664TIP3    H143869   6.796   4.598   6.089
14664TIP3    H243870   6.739   4.616   6.227
14665TIP3   OH243871   6.432   4.133   5.818
14665TIP3    H143872   6.351   4.127   5.872
14665TIP3    H243873   6.502   4.127   5.885
14666TIP3   OH243874   5.868   4.183   5.830
14666TIP3    H143875   5.774   4.189   5.802
14666TIP3    H243876   5.893   4.092   5.805
14667TIP3   OH243877   6.140   4.182   5.513
14667TIP3    H143878   6.235   4.197   5.493
14667TIP3    H243879   6.096   4.206   5.428
14668TIP3   OH243880   6.925   4.207   6.021
14668TIP3    H143881   6.888   4.216   6.111
14668TIP3    H243882   6.864   4.143   5.981
14669TIP3   OH243883   5.975   4.214   5.293
14669TIP3    H143884   5.902   4.171   5.244
14669TIP3    H243885   6.028   4.249   5.218
14670TIP3   OH243886   7.093   5.895   6.237
14670TIP3    H143887   7.094   5.915   6.141
14670TIP3    H243888   7.174   5.942   6.267
14671TIP3   OH243889   6.056   4.999   6.658
14671TIP3    H143890   6.134   5.032   6.707
14671TIP3    H243891   5.990   4.999   6.731
14672TIP3   OH243892   6.519   4.455   5.916
14672TIP3    H143893   6.589   4.420   5.858
14672TIP3    H243894   6.539   4.412   6.000
14673TIP3   OH243895   6.043   3.946   5.792
14673TIP3    H143896   6.010   3.865   5.836
14673TIP3    H243897   6.097   3.909   5.720
14674TIP3   OH243898   6.501   4.346   6.207
14674TIP3    H143899   6.418   4.390   6.224
14674TIP3    H243900   6.566   4.402   6.255
14675TIP3   OH243901   6.228   4.744   5.300
14675TIP3    H143902   6.155   4.679   5.291
14675TIP3    H243903   6.212   4.778   5.392
14676TIP3   OH243904   7.132   4.983   5.931
14676TIP3    H143905   7.159   5.030   5.848
14676TIP3    H243906   7.048   4.941   5.905
14677TIP3   OH243907   6.690   4.059   5.159
14677TIP3    H143908   6.593   4.044   5.167
14677TIP3    H243909   6.702   4.153   5.183
14678TIP3   OH243910   6.623   5.057   6.300
14678TIP3    H143911   6.658   5.042   6.389
14678TIP3    H243912   6.593   5.150   6.304
14679TIP3   OH243913   6.760   4.304   5.263
14679TIP3    H143914   6.857   4.309   5.280
14679TIP3    H243915   6.744   4.383   5.209
14680TIP3   OH243916   6.386   4.901   5.143
14680TIP3    H143917   6.334   4.984   5.138
14680TIP3    H243918   6.326   4.843   5.195
14681TIP3   OH243919   5.804   4.682   6.589
14681TIP3    H143920   5.823   4.672   6.684
14681TIP3    H243921   5.732   4.618   6.577
14682TIP3   OH243922   6.530   4.800   6.607
14682TIP3    H143923   6.481   4.738   6.552
14682TIP3    H243924   6.622   4.773   6.588
14683TIP3   OH243925   6.791   5.322   6.193
14683TIP3    H143926   6.694   5.323   6.204
14683TIP3    H243927   6.819   5.374   6.271
14684TIP3   OH243928   7.201   4.392   5.103
14684TIP3    H143929   7.138   4.347   5.041
14684TIP3    H243930   7.200   4.481   5.059
14685TIP3   OH243931   7.419   5.253   6.182
14685TIP3    H143932   7.321   5.246   6.174
14685TIP3    H243933   7.446   5.222   6.093
14686TIP3   OH243934   6.899   5.213   5.010
14686TIP3    H143935   6.879   5.141   5.071
14686TIP3    H243936   6.909   5.168   4.924
14687TIP3   OH243937   6.897   4.843   5.852
14687TIP3    H143938   6.803   4.816   5.861
14687TIP3    H243939   6.933   4.764   5.806
14688TIP3   OH243940   6.022   5.071   5.606
14688TIP3    H143941   6.028   5.151   5.550
14688TIP3    H243942   5.927   5.052   5.600
14689TIP3   OH243943   5.585   4.377   5.299
14689TIP3    H143944   5.631   4.459   5.325
14689TIP3    H243945   5.507   4.380   5.360
14690TIP3   OH243946   6.165   4.839   5.546
14690TIP3    H143947   6.129   4.927   5.566
14690TIP3    H243948   6.128   4.786   5.620
14691TIP3   OH243949   6.293   5.414   6.070
14691TIP3    H143950   6.333   5.486   6.019
14691TIP3    H243951   6.370   5.380   6.119
14692TIP3   OH243952   5.945   5.308   5.454
14692TIP3    H143953   5.858   5.316   5.499
14692TIP3    H243954   5.975   5.402   5.456
14693TIP3   OH243955   6.684   5.050   6.028
14693TIP3    H143956   6.676   5.044   6.126
14693TIP3    H243957   6.764   4.997   6.012
14694TIP3   OH243958   6.657   4.941   4.907
14694TIP3    H143959   6.707   4.917   4.988
14694TIP3    H243960   6.566   4.919   4.933
14695TIP3   OH243961   6.929   5.586   6.082
14695TIP3    H143962   6.852   5.527   6.072
14695TIP3    H243963   6.915   5.649   6.008
14696TIP3   OH243964   6.993   5.418   4.726
14696TIP3    H143965   7.038   5.493   4.682
14696TIP3    H243966   6.915   5.465   4.761
14697TIP3   OH243967   6.016   4.194   6.596
14697TIP3    H143968   5.920   4.200   6.613
14697TIP3    H243969   6.045   4.134   6.666
14698TIP3   OH243970   6.814   4.878   5.132
14698TIP3    H143971   6.805   4.809   5.200
14698TIP3    H243972   6.911   4.875   5.116
14699TIP3   OH243973   5.735   5.279   6.229
14699TIP3    H143974   5.785   5.203   6.263
14699TIP3    H243975   5.759   5.347   6.293
14700TIP3   OH243976   5.963   4.923   5.187
14700TIP3    H143977   6.043   4.898   5.234
14700TIP3    H243978   5.974   5.020   5.179
14701TIP3   OH243979   5.703   4.621   5.382
14701TIP3    H143980   5.640   4.663   5.445
14701TIP3    H243981   5.715   4.697   5.320
14702TIP3   OH243982   6.844   4.261   6.281
14702TIP3    H143983   6.929   4.297   6.312
14702TIP3    H243984   6.836   4.178   6.333
14703TIP3   OH243985   6.729   4.012   5.440
14703TIP3    H143986   6.718   4.035   5.346
14703TIP3    H243987   6.770   4.093   5.477
14704TIP3   OH243988   6.232   5.124   5.126
14704TIP3    H143989   6.145   5.150   5.163
14704TIP3    H243990   6.256   5.206   5.080
14705TIP3   OH243991   6.422   4.187   5.544
14705TIP3    H143992   6.488   4.257   5.525
14705TIP3    H243993   6.428   4.180   5.642
14706TIP3   OH243994   6.687   4.505   6.357
14706TIP3    H143995   6.713   4.558   6.435
14706TIP3    H243996   6.748   4.429   6.364
14707TIP3   OH243997   6.568   3.918   5.648
14707TIP3    H143998   6.566   3.993   5.710
14707TIP3    H243999   6.627   3.954   5.578
14708TIP3   OH244000   5.978   5.200   5.197
14708TIP3    H144001   5.944   5.268   5.135
14708TIP3    H244002   5.960   5.242   5.284
14709TIP3   OH244003   6.078   3.912   5.437
14709TIP3    H144004   6.076   4.002   5.473
14709TIP3    H244005   6.174   3.893   5.446
14710TIP3   OH244006   7.331   4.408   6.338
14710TIP3    H144007   7.233   4.402   6.337
14710TIP3    H244008   7.351   4.376   6.249
14711TIP3   OH244009   6.982   4.604   5.724
14711TIP3    H144010   6.909   4.540   5.733
14711TIP3    H244011   7.056   4.557   5.769
14712TIP3   OH244012   5.698   4.830   5.200
14712TIP3    H144013   5.752   4.907   5.224
14712TIP3    H244014   5.740   4.809   5.116
14713TIP3   OH244015   5.641   4.106   5.321
14713TIP3    H144016   5.636   4.204   5.319
14713TIP3    H244017   5.552   4.081   5.293
14714TIP3   OH244018   6.949   5.557   5.673
14714TIP3    H144019   6.908   5.604   5.597
14714TIP3    H244020   7.044   5.575   5.653
14715TIP3   OH244021   6.026   3.827   6.200
14715TIP3    H144022   5.995   3.792   6.114
14715TIP3    H244023   6.017   3.748   6.258
14716TIP3   OH244024   5.570   5.047   5.587
14716TIP3    H144025   5.490   5.077   5.632
14716TIP3    H244026   5.551   5.081   5.497
14717TIP3   OH244027   5.721   5.583   6.649
14717TIP3    H144028   5.806   5.581   6.697
14717TIP3    H244029   5.698   5.488   6.649
14718TIP3   OH244030   6.208   5.555   6.691
14718TIP3    H144031   6.301   5.529   6.703
14718TIP3    H244032   6.182   5.495   6.618
14719TIP3   OH244033   6.842   5.457   6.429
14719TIP3    H144034   6.834   5.386   6.496
14719TIP3    H244035   6.921   5.505   6.458
14720TIP3   OH244036   6.636   5.189   4.730
14720TIP3    H144037   6.658   5.106   4.776
14720TIP3    H244038   6.661   5.168   4.638
14721TIP3   OH244039   5.855   4.993   6.849
14721TIP3    H144040   5.870   4.897   6.859
14721TIP3    H244041   5.765   4.994   6.809
14722TIP3   OH244042   5.808   4.623   5.010
14722TIP3    H144043   5.850   4.599   5.095
14722TIP3    H244044   5.888   4.651   4.962
14723TIP3   OH244045   6.462   5.076   6.624
14723TIP3    H144046   6.422   5.090   6.536
14723TIP3    H244047   6.495   4.984   6.618
14724TIP3   OH244048   6.320   4.844   4.884
14724TIP3    H144049   6.346   4.861   4.976
14724TIP3    H244050   6.346   4.750   4.874
14725TIP3   OH244051   6.952   5.083   6.229
14725TIP3    H144052   7.029   5.125   6.185
14725TIP3    H244053   6.884   5.151   6.215
14726TIP3   OH244054   5.978   4.723   6.827
14726TIP3    H144055   6.044   4.654   6.822
14726TIP3    H244056   5.995   4.758   6.917
14727TIP3   OH244057   6.036   4.544   5.266
14727TIP3    H144058   6.013   4.503   5.350
14727TIP3    H244059   6.075   4.469   5.216
14728TIP3   OH244060   6.297   4.598   6.471
14728TIP3    H144061   6.242   4.671   6.504
14728TIP3    H244062   6.361   4.646   6.413
14729TIP3   OH244063   6.138   4.338   5.111
14729TIP3    H144064   6.110   4.332   5.017
14729TIP3    H244065   6.235   4.344   5.101
14730TIP3   OH244066   6.822   5.010   6.626
14730TIP3    H144067   6.906   4.993   6.582
14730TIP3    H244068   6.824   4.945   6.699
14731TIP3   OH244069   6.958   4.669   4.772
14731TIP3    H144070   6.943   4.626   4.685
14731TIP3    H244071   6.931   4.760   4.748
14732TIP3   OH244072   6.428   4.398   6.623
14732TIP3    H144073   6.433   4.314   6.573
14732TIP3    H244074   6.384   4.457   6.559
14733TIP3   OH244075   6.432   4.188   6.431
14733TIP3    H144076   6.466   4.215   6.343
14733TIP3    H244077   6.341   4.158   6.411
14734TIP3   OH244078   6.457   4.714   6.292
14734TIP3    H144079   6.545   4.723   6.253
14734TIP3    H244080   6.409   4.788   6.250
14735TIP3   OH244081   7.045   4.689   6.683
14735TIP3    H144082   7.091   4.604   6.693
14735TIP3    H244083   7.115   4.745   6.648
14736TIP3   OH244084   7.084   4.940   6.418
14736TIP3    H144085   7.028   4.994   6.358
14736TIP3    H244086   7.173   4.959   6.379
14737TIP3   OH244087   6.300   4.517   6.842
14737TIP3    H144088   6.236   4.447   6.864
14737TIP3    H244089   6.343   4.480   6.763
14738TIP3   OH244090   6.565   3.949   6.492
14738TIP3    H144091   6.515   4.031   6.474
14738TIP3    H244092   6.496   3.881   6.482
14739TIP3   OH244093   6.690   4.457   6.711
14739TIP3    H144094   6.685   4.444   6.808
14739TIP3    H244095   6.600   4.428   6.686
14740TIP3   OH244096   6.931   4.405   6.566
14740TIP3    H144097   6.856   4.402   6.628
14740TIP3    H244098   7.005   4.372   6.622
14741TIP3   OH244099   7.156   4.341   6.718
14741TIP3    H144100   7.171   4.246   6.736
14741TIP3    H244101   7.155   4.381   6.807
14742TIP3   OH244102   6.151   4.293   6.901
14742TIP3    H144103   6.155   4.201   6.868
14742TIP3    H244104   6.184   4.280   6.992
14743TIP3   OH244105   6.661   3.960   6.749
14743TIP3    H144106   6.729   3.889   6.746
14743TIP3    H244107   6.621   3.950   6.660
14744TIP3   OH244108   6.725   4.173   6.910
14744TIP3    H144109   6.703   4.102   6.846
14744TIP3    H244110   6.647   4.232   6.903
14745TIP3   OH244111   5.940   5.401   5.009
14745TIP3    H144112   6.037   5.403   4.996
14745TIP3    H244113   5.912   5.449   4.928
14746TIP3   OH244114   5.335   5.394   5.638
14746TIP3    H144115   5.270   5.329   5.602
14746TIP3    H244116   5.381   5.339   5.704
14747TIP3   OH244117   5.476   5.254   5.825
14747TIP3    H144118   5.459   5.178   5.882
14747TIP3    H244119   5.525   5.312   5.887
14748TIP3   OH244120   7.199   5.655   5.626
14748TIP3    H144121   7.233   5.684   5.712
14748TIP3    H244122   7.266   5.688   5.564
14749TIP3   OH244123   7.234   5.670   5.910
14749TIP3    H144124   7.190   5.582   5.903
14749TIP3    H244125   7.310   5.645   5.965
14750TIP3   OH244126   7.277   5.346   6.480
14750TIP3    H144127   7.205   5.353   6.546
14750TIP3    H244128   7.319   5.435   6.487
14751TIP3   OH244129   7.093   4.860   5.103
14751TIP3    H144130   7.163   4.923   5.075
14751TIP3    H244131   7.136   4.819   5.181
14752TIP3   OH244132   7.221   4.728   5.306
14752TIP3    H144133   7.159   4.684   5.367
14752TIP3    H244134   7.290   4.763   5.366
14753TIP3   OH244135   7.271   5.114   5.735
14753TIP3    H144136   7.330   5.051   5.688
14753TIP3    H244137   7.268   5.190   5.673
14754TIP3   OH244138   7.110   5.419   5.933
14754TIP3    H144139   7.038   5.457   5.986
14754TIP3    H244140   7.061   5.368   5.864
14755TIP3   OH244141   7.161   4.632   4.955
14755TIP3    H144142   7.089   4.635   4.888
14755TIP3    H244143   7.136   4.709   5.009
14756TIP3   OH244144   7.028   4.307   4.912
14756TIP3    H144145   6.996   4.348   4.830
14756TIP3    H244146   7.003   4.213   4.898
14757TIP3   OH244147   7.036   4.581   5.453
14757TIP3    H144148   7.048   4.485   5.449
14757TIP3    H244149   7.025   4.596   5.550
14758TIP3   OH244150   5.661   4.641   6.199
14758TIP3    H144151   5.656   4.609   6.106
14758TIP3    H244152   5.736   4.701   6.194
14759TIP3   OH244153   7.326   5.006   6.308
14759TIP3    H144154   7.399   4.940   6.303
14759TIP3    H244155   7.356   5.073   6.245
14760TIP3   OH244156   7.511   4.815   6.342
14760TIP3    H144157   7.437   4.760   6.374
14760TIP3    H244158   7.585   4.751   6.346
14761TIP3   OH244159   6.976   4.040   4.894
14761TIP3    H144160   7.054   4.012   4.946
14761TIP3    H244161   6.906   3.980   4.924
14762TIP3   OH244162   7.032   4.297   5.348
14762TIP3    H144163   7.073   4.209   5.364
14762TIP3    H244164   7.091   4.331   5.279
14763TIP3   OH244165   7.195   4.477   5.842
14763TIP3    H144166   7.281   4.502   5.801
14763TIP3    H244167   7.211   4.510   5.932
14764TIP3   OH244168   7.262   4.616   6.078
14764TIP3    H144169   7.184   4.652   6.123
14764TIP3    H244170   7.296   4.695   6.030
14765TIP3   OH244171   5.884   4.346   6.877
14765TIP3    H144172   5.981   4.335   6.878
14765TIP3    H244173   5.855   4.261   6.916
14766TIP3   OH244174   7.713   4.203   6.633
14766TIP3    H144175   7.773   4.138   6.590
14766TIP3    H244176   7.689   4.261   6.558
14767TIP3   OH244177   7.140   4.047   5.387
14767TIP3    H144178   7.192   4.031   5.469
14767TIP3    H244179   7.082   3.969   5.386
14768TIP3   OH244180   5.841   4.033   6.204
14768TIP3    H144181   5.900   3.955   6.216
14768TIP3    H244182   5.906   4.105   6.201
14769TIP3   OH244183   5.646   4.306   6.279
14769TIP3    H144184   5.694   4.296   6.195
14769TIP3    H244185   5.672   4.394   6.306
14770TIP3   OH244186   7.587   4.349   6.441
14770TIP3    H144187   7.497   4.384   6.455
14770TIP3    H244188   7.566   4.276   6.379
14771TIP3   OH244189   7.224   3.985   5.015
14771TIP3    H144190   7.268   3.912   4.968
14771TIP3    H244191   7.291   4.056   5.012
14772TIP3   OH244192   5.628   3.817   5.783
14772TIP3    H144193   5.533   3.810   5.805
14772TIP3    H244194   5.626   3.872   5.701
14773TIP3   OH244195   6.787   5.516   5.286
14773TIP3    H144196   6.835   5.496   5.203
14773TIP3    H244197   6.847   5.579   5.327
14774TIP3   OH244198   5.849   3.895   6.594
14774TIP3    H144199   5.799   3.884   6.677
14774TIP3    H244200   5.779   3.930   6.536
14775TIP3   OH244201   5.889   5.316   6.672
14775TIP3    H144202   5.796   5.289   6.655
14775TIP3    H244203   5.898   5.298   6.766
14776TIP3   OH244204   6.066   5.347   6.218
14776TIP3    H144205   6.016   5.422   6.180
14776TIP3    H244206   6.152   5.363   6.174
14777TIP3   OH244207   6.513   5.597   6.357
14777TIP3    H144208   6.555   5.596   6.445
14777TIP3    H244209   6.580   5.646   6.304
14778TIP3   OH244210   6.692   5.747   6.212
14778TIP3    H144211   6.762   5.694   6.171
14778TIP3    H244212   6.744   5.802   6.274
14779TIP3   OH244213   7.484   4.110   6.316
14779TIP3    H144214   7.394   4.104   6.281
14779TIP3    H244215   7.516   4.017   6.302
14780TIP3   OH244216   5.744   5.609   6.240
14780TIP3    H144217   5.656   5.643   6.216
14780TIP3    H244218   5.749   5.637   6.332
14781TIP3   OH244219   5.980   5.586   6.099
14781TIP3    H144220   5.894   5.599   6.144
14781TIP3    H244221   5.959   5.619   6.009
14782TIP3   OH244222   6.405   5.617   5.897
14782TIP3    H144223   6.337   5.637   5.830
14782TIP3    H244224   6.418   5.705   5.939
14783TIP3   OH244225   6.674   5.557   5.949
14783TIP3    H144226   6.579   5.572   5.927
14783TIP3    H244227   6.717   5.632   5.904
14784TIP3   OH244228   6.883   5.749   5.864
14784TIP3    H144229   6.868   5.833   5.815
14784TIP3    H244230   6.909   5.688   5.792
14785TIP3   OH244231   5.655   5.404   5.988
14785TIP3    H144232   5.682   5.378   6.078
14785TIP3    H244233   5.727   5.360   5.936
14786TIP3   OH244234   5.847   5.276   5.842
14786TIP3    H144235   5.867   5.193   5.891
14786TIP3    H244236   5.937   5.315   5.835
14787TIP3   OH244237   6.112   5.372   5.844
14787TIP3    H144238   6.147   5.283   5.826
14787TIP3    H244239   6.155   5.390   5.930
14788TIP3   OH244240   6.685   4.023   5.929
14788TIP3    H144241   6.646   3.953   5.984
14788TIP3    H244242   6.760   3.977   5.887
14789TIP3   OH244243   7.214   3.903   5.839
14789TIP3    H144244   7.253   3.955   5.765
14789TIP3    H244245   7.119   3.924   5.832
14790TIP3   OH244246   7.308   4.006   5.603
14790TIP3    H144247   7.381   3.954   5.563
14790TIP3    H244248   7.343   4.097   5.588
14791TIP3   OH244249   5.939   3.734   5.951
14791TIP3    H144250   5.848   3.700   5.952
14791TIP3    H244251   5.989   3.650   5.948
14792TIP3   OH244252   5.723   3.602   5.596
14792TIP3    H144253   5.754   3.660   5.525
14792TIP3    H244254   5.694   3.666   5.664
14793TIP3   OH244255   6.379   3.770   5.830
14793TIP3    H144256   6.440   3.818   5.772
14793TIP3    H244257   6.405   3.801   5.917
14794TIP3   OH244258   6.928   3.913   5.816
14794TIP3    H144259   6.929   3.877   5.726
14794TIP3    H244260   6.915   3.830   5.869
14795TIP3   OH244261   6.959   3.832   5.376
14795TIP3    H144262   6.872   3.874   5.385
14795TIP3    H244263   6.945   3.748   5.424
14796TIP3   OH244264   5.440   5.165   5.384
14796TIP3    H144265   5.357   5.131   5.346
14796TIP3    H244266   5.431   5.258   5.360
14797TIP3   OH244267   5.841   3.765   5.361
14797TIP3    H144268   5.890   3.700   5.306
14797TIP3    H244269   5.914   3.817   5.398
14798TIP3   OH244270   6.355   3.936   5.460
14798TIP3    H144271   6.415   3.890   5.521
14798TIP3    H244272   6.377   4.029   5.485
14799TIP3   OH244273   6.212   5.364   4.962
14799TIP3    H144274   6.306   5.376   4.935
14799TIP3    H244275   6.180   5.309   4.890
14800TIP3   OH244276   6.929   5.479   5.053
14800TIP3    H144277   6.923   5.382   5.039
14800TIP3    H244278   6.889   5.512   4.970
14801TIP3   OH244279   6.147   4.018   6.842
14801TIP3    H144280   6.112   3.946   6.897
14801TIP3    H244281   6.242   4.016   6.869
14802TIP3   OH244282   6.396   4.012   6.960
14802TIP3    H144283   6.481   3.983   6.922
14802TIP3    H244284   6.381   3.943   7.028
14803TIP3   OH244285   7.219   4.072   6.748
14803TIP3    H144286   7.240   4.040   6.839
14803TIP3    H244287   7.307   4.068   6.705
14804TIP3   OH244288   7.160   5.626   6.242
14804TIP3    H144289   7.081   5.592   6.194
14804TIP3    H244290   7.140   5.722   6.243
14805TIP3   OH244291   8.427   4.998   5.008
14805TIP3    H144292   8.397   5.089   4.985
14805TIP3    H244293   8.349   4.947   4.980
14806TIP3   OH244294   8.425   5.003   5.389
14806TIP3    H144295   8.453   4.965   5.474
14806TIP3    H244296   8.382   4.926   5.349
14807TIP3   OH244297   7.729   4.895   5.750
14807TIP3    H144298   7.753   4.823   5.812
14807TIP3    H244299   7.811   4.946   5.750
14808TIP3   OH244300   8.663   5.295   5.069
14808TIP3    H144301   8.657   5.222   5.132
14808TIP3    H244302   8.702   5.367   5.121
14809TIP3   OH244303   7.694   5.300   5.483
14809TIP3    H144304   7.687   5.201   5.483
14809TIP3    H244305   7.791   5.308   5.474
14810TIP3   OH244306   7.399   4.505   5.266
14810TIP3    H144307   7.353   4.590   5.276
14810TIP3    H244308   7.329   4.451   5.226
14811TIP3   OH244309   7.464   4.788   5.433
14811TIP3    H144310   7.514   4.712   5.471
14811TIP3    H244311   7.525   4.818   5.363
14812TIP3   OH244312   8.310   5.760   5.082
14812TIP3    H144313   8.359   5.690   5.032
14812TIP3    H244314   8.305   5.723   5.170
14813TIP3   OH244315   8.220   5.224   5.432
14813TIP3    H144316   8.242   5.142   5.386
14813TIP3    H244317   8.310   5.252   5.457
14814TIP3   OH244318   9.233   4.544   5.432
14814TIP3    H144319   9.263   4.626   5.476
14814TIP3    H244320   9.257   4.563   5.340
14815TIP3   OH244321   8.643   4.728   5.469
14815TIP3    H144322   8.681   4.640   5.487
14815TIP3    H244323   8.604   4.713   5.381
14816TIP3   OH244324   7.989   4.356   5.421
14816TIP3    H144325   7.963   4.449   5.432
14816TIP3    H244326   7.910   4.318   5.378
14817TIP3   OH244327   8.666   4.470   5.057
14817TIP3    H144328   8.739   4.455   5.122
14817TIP3    H244329   8.717   4.509   4.983
14818TIP3   OH244330   7.621   4.585   5.546
14818TIP3    H144331   7.714   4.602   5.568
14818TIP3    H244332   7.631   4.525   5.468
14819TIP3   OH244333   8.048   4.788   5.304
14819TIP3    H144334   8.120   4.769   5.366
14819TIP3    H244335   8.005   4.700   5.296
14820TIP3   OH244336   9.309   4.751   5.602
14820TIP3    H144337   9.225   4.797   5.583
14820TIP3    H244338   9.317   4.766   5.697
14821TIP3   OH244339   7.966   4.370   5.857
14821TIP3    H144340   7.952   4.447   5.797
14821TIP3    H244341   7.912   4.394   5.935
14822TIP3   OH244342   8.315   5.217   4.880
14822TIP3    H144343   8.278   5.194   4.794
14822TIP3    H244344   8.271   5.302   4.899
14823TIP3   OH244345   8.082   5.144   5.679
14823TIP3    H144346   8.010   5.204   5.708
14823TIP3    H244347   8.107   5.182   5.593
14824TIP3   OH244348   8.880   4.474   5.226
14824TIP3    H144349   8.867   4.428   5.310
14824TIP3    H244350   8.933   4.551   5.253
14825TIP3   OH244351   7.900   5.336   5.763
14825TIP3    H144352   7.873   5.420   5.721
14825TIP3    H244353   7.822   5.320   5.820
14826TIP3   OH244354   7.300   5.028   5.004
14826TIP3    H144355   7.282   5.058   4.914
14826TIP3    H244356   7.337   5.108   5.046
14827TIP3   OH244357   8.739   5.531   5.224
14827TIP3    H144358   8.654   5.538   5.271
14827TIP3    H244359   8.744   5.616   5.177
14828TIP3   OH244360   9.029   4.444   5.600
14828TIP3    H144361   8.941   4.474   5.571
14828TIP3    H244362   9.086   4.475   5.527
14829TIP3   OH244363   8.330   4.089   5.581
14829TIP3    H144364   8.317   3.994   5.596
14829TIP3    H244365   8.251   4.126   5.626
14830TIP3   OH244366   8.446   5.589   4.921
14830TIP3    H144367   8.492   5.506   4.893
14830TIP3    H244368   8.503   5.654   4.874
14831TIP3   OH244369   8.578   5.374   4.817
14831TIP3    H144370   8.553   5.295   4.767
14831TIP3    H244371   8.612   5.335   4.900
14832TIP3   OH244372   8.955   5.455   5.587
14832TIP3    H144373   8.956   5.375   5.530
14832TIP3    H244374   8.941   5.526   5.522
14833TIP3   OH244375   8.256   4.847   4.836
14833TIP3    H144376   8.176   4.899   4.815
14833TIP3    H244377   8.303   4.848   4.750
14834TIP3   OH244378   8.216   4.631   4.556
14834TIP3    H144379   8.283   4.681   4.606
14834TIP3    H244380   8.274   4.568   4.508
14835TIP3   OH244381   9.160   5.093   5.426
14835TIP3    H144382   9.078   5.145   5.431
14835TIP3    H244383   9.189   5.114   5.334
14836TIP3   OH244384   8.603   4.929   4.810
14836TIP3    H144385   8.548   4.955   4.888
14836TIP3    H244386   8.686   4.903   4.855
14837TIP3   OH244387   8.841   4.973   5.717
14837TIP3    H144388   8.833   5.054   5.769
14837TIP3    H244389   8.753   4.971   5.674
14838TIP3   OH244390   7.834   4.932   5.225
14838TIP3    H144391   7.796   4.872   5.159
14838TIP3    H244392   7.915   4.881   5.252
14839TIP3   OH244393   7.964   5.343   5.374
14839TIP3    H144394   7.941   5.296   5.292
14839TIP3    H244395   8.054   5.307   5.393
14840TIP3   OH244396   8.527   5.548   5.415
14840TIP3    H144397   8.447   5.597   5.387
14840TIP3    H244398   8.491   5.457   5.427
14841TIP3   OH244399   8.109   5.459   5.903
14841TIP3    H144400   8.047   5.520   5.948
14841TIP3    H244401   8.045   5.403   5.854
14842TIP3   OH244402   8.447   4.787   4.635
14842TIP3    H144403   8.504   4.847   4.688
14842TIP3    H244404   8.472   4.813   4.543
14843TIP3   OH244405   7.864   5.022   6.000
14843TIP3    H144406   7.862   5.104   6.052
14843TIP3    H244407   7.771   4.994   6.004
14844TIP3   OH244408   8.184   5.475   4.920
14844TIP3    H144409   8.264   5.530   4.929
14844TIP3    H244410   8.125   5.529   4.866
14845TIP3   OH244411   7.903   5.631   5.991
14845TIP3    H144412   7.870   5.624   5.899
14845TIP3    H244413   7.824   5.606   6.043
14846TIP3   OH244414   8.960   4.030   4.682
14846TIP3    H144415   8.879   4.051   4.734
14846TIP3    H244416   8.973   4.114   4.634
14847TIP3   OH244417   7.701   4.773   5.031
14847TIP3    H144418   7.637   4.816   4.970
14847TIP3    H244419   7.663   4.686   5.042
14848TIP3   OH244420   8.758   5.398   4.237
14848TIP3    H144421   8.765   5.493   4.213
14848TIP3    H244422   8.849   5.367   4.219
14849TIP3   OH244423   7.482   5.158   5.936
14849TIP3    H144424   7.422   5.129   5.865
14849TIP3    H244425   7.519   5.073   5.969
14850TIP3   OH244426   7.337   5.346   5.574
14850TIP3    H144427   7.432   5.335   5.558
14850TIP3    H244428   7.336   5.427   5.627
14851TIP3   OH244429   9.209   5.797   5.630
14851TIP3    H144430   9.207   5.700   5.640
14851TIP3    H244431   9.125   5.822   5.675
14852TIP3   OH244432   8.294   5.592   5.749
14852TIP3    H144433   8.305   5.680   5.791
14852TIP3    H244434   8.231   5.549   5.811
14853TIP3   OH244435   8.063   5.713   4.715
14853TIP3    H144436   8.024   5.690   4.628
14853TIP3    H244437   8.037   5.806   4.727
14854TIP3   OH244438   7.504   5.566   5.096
14854TIP3    H144439   7.554   5.554   5.180
14854TIP3    H244440   7.449   5.486   5.098
14855TIP3   OH244441   8.269   5.617   4.355
14855TIP3    H144442   8.327   5.546   4.316
14855TIP3    H244443   8.305   5.623   4.445
14856TIP3   OH244444   8.318   5.666   4.625
14856TIP3    H144445   8.230   5.671   4.669
14856TIP3    H244446   8.371   5.619   4.691
14857TIP3   OH244447   9.095   4.933   5.897
14857TIP3    H144448   9.009   4.944   5.853
14857TIP3    H244449   9.107   4.836   5.890
14858TIP3   OH244450   7.686   5.343   5.932
14858TIP3    H144451   7.739   5.320   6.011
14858TIP3    H244452   7.615   5.276   5.935
14859TIP3   OH244453   8.089   4.158   5.708
14859TIP3    H144454   7.997   4.133   5.685
14859TIP3    H244455   8.070   4.249   5.739
14860TIP3   OH244456   8.621   4.276   5.903
14860TIP3    H144457   8.688   4.252   5.970
14860TIP3    H244458   8.536   4.258   5.949
14861TIP3   OH244459   8.865   4.708   5.826
14861TIP3    H144460   8.815   4.700   5.910
14861TIP3    H244461   8.833   4.793   5.790
14862TIP3   OH244462   8.519   4.835   4.377
14862TIP3    H144463   8.488   4.810   4.288
14862TIP3    H244464   8.598   4.889   4.354
14863TIP3   OH244465   8.233   4.213   4.680
14863TIP3    H144466   8.203   4.212   4.773
14863TIP3    H244467   8.196   4.128   4.650
14864TIP3   OH244468   7.895   4.565   5.240
14864TIP3    H144469   7.808   4.528   5.264
14864TIP3    H244470   7.914   4.518   5.156
14865TIP3   OH244471   8.394   4.649   4.968
14865TIP3    H144472   8.338   4.720   4.930
14865TIP3    H244473   8.447   4.622   4.892
14866TIP3   OH244474   8.567   4.928   6.070
14866TIP3    H144475   8.563   4.884   6.158
14866TIP3    H244476   8.662   4.950   6.072
14867TIP3   OH244477   8.560   4.680   5.207
14867TIP3    H144478   8.495   4.711   5.140
14867TIP3    H244479   8.587   4.597   5.164
14868TIP3   OH244480   7.799   4.721   5.968
14868TIP3    H144481   7.880   4.768   5.993
14868TIP3    H244482   7.823   4.629   5.988
14869TIP3   OH244483   7.886   4.181   4.647
14869TIP3    H144484   7.882   4.181   4.744
14869TIP3    H244485   7.809   4.237   4.625
14870TIP3   OH244486   7.432   4.229   5.518
14870TIP3    H144487   7.507   4.262   5.572
14870TIP3    H244488   7.475   4.199   5.437
14871TIP3   OH244489   7.406   4.209   5.037
14871TIP3    H144490   7.452   4.248   4.960
14871TIP3    H244491   7.347   4.284   5.060
14872TIP3   OH244492   8.574   4.933   5.629
14872TIP3    H144493   8.601   4.856   5.574
14872TIP3    H244494   8.542   4.886   5.710
14873TIP3   OH244495   8.232   4.384   5.301
14873TIP3    H144496   8.144   4.378   5.346
14873TIP3    H244497   8.291   4.388   5.378
14874TIP3   OH244498   7.663   4.435   5.319
14874TIP3    H144499   7.569   4.443   5.288
14874TIP3    H244500   7.690   4.347   5.287
14875TIP3   OH244501   7.937   4.432   4.999
14875TIP3    H144502   8.031   4.454   4.984
14875TIP3    H244503   7.892   4.462   4.917
14876TIP3   OH244504   8.723   4.460   5.502
14876TIP3    H144505   8.691   4.472   5.595
14876TIP3    H244506   8.656   4.399   5.468
14877TIP3   OH244507   7.771   4.471   4.779
14877TIP3    H144508   7.701   4.428   4.727
14877TIP3    H244509   7.825   4.508   4.706
14878TIP3   OH244510   8.889   6.150   5.721
14878TIP3    H144511   8.888   6.172   5.626
14878TIP3    H244512   8.969   6.198   5.751
14879TIP3   OH244513   7.846   5.265   6.148
14879TIP3    H144514   7.929   5.291   6.194
14879TIP3    H244515   7.784   5.260   6.223
14880TIP3   OH244516   8.329   4.733   5.403
14880TIP3    H144517   8.381   4.669   5.353
14880TIP3    H244518   8.306   4.684   5.483
14881TIP3   OH244519   7.817   4.202   5.265
14881TIP3    H144520   7.802   4.122   5.318
14881TIP3    H244521   7.894   4.177   5.211
14882TIP3   OH244522   8.027   5.001   4.787
14882TIP3    H144523   7.954   4.937   4.775
14882TIP3    H244524   8.010   5.035   4.878
14883TIP3   OH244525   8.928   5.241   5.418
14883TIP3    H144526   8.955   5.285   5.334
14883TIP3    H244527   8.845   5.195   5.392
14884TIP3   OH244528   8.486   4.316   4.642
14884TIP3    H144529   8.389   4.302   4.653
14884TIP3    H244530   8.499   4.409   4.669
14885TIP3   OH244531   8.461   5.342   5.785
14885TIP3    H144532   8.438   5.277   5.854
14885TIP3    H244533   8.391   5.409   5.794
14886TIP3   OH244534   8.557   4.559   4.748
14886TIP3    H144535   8.653   4.567   4.766
14886TIP3    H244536   8.538   4.640   4.696
14887TIP3   OH244537   7.720   5.022   5.464
14887TIP3    H144538   7.762   4.993   5.379
14887TIP3    H244539   7.751   4.953   5.525
14888TIP3   OH244540   8.175   5.153   4.612
14888TIP3    H144541   8.127   5.239   4.618
14888TIP3    H244542   8.118   5.097   4.668
14889TIP3   OH244543   7.588   4.956   6.082
14889TIP3    H144544   7.627   4.934   6.169
14889TIP3    H244545   7.542   4.873   6.060
14890TIP3   OH244546   8.321   5.056   6.095
14890TIP3    H144547   8.261   5.004   6.039
14890TIP3    H244548   8.407   5.016   6.068
14891TIP3   OH244549   8.999   4.649   4.588
14891TIP3    H144550   8.936   4.604   4.527
14891TIP3    H244551   8.996   4.738   4.546
14892TIP3   OH244552   9.212   5.508   5.671
14892TIP3    H144553   9.115   5.500   5.665
14892TIP3    H244554   9.239   5.478   5.581
14893TIP3   OH244555   8.697   5.470   4.497
14893TIP3    H144556   8.675   5.394   4.552
14893TIP3    H244557   8.711   5.431   4.409
14894TIP3   OH244558   8.692   5.100   5.336
14894TIP3    H144559   8.600   5.069   5.350
14894TIP3    H244560   8.730   5.021   5.293
14895TIP3   OH244561   7.819   5.329   5.095
14895TIP3    H144562   7.825   5.406   5.036
14895TIP3    H244563   7.726   5.306   5.087
14896TIP3   OH244564   7.383   4.631   4.786
14896TIP3    H144565   7.431   4.715   4.804
14896TIP3    H244566   7.308   4.640   4.849
14897TIP3   OH244567   7.962   5.095   5.033
14897TIP3    H144568   7.925   5.183   5.055
14897TIP3    H244569   7.928   5.042   5.107
14898TIP3   OH244570   8.087   5.671   5.558
14898TIP3    H144571   8.129   5.743   5.508
14898TIP3    H244572   8.163   5.638   5.611
14899TIP3   OH244573   7.741   5.567   4.942
14899TIP3    H144574   7.654   5.574   4.986
14899TIP3    H244575   7.771   5.660   4.943
14900TIP3   OH244576   8.495   5.299   5.517
14900TIP3    H144577   8.483   5.294   5.615
14900TIP3    H244578   8.556   5.225   5.501
14901TIP3   OH244579   8.450   5.194   4.399
14901TIP3    H144580   8.499   5.172   4.481
14901TIP3    H244581   8.359   5.169   4.425
14902TIP3   OH244582   8.791   5.674   4.219
14902TIP3    H144583   8.826   5.741   4.159
14902TIP3    H244584   8.711   5.720   4.251
14903TIP3   OH244585   7.817   4.445   6.083
14903TIP3    H144586   7.723   4.456   6.101
14903TIP3    H244587   7.845   4.385   6.154
14904TIP3   OH244588   8.610   5.136   4.621
14904TIP3    H144589   8.602   5.066   4.688
14904TIP3    H244590   8.706   5.132   4.602
14905TIP3   OH244591   7.526   5.536   5.719
14905TIP3    H144592   7.575   5.456   5.739
14905TIP3    H244593   7.564   5.597   5.784
14906TIP3   OH244594   7.856   5.169   4.411
14906TIP3    H144595   7.826   5.093   4.360
14906TIP3    H244596   7.801   5.162   4.491
14907TIP3   OH244597   7.762   5.184   4.679
14907TIP3    H144598   7.841   5.158   4.727
14907TIP3    H244599   7.771   5.282   4.674
14908TIP3   OH244600   7.499   4.874   4.872
14908TIP3    H144601   7.439   4.921   4.933
14908TIP3    H244602   7.514   4.944   4.805
14909TIP3   OH244603   8.649   4.509   5.760
14909TIP3    H144604   8.721   4.552   5.807
14909TIP3    H244605   8.632   4.430   5.816
14910TIP3   OH244606   8.529   4.265   4.925
14910TIP3    H144607   8.515   4.293   4.833
14910TIP3    H244608   8.568   4.347   4.965
14911TIP3   OH244609   8.034   5.385   4.626
14911TIP3    H144610   7.944   5.413   4.653
14911TIP3    H244611   8.044   5.433   4.542
14912TIP3   OH244612   8.219   4.442   5.030
14912TIP3    H144613   8.283   4.515   5.013
14912TIP3    H244614   8.222   4.437   5.128
14913TIP3   OH244615   8.506   4.781   5.841
14913TIP3    H144616   8.515   4.826   5.927
14913TIP3    H244617   8.536   4.691   5.859
14914TIP3   OH244618   8.364   4.174   5.136
14914TIP3    H144619   8.352   4.251   5.195
14914TIP3    H244620   8.424   4.213   5.068
14915TIP3   OH244621   7.774   5.457   4.684
14915TIP3    H144622   7.743   5.524   4.619
14915TIP3    H244623   7.757   5.502   4.769
14916TIP3   OH244624   7.874   4.168   4.922
14916TIP3    H144625   7.871   4.258   4.959
14916TIP3    H244626   7.970   4.149   4.933
14917TIP3   OH244627   9.131   4.664   5.818
14917TIP3    H144628   9.033   4.664   5.829
14917TIP3    H244629   9.137   4.619   5.732
14918TIP3   OH244630   8.780   4.862   5.210
14918TIP3    H144631   8.704   4.801   5.220
14918TIP3    H244632   8.851   4.813   5.257
14919TIP3   OH244633   7.501   5.090   4.701
14919TIP3    H144634   7.573   5.156   4.698
14919TIP3    H244635   7.529   5.036   4.624
14920TIP3   OH244636   7.436   4.361   4.813
14920TIP3    H144637   7.439   4.459   4.806
14920TIP3    H244638   7.353   4.342   4.768
14921TIP3   OH244639   8.760   5.815   5.163
14921TIP3    H144640   8.722   5.864   5.086
14921TIP3    H244641   8.855   5.813   5.133
14922TIP3   OH244642   7.820   4.082   5.688
14922TIP3    H144643   7.792   4.050   5.600
14922TIP3    H244644   7.812   4.002   5.744
14923TIP3   OH244645   7.369   5.306   5.075
14923TIP3    H144646   7.285   5.336   5.111
14923TIP3    H244647   7.358   5.336   4.982
14924TIP3   OH244648   7.516   5.838   6.139
14924TIP3    H144649   7.603   5.835   6.183
14924TIP3    H244650   7.495   5.743   6.134
14925TIP3   OH244651   8.004   5.810   6.180
14925TIP3    H144652   8.097   5.783   6.187
14925TIP3    H244653   7.975   5.753   6.106
14926TIP3   OH244654   7.989   5.386   4.319
14926TIP3    H144655   7.931   5.313   4.352
14926TIP3    H244656   8.058   5.334   4.275
14927TIP3   OH244657   8.654   5.703   5.888
14927TIP3    H144658   8.632   5.635   5.956
14927TIP3    H244659   8.722   5.756   5.934
14928TIP3   OH244660   8.417   5.427   4.228
14928TIP3    H144661   8.471   5.364   4.278
14928TIP3    H244662   8.463   5.430   4.140
14929TIP3   OH244663   7.648   5.247   6.340
14929TIP3    H144664   7.668   5.151   6.342
14929TIP3    H244665   7.561   5.248   6.294
14930TIP3   OH244666   7.626   4.903   4.534
14930TIP3    H144667   7.685   4.871   4.604
14930TIP3    H244668   7.688   4.910   4.459
14931TIP3   OH244669   8.257   5.330   6.111
14931TIP3    H144670   8.215   5.339   6.024
14931TIP3    H244671   8.289   5.237   6.108
14932TIP3   OH244672   8.150   5.094   4.335
14932TIP3    H144673   8.129   5.113   4.428
14932TIP3    H244674   8.133   4.997   4.332
14933TIP3   OH244675   8.753   5.314   5.722
14933TIP3    H144676   8.813   5.375   5.676
14933TIP3    H244677   8.665   5.355   5.720
14934TIP3   OH244678   7.767   4.982   6.316
14934TIP3    H144679   7.841   4.925   6.291
14934TIP3    H244680   7.794   5.011   6.405
14935TIP3   OH244681   7.836   4.801   4.754
14935TIP3    H144682   7.812   4.760   4.839
14935TIP3    H244683   7.870   4.725   4.703
14936TIP3   OH244684   8.098   4.873   5.983
14936TIP3    H144685   8.023   4.935   5.984
14936TIP3    H244686   8.131   4.882   5.892
14937TIP3   OH244687   7.934   4.592   4.596
14937TIP3    H144688   7.907   4.596   4.501
14937TIP3    H244689   8.031   4.602   4.587
14938TIP3   OH244690   8.632   5.273   6.116
14938TIP3    H144691   8.709   5.249   6.063
14938TIP3    H244692   8.616   5.191   6.164
14939TIP3   OH244693   8.760   4.924   4.253
14939TIP3    H144694   8.737   4.881   4.169
14939TIP3    H244695   8.730   5.016   4.232
14940TIP3   OH244696   8.192   4.647   6.115
14940TIP3    H144697   8.225   4.575   6.059
14940TIP3    H244698   8.174   4.718   6.051
14941TIP3   OH244699   8.227   4.440   5.899
14941TIP3    H144700   8.233   4.498   5.822
14941TIP3    H244701   8.132   4.415   5.893
14942TIP3   OH244702   8.282   5.008   5.799
14942TIP3    H144703   8.326   4.955   5.732
14942TIP3    H244704   8.210   5.052   5.749
14943TIP3   OH244705   8.856   4.969   6.128
14943TIP3    H144706   8.854   4.893   6.189
14943TIP3    H244707   8.950   4.986   6.118
14944TIP3   OH244708   8.890   5.200   5.918
14944TIP3    H144709   8.830   5.243   5.853
14944TIP3    H244710   8.975   5.213   5.873
14945TIP3   OH244711   8.096   4.777   6.338
14945TIP3    H144712   8.033   4.704   6.352
14945TIP3    H244713   8.136   4.747   6.254
14946TIP3   OH244714   8.360   4.207   5.975
14946TIP3    H144715   8.313   4.290   5.950
14946TIP3    H244716   8.289   4.141   5.965
14947TIP3   OH244717   8.731   4.650   6.055
14947TIP3    H144718   8.667   4.670   6.125
14947TIP3    H244719   8.810   4.625   6.108
14948TIP3   OH244720   8.968   4.603   6.210
14948TIP3    H144721   8.971   4.506   6.228
14948TIP3    H244722   8.950   4.640   6.299
14949TIP3   OH244723   7.939   4.552   6.394
14949TIP3    H144724   7.961   4.471   6.346
14949TIP3    H244725   7.981   4.535   6.480
14950TIP3   OH244726   8.451   4.206   6.232
14950TIP3    H144727   8.523   4.141   6.227
14950TIP3    H244728   8.415   4.202   6.141
14951TIP3   OH244729   8.506   4.409   6.409
14951TIP3    H144730   8.485   4.354   6.331
14951TIP3    H244731   8.450   4.489   6.395
14952TIP3   OH244732   7.740   5.661   4.500
14952TIP3    H144733   7.836   5.654   4.482
14952TIP3    H244734   7.712   5.705   4.418
14953TIP3   OH244735   7.130   5.655   5.129
14953TIP3    H144736   7.067   5.589   5.092
14953TIP3    H244737   7.178   5.598   5.194
14954TIP3   OH244738   7.267   5.511   5.316
14954TIP3    H144739   7.264   5.430   5.369
14954TIP3    H244740   7.323   5.568   5.373
14955TIP3   OH244741   9.013   5.912   5.411
14955TIP3    H144742   9.027   5.877   5.320
14955TIP3    H244743   9.103   5.908   5.445
14956TIP3   OH244744   9.073   5.605   5.965
14956TIP3    H144745   9.001   5.610   6.032
14956TIP3    H244746   9.115   5.693   5.973
14957TIP3   OH244747   8.889   5.114   4.590
14957TIP3    H144748   8.957   5.178   4.559
14957TIP3    H244749   8.934   5.075   4.668
14958TIP3   OH244750   9.020   4.982   4.793
14958TIP3    H144751   8.953   4.939   4.851
14958TIP3    H244752   9.082   5.022   4.856
14959TIP3   OH244753   9.068   5.375   5.223
14959TIP3    H144754   9.126   5.316   5.171
14959TIP3    H244755   9.054   5.450   5.164
14960TIP3   OH244756   8.824   5.674   5.445
14960TIP3    H144757   8.863   5.760   5.417
14960TIP3    H244758   8.846   5.623   5.363
14961TIP3   OH244759   8.957   4.889   4.440
14961TIP3    H144760   8.886   4.892   4.372
14961TIP3    H244761   8.930   4.966   4.494
14962TIP3   OH244762   8.829   4.563   4.396
14962TIP3    H144763   8.788   4.607   4.321
14962TIP3    H244764   8.801   4.470   4.382
14963TIP3   OH244765   8.834   4.837   4.941
14963TIP3    H144766   8.842   4.741   4.936
14963TIP3    H244767   8.820   4.853   5.037
14964TIP3   OH244768   7.462   4.916   5.685
14964TIP3    H144769   7.462   4.883   5.593
14964TIP3    H244770   7.559   4.917   5.703
14965TIP3   OH244771   9.125   5.263   5.795
14965TIP3    H144772   9.195   5.195   5.788
14965TIP3    H244773   9.157   5.332   5.734
14966TIP3   OH244774   9.310   5.073   5.820
14966TIP3    H144775   9.234   5.020   5.853
14966TIP3    H244776   9.382   5.007   5.832
14967TIP3   OH244777   8.771   4.297   4.383
14967TIP3    H144778   8.849   4.268   4.435
14967TIP3    H244779   8.700   4.237   4.412
14968TIP3   OH244780   8.829   4.554   4.836
14968TIP3    H144781   8.870   4.466   4.851
14968TIP3    H244782   8.887   4.588   4.766
14969TIP3   OH244783   8.992   4.730   5.328
14969TIP3    H144784   9.079   4.757   5.290
14969TIP3    H244785   9.004   4.765   5.419
14970TIP3   OH244786   9.060   4.871   5.562
14970TIP3    H144787   8.982   4.904   5.612
14970TIP3    H244788   9.091   4.953   5.517
14971TIP3   OH244789   7.672   4.598   6.358
14971TIP3    H144790   7.771   4.594   6.359
14971TIP3    H244791   7.652   4.514   6.403
14972TIP3   OH244792   9.510   4.464   6.119
14972TIP3    H144793   9.568   4.396   6.078
14972TIP3    H244794   9.484   4.519   6.043
14973TIP3   OH244795   8.939   4.303   4.872
14973TIP3    H144796   8.987   4.288   4.956
14973TIP3    H244797   8.878   4.227   4.872
14974TIP3   OH244798   7.638   4.291   5.693
14974TIP3    H144799   7.704   4.219   5.702
14974TIP3    H244800   7.696   4.368   5.693
14975TIP3   OH244801   7.441   4.566   5.762
14975TIP3    H144802   7.496   4.556   5.681
14975TIP3    H244803   7.479   4.647   5.799
14976TIP3   OH244804   9.385   4.607   5.925
14976TIP3    H144805   9.295   4.642   5.943
14976TIP3    H244806   9.362   4.533   5.865
14977TIP3   OH244807   9.021   4.241   4.504
14977TIP3    H144808   9.061   4.168   4.452
14977TIP3    H244809   9.087   4.311   4.496
14978TIP3   OH244810   7.422   4.064   5.264
14978TIP3    H144811   7.329   4.069   5.290
14978TIP3    H244812   7.425   4.125   5.187
14979TIP3   OH244813   8.583   5.769   4.773
14979TIP3    H144814   8.631   5.753   4.690
14979TIP3    H244815   8.636   5.840   4.813
14980TIP3   OH244816   7.642   4.146   6.081
14980TIP3    H144817   7.593   4.144   6.164
14980TIP3    H244818   7.577   4.186   6.021
14981TIP3   OH244819   7.683   5.582   6.161
14981TIP3    H144820   7.596   5.545   6.138
14981TIP3    H244821   7.694   5.551   6.252
14982TIP3   OH244822   7.859   5.608   5.707
14982TIP3    H144823   7.814   5.684   5.665
14982TIP3    H244824   7.946   5.617   5.663
14983TIP3   OH244825   8.308   5.854   5.849
14983TIP3    H144826   8.353   5.853   5.936
14983TIP3    H244827   8.374   5.903   5.794
14984TIP3   OH244828   8.481   6.006   5.701
14984TIP3    H144829   8.543   5.974   5.634
14984TIP3    H244830   8.540   6.059   5.760
14985TIP3   OH244831   9.282   4.366   5.802
14985TIP3    H144832   9.190   4.360   5.770
14985TIP3    H244833   9.312   4.273   5.789
14986TIP3   OH244834   7.540   5.869   5.724
14986TIP3    H144835   7.451   5.903   5.703
14986TIP3    H244836   7.544   5.889   5.818
14987TIP3   OH244837   7.777   5.846   5.586
14987TIP3    H144838   7.690   5.858   5.630
14987TIP3    H244839   7.757   5.875   5.495
14988TIP3   OH244840   8.206   5.872   5.382
14988TIP3    H144841   8.137   5.890   5.316
14988TIP3    H244842   8.216   5.961   5.423
14989TIP3   OH244843   8.478   5.821   5.448
14989TIP3    H144844   8.386   5.843   5.422
14989TIP3    H244845   8.528   5.892   5.401
14990TIP3   OH244846   8.664   6.004   5.348
14990TIP3    H144847   8.657   6.090   5.302
14990TIP3    H244848   8.706   5.948   5.279
14991TIP3   OH244849   7.450   5.658   5.476
14991TIP3    H144850   7.479   5.633   5.566
14991TIP3    H244851   7.521   5.615   5.424
14992TIP3   OH244852   7.642   5.530   5.331
14992TIP3    H144853   7.660   5.444   5.374
14992TIP3    H244854   7.733   5.566   5.322
14993TIP3   OH244855   7.909   5.627   5.330
14993TIP3    H144856   7.938   5.535   5.313
14993TIP3    H244857   7.953   5.642   5.416
14994TIP3   OH244858   8.490   4.283   5.422
14994TIP3    H144859   8.443   4.214   5.473
14994TIP3    H244860   8.558   4.232   5.376
14995TIP3   OH244861   9.011   4.158   5.324
14995TIP3    H144862   9.048   4.213   5.251
14995TIP3    H244863   8.916   4.180   5.320
14996TIP3   OH244864   9.105   4.263   5.089
14996TIP3    H144865   9.178   4.212   5.049
14996TIP3    H244866   9.138   4.355   5.075
14997TIP3   OH244867   7.736   3.989   5.439
14997TIP3    H144868   7.644   3.956   5.438
14997TIP3    H244869   7.786   3.905   5.435
14998TIP3   OH244870   7.516   3.858   5.081
14998TIP3    H144871   7.551   3.917   5.012
14998TIP3    H244872   7.491   3.923   5.150
14999TIP3   OH244873   8.177   4.021   5.317
14999TIP3    H144874   8.235   4.075   5.260
14999TIP3    H244875   8.189   4.064   5.403
15000TIP3   OH244876   8.729   4.168   5.302
15000TIP3    H144877   8.722   4.134   5.212
15000TIP3    H244878   8.713   4.086   5.356
15001TIP3   OH244879   8.755   4.089   4.862
15001TIP3    H144880   8.669   4.134   4.874
15001TIP3    H244881   8.739   4.006   4.911
15002TIP3   OH244882   7.229   5.426   4.875
15002TIP3    H144883   7.146   5.398   4.833
15002TIP3    H244884   7.232   5.518   4.845
15003TIP3   OH244885   7.637   4.019   4.849
15003TIP3    H144886   7.688   3.959   4.792
15003TIP3    H244887   7.708   4.076   4.886
15004TIP3   OH244888   8.153   4.191   4.947
15004TIP3    H144889   8.214   4.148   5.010
15004TIP3    H244890   8.170   4.285   4.971
15005TIP3   OH244891   8.009   5.627   4.446
15005TIP3    H144892   8.098   5.645   4.411
15005TIP3    H244893   7.987   5.549   4.389
15006TIP3   OH244894   8.729   5.737   4.540
15006TIP3    H144895   8.720   5.640   4.526
15006TIP3    H244896   8.686   5.771   4.459
15007TIP3   OH244897   7.940   4.264   6.324
15007TIP3    H144898   7.911   4.197   6.387
15007TIP3    H244899   8.035   4.272   6.349
15008TIP3   OH244900   8.185   4.267   6.446
15008TIP3    H144901   8.275   4.262   6.408
15008TIP3    H244902   8.186   4.193   6.509
15009TIP3   OH244903   9.014   4.328   6.235
15009TIP3    H144904   9.035   4.297   6.325
15009TIP3    H244905   9.102   4.325   6.192
15010TIP3   OH244906   8.965   5.884   5.739
15010TIP3    H144907   8.895   5.844   5.686
15010TIP3    H244908   8.945   5.979   5.729
15011TIP3   OH244909   9.524   5.147   5.235
15011TIP3    H144910   9.558   5.082   5.299
15011TIP3    H244911   9.593   5.215   5.240
15012TIP3   OH244912   9.497   5.560   4.974
15012TIP3    H144913   9.488   5.463   4.978
15012TIP3    H244914   9.590   5.569   4.948
15013TIP3   OH244915   9.197   4.764   4.753
15013TIP3    H144916   9.147   4.847   4.764
15013TIP3    H244917   9.128   4.707   4.715
15014TIP3   OH244918   9.259   5.052   4.922
15014TIP3    H144919   9.307   4.974   4.957
15014TIP3    H244920   9.312   5.074   4.844
15015TIP3   OH244921  10.004   5.965   4.596
15015TIP3    H144922  10.086   5.973   4.543
15015TIP3    H244923  10.041   5.966   4.685
15016TIP3   OH244924   9.970   5.488   4.921
15016TIP3    H144925   9.979   5.428   4.845
15016TIP3    H244926  10.065   5.493   4.946
15017TIP3   OH244927   9.751   4.644   4.932
15017TIP3    H144928   9.751   4.708   4.859
15017TIP3    H244929   9.722   4.564   4.884
15018TIP3   OH244930   9.403   4.845   5.026
15018TIP3    H144931   9.484   4.821   5.076
15018TIP3    H244932   9.414   4.787   4.948
15019TIP3   OH244933   9.804   5.057   4.808
15019TIP3    H144934   9.899   5.038   4.822
15019TIP3    H244935   9.772   4.969   4.779
15020TIP3   OH244936   9.762   4.623   5.359
15020TIP3    H144937   9.701   4.657   5.291
15020TIP3    H244938   9.710   4.641   5.440
15021TIP3   OH244939   9.848   5.408   5.150
15021TIP3    H144940   9.788   5.476   5.190
15021TIP3    H244941   9.888   5.459   5.076
15022TIP3   OH244942   9.628   4.740   5.147
15022TIP3    H144943   9.695   4.809   5.167
15022TIP3    H244944   9.673   4.697   5.070
15023TIP3   OH244945   9.693   5.598   5.255
15023TIP3    H144946   9.664   5.680   5.209
15023TIP3    H244947   9.613   5.584   5.311
15024TIP3   OH244948   9.096   5.278   4.488
15024TIP3    H144949   9.058   5.296   4.399
15024TIP3    H244950   9.125   5.366   4.517
15025TIP3   OH244951   9.607   5.202   4.698
15025TIP3    H144952   9.569   5.141   4.631
15025TIP3    H244953   9.683   5.149   4.732
15026TIP3   OH244954   9.741   5.616   4.847
15026TIP3    H144955   9.720   5.568   4.765
15026TIP3    H244956   9.825   5.574   4.876
15027TIP3   OH244957   9.794   5.153   5.070
15027TIP3    H144958   9.792   5.143   4.973
15027TIP3    H244959   9.800   5.251   5.082
15028TIP3   OH244960   9.902   5.714   5.394
15028TIP3    H144961   9.841   5.778   5.437
15028TIP3    H244962   9.836   5.663   5.341
15029TIP3   OH244963   9.656   5.274   5.487
15029TIP3    H144964   9.661   5.358   5.537
15029TIP3    H244965   9.561   5.252   5.499
15030TIP3   OH244966   9.959   5.752   4.420
15030TIP3    H144967   9.967   5.824   4.485
15030TIP3    H244968   9.893   5.788   4.359
15031TIP3   OH244969   9.701   5.886   5.478
15031TIP3    H144970   9.668   5.880   5.386
15031TIP3    H244971   9.621   5.861   5.529
15032TIP3   OH244972   9.497   5.025   4.512
15032TIP3    H144973   9.432   5.073   4.457
15032TIP3    H244974   9.450   4.942   4.529
15033TIP3   OH244975   9.276   5.411   5.429
15033TIP3    H144976   9.223   5.392   5.350
15033TIP3    H244977   9.315   5.323   5.450
15034TIP3   OH244978  10.098   5.842   5.251
15034TIP3    H144979  10.096   5.935   5.281
15034TIP3    H244980  10.023   5.804   5.303
15035TIP3   OH244981   9.850   5.970   4.212
15035TIP3    H144982   9.819   5.950   4.122
15035TIP3    H244983   9.833   6.065   4.221
15036TIP3   OH244984   9.297   5.822   4.576
15036TIP3    H144985   9.349   5.811   4.659
15036TIP3    H244986   9.249   5.737   4.576
15037TIP3   OH244987   9.488   5.591   5.429
15037TIP3    H144988   9.536   5.563   5.509
15037TIP3    H244989   9.410   5.532   5.426
15038TIP3   OH244990   9.873   4.418   5.206
15038TIP3    H144991   9.785   4.389   5.178
15038TIP3    H244992   9.851   4.501   5.251
15039TIP3   OH244993   9.818   4.925   5.211
15039TIP3    H144994   9.768   4.945   5.292
15039TIP3    H244995   9.806   5.008   5.159
15040TIP3   OH244996   9.698   4.818   4.726
15040TIP3    H144997   9.607   4.789   4.751
15040TIP3    H244998   9.703   4.785   4.634
15041TIP3   OH244999   9.639   4.962   5.424
15041TIP3    H145000   9.657   5.022   5.498
15041TIP3    H245001   9.624   4.878   5.471
15042TIP3   OH245002   9.674   4.459   4.136
15042TIP3    H145003   9.639   4.428   4.221
15042TIP3    H245004   9.594   4.486   4.089
15043TIP3   OH245005   9.228   4.487   5.003
15043TIP3    H145006   9.303   4.518   5.059
15043TIP3    H245007   9.270   4.453   4.924
15044TIP3   OH245008   9.204   4.469   4.526
15044TIP3    H145009   9.247   4.507   4.447
15044TIP3    H245010   9.142   4.541   4.548
15045TIP3   OH245011   9.460   4.700   4.799
15045TIP3    H145012   9.365   4.704   4.773
15045TIP3    H245013   9.485   4.607   4.779
15046TIP3   OH245014   9.715   4.723   4.469
15046TIP3    H145015   9.786   4.741   4.406
15046TIP3    H245016   9.638   4.729   4.407
15047TIP3   OH245017   9.548   4.729   4.261
15047TIP3    H145018   9.481   4.685   4.206
15047TIP3    H245019   9.612   4.755   4.192
15048TIP3   OH245020   9.649   5.511   5.641
15048TIP3    H145021   9.726   5.546   5.688
15048TIP3    H245022   9.582   5.514   5.712
15049TIP3   OH245023   9.632   4.461   4.759
15049TIP3    H145024   9.599   4.383   4.810
15049TIP3    H245025   9.687   4.420   4.692
15050TIP3   OH245026   9.799   5.267   4.271
15050TIP3    H145027   9.735   5.193   4.273
15050TIP3    H245028   9.809   5.291   4.364
15051TIP3   OH245029  10.173   5.570   5.283
15051TIP3    H145030  10.198   5.552   5.374
15051TIP3    H245031  10.147   5.664   5.284
15052TIP3   OH245032   9.525   5.281   4.955
15052TIP3    H145033   9.546   5.254   4.863
15052TIP3    H245034   9.542   5.202   5.007
15053TIP3   OH245035   9.396   5.199   5.563
15053TIP3    H145036   9.417   5.184   5.657
15053TIP3    H245037   9.327   5.132   5.546
15054TIP3   OH245038  10.090   5.273   5.599
15054TIP3    H145039  10.003   5.235   5.571
15054TIP3    H245040  10.145   5.195   5.582
15055TIP3   OH245041   9.616   5.579   4.570
15055TIP3    H145042   9.616   5.661   4.517
15055TIP3    H245043   9.522   5.572   4.593
15056TIP3   OH245044   9.180   4.887   4.275
15056TIP3    H145045   9.224   4.973   4.292
15056TIP3    H245046   9.101   4.895   4.334
15057TIP3   OH245047   9.786   5.362   4.547
15057TIP3    H145048   9.733   5.445   4.540
15057TIP3    H245049   9.724   5.307   4.598
15058TIP3   OH245050   9.886   5.927   5.045
15058TIP3    H145051   9.922   5.998   4.989
15058TIP3    H245052   9.965   5.896   5.092
15059TIP3   OH245053   9.536   5.821   4.428
15059TIP3    H145054   9.450   5.828   4.473
15059TIP3    H245055   9.566   5.915   4.429
15060TIP3   OH245056   9.608   4.708   5.576
15060TIP3    H145057   9.511   4.709   5.587
15060TIP3    H245058   9.633   4.641   5.642
15061TIP3   OH245059   9.620   5.432   3.882
15061TIP3    H145060   9.637   5.340   3.857
15061TIP3    H245061   9.602   5.423   3.978
15062TIP3   OH245062   9.566   5.438   4.154
15062TIP3    H145063   9.646   5.409   4.200
15062TIP3    H245064   9.568   5.535   4.167
15063TIP3   OH245065   9.299   5.136   4.359
15063TIP3    H145066   9.230   5.178   4.415
15063TIP3    H245067   9.309   5.206   4.291
15064TIP3   OH245068   9.821   5.666   4.117
15064TIP3    H145069   9.730   5.681   4.148
15064TIP3    H245070   9.829   5.733   4.049
15065TIP3   OH245071   9.556   5.713   4.171
15065TIP3    H145072   9.528   5.784   4.109
15065TIP3    H245073   9.543   5.757   4.258
15066TIP3   OH245074   9.674   4.430   4.418
15066TIP3    H145075   9.638   4.512   4.457
15066TIP3    H245076   9.756   4.465   4.380
15067TIP3   OH245077   9.288   5.349   4.171
15067TIP3    H145078   9.355   5.419   4.178
15067TIP3    H245079   9.329   5.295   4.100
15068TIP3   OH245080   9.233   4.619   4.300
15068TIP3    H145081   9.233   4.716   4.294
15068TIP3    H245082   9.151   4.596   4.256
15069TIP3   OH245083   9.608   4.340   5.175
15069TIP3    H145084   9.583   4.305   5.087
15069TIP3    H245085   9.605   4.260   5.231
15070TIP3   OH245086   9.165   5.565   4.555
15070TIP3    H145087   9.081   5.581   4.601
15070TIP3    H245088   9.142   5.599   4.465
15071TIP3   OH245089   9.311   6.093   5.629
15071TIP3    H145090   9.399   6.091   5.671
15071TIP3    H245091   9.293   5.998   5.621
15072TIP3   OH245092   9.798   6.068   5.665
15072TIP3    H145093   9.890   6.043   5.676
15072TIP3    H245094   9.770   6.008   5.593
15073TIP3   OH245095   9.766   5.649   3.799
15073TIP3    H145096   9.714   5.573   3.835
15073TIP3    H245097   9.857   5.614   3.809
15074TIP3   OH245098   9.444   5.504   5.826
15074TIP3    H145099   9.462   5.408   5.827
15074TIP3    H245100   9.356   5.506   5.781
15075TIP3   OH245101   9.421   5.162   4.021
15075TIP3    H145102   9.476   5.128   4.093
15075TIP3    H245103   9.487   5.168   3.949
15076TIP3   OH245104  10.047   5.585   5.594
15076TIP3    H145105  10.001   5.607   5.511
15076TIP3    H245106  10.053   5.488   5.592
15077TIP3   OH245107   9.565   5.238   5.804
15077TIP3    H145108   9.638   5.177   5.787
15077TIP3    H245109   9.589   5.269   5.894
15078TIP3   OH245110   9.629   5.051   4.245
15078TIP3    H145111   9.596   5.015   4.329
15078TIP3    H245112   9.660   4.971   4.198
15079TIP3   OH245113   9.886   5.131   5.482
15079TIP3    H145114   9.802   5.183   5.479
15079TIP3    H245115   9.928   5.160   5.397
15080TIP3   OH245116   9.728   4.844   4.089
15080TIP3    H145117   9.687   4.840   4.000
15080TIP3    H245118   9.820   4.864   4.068
15081TIP3   OH245119   9.992   4.916   5.615
15081TIP3    H145120  10.014   4.832   5.569
15081TIP3    H245121   9.940   4.964   5.549
15082TIP3   OH245122  10.009   4.722   5.416
15082TIP3    H145123  10.054   4.704   5.332
15082TIP3    H245124   9.925   4.673   5.403
15083TIP3   OH245125  10.003   5.225   5.262
15083TIP3    H145126   9.982   5.166   5.188
15083TIP3    H245127   9.959   5.307   5.231
15084TIP3   OH245128   9.870   5.046   5.819
15084TIP3    H145129   9.815   4.968   5.840
15084TIP3    H245130   9.919   5.012   5.740
15085TIP3   OH245131   9.742   4.809   5.875
15085TIP3    H145132   9.745   4.722   5.833
15085TIP3    H245133   9.774   4.788   5.966
15086TIP3   OH245134   9.536   5.918   3.984
15086TIP3    H145135   9.631   5.918   3.966
15086TIP3    H245136   9.504   5.963   3.904
15087TIP3   OH245137   9.021   5.288   4.219
15087TIP3    H145138   9.108   5.320   4.189
15087TIP3    H245139   9.010   5.210   4.161
15088TIP3   OH245140   8.938   5.903   4.618
15088TIP3    H145141   8.867   5.846   4.580
15088TIP3    H245142   8.964   5.850   4.695
15089TIP3   OH245143   9.257   5.169   5.174
15089TIP3    H145144   9.253   5.139   5.081
15089TIP3    H245145   9.354   5.170   5.189
15090TIP3   OH245146   9.474   4.860   5.853
15090TIP3    H145147   9.571   4.849   5.849
15090TIP3    H245148   9.448   4.774   5.890
15091TIP3   OH245149   9.430   4.549   5.180
15091TIP3    H145150   9.492   4.473   5.190
15091TIP3    H245151   9.494   4.622   5.176
15092TIP3   OH245152   9.238   4.823   5.252
15092TIP3    H145153   9.287   4.812   5.168
15092TIP3    H245154   9.270   4.910   5.280
15093TIP3   OH245155   9.220   4.323   4.753
15093TIP3    H145156   9.126   4.323   4.778
15093TIP3    H245157   9.220   4.382   4.674
15094TIP3   OH245158   9.438   4.410   5.568
15094TIP3    H145159   9.388   4.399   5.651
15094TIP3    H245160   9.369   4.444   5.508
15095TIP3   OH245161   9.485   5.835   5.651
15095TIP3    H145162   9.398   5.803   5.621
15095TIP3    H245163   9.484   5.811   5.744
15096TIP3   OH245164   9.663   5.865   5.198
15096TIP3    H145165   9.601   5.928   5.157
15096TIP3    H245166   9.743   5.885   5.146
15097TIP3   OH245167  10.118   6.114   5.323
15097TIP3    H145168  10.141   6.109   5.419
15097TIP3    H245169  10.196   6.157   5.287
15098TIP3   OH245170   9.346   6.141   5.206
15098TIP3    H145171   9.254   6.162   5.182
15098TIP3    H245172   9.335   6.116   5.298
15099TIP3   OH245173   9.580   6.106   5.071
15099TIP3    H145174   9.495   6.119   5.119
15099TIP3    H245175   9.553   6.131   4.980
15100TIP3   OH245176   9.984   6.132   4.866
15100TIP3    H145177   9.913   6.146   4.799
15100TIP3    H245178   9.993   6.221   4.904
15101TIP3   OH245179  10.246   6.094   4.917
15101TIP3    H145180  10.150   6.087   4.898
15101TIP3    H245181  10.271   6.174   4.870
15102TIP3   OH245182   9.445   5.775   4.793
15102TIP3    H145183   9.439   5.709   4.865
15102TIP3    H245184   9.529   5.819   4.815
15103TIP3   OH245185   9.711   5.894   4.816
15103TIP3    H145186   9.727   5.800   4.798
15103TIP3    H245187   9.749   5.901   4.905
15104TIP3   OH245188   9.525   4.256   4.919
15104TIP3    H145189   9.432   4.226   4.920
15104TIP3    H245190   9.569   4.168   4.922
15105TIP3   OH245191   9.317   4.114   4.565
15105TIP3    H145192   9.345   4.177   4.495
15105TIP3    H245193   9.287   4.176   4.634
15106TIP3   OH245194   9.034   5.684   4.352
15106TIP3    H145195   8.949   5.650   4.316
15106TIP3    H245196   9.022   5.779   4.334
15107TIP3   OH245197   9.424   4.283   4.351
15107TIP3    H145198   9.457   4.218   4.285
15107TIP3    H245199   9.506   4.326   4.381
15108TIP3   OH245200   9.808   5.886   3.932
15108TIP3    H145201   9.904   5.895   3.922
15108TIP3    H245202   9.787   5.812   3.871
15109TIP3   OH245203   9.706   4.527   5.800
15109TIP3    H145204   9.674   4.457   5.859
15109TIP3    H245205   9.800   4.528   5.826
15110TIP3   OH245206   9.943   4.531   5.927
15110TIP3    H145207  10.039   4.533   5.911
15110TIP3    H245208   9.940   4.461   5.996
15111TIP3   OH245209   9.116   5.722   3.994
15111TIP3    H145210   9.108   5.739   4.089
15111TIP3    H245211   9.202   5.677   3.987
15112TIP3   OH245212   0.879   5.784   6.695
15112TIP3    H145213   0.854   5.877   6.679
15112TIP3    H245214   0.796   5.739   6.672
15113TIP3   OH245215   0.886   5.777   7.070
15113TIP3    H145216   0.911   5.755   7.161
15113TIP3    H245217   0.835   5.698   7.044
15114TIP3   OH245218   1.119   6.085   6.758
15114TIP3    H145219   1.105   6.017   6.826
15114TIP3    H245220   1.146   6.161   6.812
15115TIP3   OH245221   0.766   6.551   6.769
15115TIP3    H145222   0.814   6.475   6.729
15115TIP3    H245223   0.749   6.520   6.859
15116TIP3   OH245224   0.668   5.959   7.106
15116TIP3    H145225   0.745   5.913   7.069
15116TIP3    H245226   0.711   6.038   7.144
15117TIP3   OH245227   1.688   5.331   7.123
15117TIP3    H145228   1.715   5.413   7.169
15117TIP3    H245229   1.705   5.355   7.030
15118TIP3   OH245230   1.096   5.515   7.157
15118TIP3    H145231   1.131   5.427   7.179
15118TIP3    H245232   1.059   5.499   7.069
15119TIP3   OH245233   0.459   5.163   7.124
15119TIP3    H145234   0.419   5.247   7.093
15119TIP3    H245235   0.417   5.099   7.063
15120TIP3   OH245236   1.119   5.258   6.747
15120TIP3    H145237   1.191   5.244   6.813
15120TIP3    H245238   1.169   5.298   6.674
15121TIP3   OH245239   0.506   5.577   7.038
15121TIP3    H145240   0.598   5.544   7.042
15121TIP3    H245241   0.458   5.501   6.999
15122TIP3   OH245242   1.760   5.537   7.294
15122TIP3    H145243   1.677   5.587   7.275
15122TIP3    H245244   1.775   5.563   7.386
15123TIP3   OH245245   0.775   6.008   6.564
15123TIP3    H145246   0.729   5.983   6.483
15123TIP3    H245247   0.729   6.091   6.588
15124TIP3   OH245248   1.334   5.261   6.917
15124TIP3    H145249   1.315   5.219   7.002
15124TIP3    H245250   1.384   5.340   6.944
15125TIP3   OH245251   1.193   6.327   6.926
15125TIP3    H145252   1.105   6.319   6.968
15125TIP3    H245253   1.184   6.414   6.882
15126TIP3   OH245254   1.481   5.229   7.289
15126TIP3    H145255   1.393   5.261   7.262
15126TIP3    H245256   1.539   5.262   7.217
15127TIP3   OH245257   0.782   4.877   7.274
15127TIP3    H145258   0.767   4.782   7.290
15127TIP3    H245259   0.705   4.916   7.321
15128TIP3   OH245260   0.897   6.374   6.603
15128TIP3    H145261   0.948   6.293   6.580
15128TIP3    H245262   0.955   6.442   6.562
15129TIP3   OH245263   1.039   6.160   6.504
15129TIP3    H145264   0.990   6.083   6.471
15129TIP3    H245265   1.073   6.126   6.590
15130TIP3   OH245266   1.419   6.245   7.270
15130TIP3    H145267   1.407   6.166   7.212
15130TIP3    H245268   1.400   6.318   7.208
15131TIP3   OH245269   0.707   5.630   6.524
15131TIP3    H145270   0.627   5.684   6.503
15131TIP3    H245271   0.757   5.637   6.441
15132TIP3   OH245272   0.668   5.420   6.245
15132TIP3    H145273   0.733   5.469   6.298
15132TIP3    H245274   0.727   5.357   6.198
15133TIP3   OH245275   1.613   5.878   7.113
15133TIP3    H145276   1.530   5.930   7.121
15133TIP3    H245277   1.642   5.903   7.023
15134TIP3   OH245278   1.056   5.716   6.500
15134TIP3    H145279   1.000   5.743   6.577
15134TIP3    H245280   1.139   5.692   6.545
15135TIP3   OH245281   1.292   5.760   7.408
15135TIP3    H145282   1.287   5.844   7.457
15135TIP3    H245283   1.204   5.762   7.364
15136TIP3   OH245284   0.425   5.712   7.256
15136TIP3    H145285   0.472   5.664   7.183
15136TIP3    H245286   0.495   5.768   7.292
15137TIP3   OH245287   0.954   6.326   7.048
15137TIP3    H145288   0.934   6.402   7.105
15137TIP3    H245289   0.937   6.250   7.107
15138TIP3   OH245290   0.901   5.574   6.325
15138TIP3    H145291   0.957   5.635   6.379
15138TIP3    H245292   0.925   5.602   6.233
15139TIP3   OH245293   0.636   6.260   6.604
15139TIP3    H145294   0.718   6.306   6.628
15139TIP3    H245295   0.588   6.329   6.557
15140TIP3   OH245296   1.412   4.819   6.372
15140TIP3    H145297   1.331   4.838   6.425
15140TIP3    H245298   1.424   4.903   6.325
15141TIP3   OH245299   1.210   6.186   5.918
15141TIP3    H145300   1.217   6.283   5.908
15141TIP3    H245301   1.303   6.158   5.908
15142TIP3   OH245302   1.655   6.586   7.315
15142TIP3    H145303   1.653   6.489   7.328
15142TIP3    H245304   1.571   6.611   7.360
15143TIP3   OH245305   0.780   6.355   7.462
15143TIP3    H145306   0.781   6.450   7.488
15143TIP3    H245307   0.685   6.341   7.447
15144TIP3   OH245308   0.548   6.488   6.424
15144TIP3    H145309   0.512   6.464   6.336
15144TIP3    H245310   0.508   6.574   6.439
15145TIP3   OH245311   0.726   6.406   6.043
15145TIP3    H145312   0.781   6.334   6.006
15145TIP3    H245313   0.764   6.414   6.133
15146TIP3   OH245314   0.789   6.446   6.310
15146TIP3    H145315   0.704   6.452   6.360
15146TIP3    H245316   0.846   6.407   6.377
15147TIP3   OH245317   1.546   5.720   7.589
15147TIP3    H145318   1.464   5.735   7.540
15147TIP3    H245319   1.558   5.624   7.579
15148TIP3   OH245320   0.545   4.953   7.405
15148TIP3    H145321   0.458   4.941   7.367
15148TIP3    H245322   0.540   5.047   7.433
15149TIP3   OH245323   1.092   5.079   7.585
15149TIP3    H145324   1.162   5.049   7.647
15149TIP3    H245325   1.011   5.050   7.629
15150TIP3   OH245326   1.317   5.496   7.515
15150TIP3    H145327   1.266   5.491   7.599
15150TIP3    H245328   1.287   5.582   7.478
15151TIP3   OH245329   0.970   5.621   6.066
15151TIP3    H145330   0.942   5.597   5.976
15151TIP3    H245331   1.046   5.679   6.047
15152TIP3   OH245332   0.686   5.001   6.369
15152TIP3    H145333   0.658   5.000   6.462
15152TIP3    H245334   0.649   4.916   6.339
15153TIP3   OH245335   0.378   5.451   7.350
15153TIP3    H145336   0.438   5.461   7.428
15153TIP3    H245337   0.393   5.537   7.309
15154TIP3   OH245338   0.350   5.340   6.935
15154TIP3    H145339   0.255   5.356   6.928
15154TIP3    H245340   0.369   5.298   6.848
15155TIP3   OH245341   0.845   5.435   6.657
15155TIP3    H145342   0.791   5.508   6.619
15155TIP3    H245343   0.901   5.410   6.581
15156TIP3   OH245344   1.025   5.719   7.748
15156TIP3    H145345   1.000   5.646   7.809
15156TIP3    H245346   1.119   5.730   7.770
15157TIP3   OH245347   1.007   5.466   6.900
15157TIP3    H145348   0.946   5.501   6.832
15157TIP3    H245349   1.034   5.383   6.856
15158TIP3   OH245350   0.345   4.972   6.342
15158TIP3    H145351   0.337   4.969   6.439
15158TIP3    H245352   0.253   4.986   6.316
15159TIP3   OH245353   1.019   5.718   7.318
15159TIP3    H145354   1.050   5.644   7.261
15159TIP3    H245355   0.992   5.667   7.398
15160TIP3   OH245356   0.695   5.172   6.989
15160TIP3    H145357   0.612   5.175   7.041
15160TIP3    H245358   0.760   5.183   7.060
15161TIP3   OH245359   0.393   5.226   6.685
15161TIP3    H145360   0.489   5.244   6.676
15161TIP3    H245361   0.354   5.268   6.606
15162TIP3   OH245362   1.176   5.246   7.188
15162TIP3    H145363   1.144   5.262   7.281
15162TIP3    H245364   1.105   5.187   7.157
15163TIP3   OH245365   0.210   5.284   6.464
15163TIP3    H145366   0.168   5.199   6.439
15163TIP3    H245367   0.272   5.299   6.389
15164TIP3   OH245368   1.342   6.941   7.413
15164TIP3    H145369   1.342   6.959   7.316
15164TIP3    H245370   1.425   6.984   7.441
15165TIP3   OH245371   0.769   5.502   7.083
15165TIP3    H145372   0.845   5.458   7.044
15165TIP3    H245373   0.771   5.467   7.175
15166TIP3   OH245374   0.326   4.989   6.964
15166TIP3    H145375   0.260   4.918   6.983
15166TIP3    H245376   0.365   4.956   6.882
15167TIP3   OH245377   0.772   5.411   7.340
15167TIP3    H145378   0.692   5.429   7.393
15167TIP3    H245379   0.839   5.440   7.404
15168TIP3   OH245380   0.486   5.782   6.466
15168TIP3    H145381   0.407   5.724   6.461
15168TIP3    H245382   0.474   5.823   6.556
15169TIP3   OH245383   1.382   6.025   7.108
15169TIP3    H145384   1.405   6.074   7.026
15169TIP3    H245385   1.295   5.985   7.085
15170TIP3   OH245386   0.938   5.105   6.330
15170TIP3    H145387   0.841   5.090   6.343
15170TIP3    H245388   0.951   5.198   6.359
15171TIP3   OH245389   0.891   6.106   7.473
15171TIP3    H145390   0.892   6.080   7.566
15171TIP3    H245391   0.848   6.194   7.478
15172TIP3   OH245392   1.010   5.346   6.437
15172TIP3    H145393   1.105   5.355   6.457
15172TIP3    H245394   0.991   5.428   6.387
15173TIP3   OH245395   0.637   5.935   6.298
15173TIP3    H145396   0.590   6.021   6.304
15173TIP3    H245397   0.577   5.879   6.352
15174TIP3   OH245398   0.782   5.854   7.799
15174TIP3    H145399   0.706   5.825   7.745
15174TIP3    H245400   0.858   5.814   7.753
15175TIP3   OH245401   1.046   6.375   7.365
15175TIP3    H145402   0.951   6.359   7.381
15175TIP3    H245403   1.070   6.423   7.447
15176TIP3   OH245404   1.453   5.436   6.277
15176TIP3    H145405   1.389   5.392   6.216
15176TIP3    H245406   1.448   5.526   6.237
15177TIP3   OH245407   1.669   6.295   7.360
15177TIP3    H145408   1.571   6.291   7.351
15177TIP3    H245409   1.694   6.266   7.269
15178TIP3   OH245410   1.151   6.258   6.185
15178TIP3    H145411   1.124   6.189   6.248
15178TIP3    H245412   1.161   6.209   6.101
15179TIP3   OH245413   1.147   5.887   7.025
15179TIP3    H145414   1.054   5.860   7.040
15179TIP3    H245415   1.181   5.807   6.980
15180TIP3   OH245416   0.458   5.882   6.714
15180TIP3    H145417   0.436   5.974   6.731
15180TIP3    H245418   0.425   5.839   6.794
15181TIP3   OH245419   0.938   6.094   7.204
15181TIP3    H145420   0.923   6.093   7.301
15181TIP3    H245421   1.014   6.036   7.195
15182TIP3   OH245422   0.904   5.982   6.085
15182TIP3    H145423   0.953   5.958   6.167
15182TIP3    H245424   0.813   5.958   6.111
15183TIP3   OH245425   1.181   6.629   7.259
15183TIP3    H145426   1.105   6.569   7.254
15183TIP3    H245427   1.162   6.691   7.185
15184TIP3   OH245428   1.244   6.461   5.908
15184TIP3    H145429   1.282   6.534   5.856
15184TIP3    H245430   1.164   6.507   5.941
15185TIP3   OH245431   1.063   5.915   6.302
15185TIP3    H145432   1.054   5.852   6.377
15185TIP3    H245433   1.160   5.917   6.293
15186TIP3   OH245434   0.350   5.932   6.121
15186TIP3    H145435   0.339   5.846   6.076
15186TIP3    H245436   0.280   5.930   6.186
15187TIP3   OH245437   1.107   5.308   7.443
15187TIP3    H145438   1.181   5.352   7.488
15187TIP3    H245439   1.095   5.227   7.498
15188TIP3   OH245440   0.982   5.054   6.615
15188TIP3    H145441   0.968   5.082   6.523
15188TIP3    H245442   1.021   5.135   6.655
15189TIP3   OH245443   0.494   6.163   6.318
15189TIP3    H145444   0.401   6.180   6.337
15189TIP3    H245445   0.506   6.210   6.234
15190TIP3   OH245446   0.669   5.232   6.721
15190TIP3    H145447   0.734   5.303   6.702
15190TIP3    H245448   0.678   5.224   6.818
15191TIP3   OH245449   0.957   5.557   7.525
15191TIP3    H145450   0.952   5.613   7.605
15191TIP3    H245451   1.004   5.479   7.557
15192TIP3   OH245452   0.818   4.963   6.827
15192TIP3    H145453   0.807   5.039   6.887
15192TIP3    H245454   0.878   5.001   6.759
15193TIP3   OH245455   0.337   4.968   6.622
15193TIP3    H145456   0.353   5.058   6.660
15193TIP3    H245457   0.429   4.934   6.624
15194TIP3   OH245458   1.582   5.449   7.509
15194TIP3    H145459   1.484   5.450   7.518
15194TIP3    H245460   1.590   5.416   7.419
15195TIP3   OH245461   1.233   5.645   6.897
15195TIP3    H145462   1.155   5.588   6.913
15195TIP3    H245463   1.303   5.598   6.947
15196TIP3   OH245464   1.199   6.600   6.849
15196TIP3    H145465   1.157   6.647   6.774
15196TIP3    H245466   1.293   6.619   6.828
15197TIP3   OH245467   0.477   6.159   6.026
15197TIP3    H145468   0.424   6.082   6.056
15197TIP3    H245469   0.520   6.122   5.947
15198TIP3   OH245470   1.098   6.502   7.604
15198TIP3    H145471   1.088   6.429   7.669
15198TIP3    H245472   1.176   6.550   7.638
15199TIP3   OH245473   0.873   6.214   5.910
15199TIP3    H145474   0.918   6.151   5.969
15199TIP3    H245475   0.930   6.215   5.831
15200TIP3   OH245476   0.726   6.126   7.785
15200TIP3    H145477   0.655   6.100   7.726
15200TIP3    H245478   0.761   6.038   7.809
15201TIP3   OH245479   0.616   5.873   6.019
15201TIP3    H145480   0.586   5.901   6.108
15201TIP3    H245481   0.592   5.778   6.021
15202TIP3   OH245482   1.205   6.123   7.407
15202TIP3    H145483   1.273   6.177   7.363
15202TIP3    H245484   1.127   6.180   7.398
15203TIP3   OH245485   0.291   5.588   6.443
15203TIP3    H145486   0.264   5.540   6.523
15203TIP3    H245487   0.324   5.516   6.387
15204TIP3   OH245488   9.962   3.896   5.792
15204TIP3    H145489   9.912   3.823   5.830
15204TIP3    H245490  10.009   3.849   5.721
15205TIP3   OH245491   0.391   5.378   6.284
15205TIP3    H145492   0.366   5.391   6.190
15205TIP3    H245493   0.488   5.389   6.278
15206TIP3   OH245494   1.073   6.055   7.809
15206TIP3    H145495   1.151   6.031   7.756
15206TIP3    H245496   1.070   5.983   7.875
15207TIP3   OH245497   1.213   5.716   5.943
15207TIP3    H145498   1.187   5.670   5.861
15207TIP3    H245499   1.181   5.806   5.921
15208TIP3   OH245500   0.691   5.423   7.850
15208TIP3    H145501   0.673   5.342   7.800
15208TIP3    H245502   0.650   5.484   7.786
15209TIP3   OH245503   0.502   5.196   7.518
15209TIP3    H145504   0.541   5.283   7.496
15209TIP3    H245505   0.469   5.219   7.606
15210TIP3   OH245506   0.726   5.804   7.465
15210TIP3    H145507   0.801   5.769   7.415
15210TIP3    H245508   0.709   5.889   7.423
15211TIP3   OH245509   1.292   5.733   7.860
15211TIP3    H145510   1.344   5.651   7.873
15211TIP3    H245511   1.359   5.794   7.826
15212TIP3   OH245512   1.334   5.984   7.597
15212TIP3    H145513   1.275   6.036   7.537
15212TIP3    H245514   1.421   6.004   7.555
15213TIP3   OH245515   0.903   4.894   7.666
15213TIP3    H145516   0.948   4.908   7.751
15213TIP3    H245517   0.814   4.929   7.681
15214TIP3   OH245518   0.950   5.500   7.891
15214TIP3    H145519   0.940   5.497   7.988
15214TIP3    H245520   0.858   5.474   7.867
15215TIP3   OH245521   1.178   5.440   7.740
15215TIP3    H145522   1.103   5.451   7.802
15215TIP3    H245523   1.251   5.413   7.800
15216TIP3   OH245524   1.409   5.385   7.894
15216TIP3    H145525   1.420   5.291   7.916
15216TIP3    H245526   1.404   5.428   7.982
15217TIP3   OH245527   0.911   5.008   7.925
15217TIP3    H145528   0.984   4.944   7.942
15217TIP3    H245529   0.835   4.951   7.907
15218TIP3   OH245530   0.975   5.219   8.093
15218TIP3    H145531   0.952   5.158   8.020
15218TIP3    H245532   0.904   5.287   8.088
15219TIP3   OH245533   1.450   6.694   6.802
15219TIP3    H145534   1.479   6.727   6.889
15219TIP3    H245535   1.512   6.738   6.742
15220TIP3   OH245536   1.482   6.713   7.085
15220TIP3    H145537   1.437   6.626   7.081
15220TIP3    H245538   1.558   6.689   7.140
15221TIP3   OH245539   1.528   6.390   7.658
15221TIP3    H145540   1.454   6.397   7.721
15221TIP3    H245541   1.568   6.479   7.664
15222TIP3   OH245542   1.345   5.902   6.278
15222TIP3    H145543   1.413   5.967   6.252
15222TIP3    H245544   1.386   5.863   6.358
15223TIP3   OH245545   1.471   5.769   6.481
15223TIP3    H145546   1.406   5.728   6.542
15223TIP3    H245547   1.535   5.810   6.544
15224TIP3   OH245548   1.525   6.161   6.916
15224TIP3    H145549   1.578   6.100   6.862
15224TIP3    H245550   1.513   6.237   6.855
15225TIP3   OH245551   1.357   6.462   7.110
15225TIP3    H145552   1.286   6.503   7.163
15225TIP3    H245553   1.307   6.414   7.042
15226TIP3   OH245554   1.410   5.676   6.130
15226TIP3    H145555   1.338   5.682   6.063
15226TIP3    H245556   1.385   5.753   6.186
15227TIP3   OH245557   1.283   5.349   6.084
15227TIP3    H145558   1.238   5.394   6.012
15227TIP3    H245559   1.254   5.256   6.070
15228TIP3   OH245560   1.287   5.625   6.629
15228TIP3    H145561   1.294   5.528   6.628
15228TIP3    H245562   1.272   5.643   6.725
15229TIP3   OH245563   1.575   6.050   7.486
15229TIP3    H145564   1.648   5.986   7.477
15229TIP3    H245565   1.601   6.121   7.425
15230TIP3   OH245566   1.762   5.859   7.505
15230TIP3    H145567   1.687   5.809   7.544
15230TIP3    H245568   1.834   5.793   7.518
15231TIP3   OH245569   1.226   5.082   6.068
15231TIP3    H145570   1.301   5.056   6.125
15231TIP3    H245571   1.153   5.027   6.100
15232TIP3   OH245572   1.280   5.341   6.526
15232TIP3    H145573   1.322   5.253   6.541
15232TIP3    H245574   1.340   5.376   6.458
15233TIP3   OH245575   1.445   5.516   7.019
15233TIP3    H145576   1.531   5.544   6.981
15233TIP3    H245577   1.455   5.554   7.109
15234TIP3   OH245578   1.511   5.660   7.253
15234TIP3    H145579   1.432   5.693   7.301
15234TIP3    H245580   1.542   5.741   7.208
15235TIP3   OH245581   1.964   5.250   7.809
15235TIP3    H145582   2.021   5.184   7.764
15235TIP3    H245583   1.936   5.307   7.734
15236TIP3   OH245584   1.392   5.091   6.561
15236TIP3    H145585   1.439   5.076   6.646
15236TIP3    H245586   1.331   5.015   6.561
15237TIP3   OH245587   1.837   5.393   7.617
15237TIP3    H145588   1.751   5.432   7.640
15237TIP3    H245589   1.807   5.323   7.556
15238TIP3   OH245590   1.473   5.030   6.193
15238TIP3    H145591   1.515   4.957   6.143
15238TIP3    H245592   1.540   5.100   6.187
15239TIP3   OH245593   1.037   6.558   6.463
15239TIP3    H145594   1.087   6.543   6.380
15239TIP3    H245595   1.090   6.626   6.506
15240TIP3   OH245596   0.794   6.615   7.541
15240TIP3    H145597   0.809   6.650   7.630
15240TIP3    H245598   0.837   6.682   7.485
15241TIP3   OH245599   0.938   6.798   7.390
15241TIP3    H145600   1.002   6.738   7.347
15241TIP3    H245601   0.997   6.848   7.451
15242TIP3   OH245602   1.734   5.155   7.491
15242TIP3    H145603   1.643   5.154   7.458
15242TIP3    H245604   1.761   5.062   7.477
15243TIP3   OH245605   0.663   6.679   7.039
15243TIP3    H145606   0.568   6.690   7.027
15243TIP3    H245607   0.684   6.757   7.095
15244TIP3   OH245608   0.923   6.608   7.126
15244TIP3    H145609   0.832   6.617   7.092
15244TIP3    H245610   0.968   6.681   7.082
15245TIP3   OH245611   1.133   6.793   7.042
15245TIP3    H145612   1.119   6.878   6.995
15245TIP3    H245613   1.157   6.733   6.968
15246TIP3   OH245614   0.944   5.070   7.109
15246TIP3    H145615   0.897   5.004   7.163
15246TIP3    H245616   1.013   5.017   7.067
15247TIP3   OH245617   1.465   4.945   7.014
15247TIP3    H145618   1.500   5.001   6.942
15247TIP3    H245619   1.370   4.967   7.011
15248TIP3   OH245620   1.558   5.050   6.778
15248TIP3    H145621   1.632   5.000   6.737
15248TIP3    H245622   1.590   5.142   6.765
15249TIP3   OH245623   0.637   4.811   7.003
15249TIP3    H145624   0.695   4.868   6.950
15249TIP3    H245625   0.646   4.851   7.091
15250TIP3   OH245626   1.183   4.955   6.991
15250TIP3    H145627   1.173   4.922   6.902
15250TIP3    H245628   1.165   4.874   7.045
15251TIP3   OH245629   1.207   4.878   6.552
15251TIP3    H145630   1.121   4.922   6.564
15251TIP3    H245631   1.192   4.794   6.600
15252TIP3   OH245632   0.125   4.730   6.575
15252TIP3    H145633   0.125   4.722   6.478
15252TIP3    H245634   0.143   4.824   6.588
15253TIP3   OH245635   0.613   4.979   6.636
15253TIP3    H145636   0.671   4.936   6.700
15253TIP3    H245637   0.630   5.073   6.661
15254TIP3   OH245638   0.474   6.416   6.166
15254TIP3    H145639   0.560   6.417   6.119
15254TIP3    H245640   0.419   6.377   6.094
15255TIP3   OH245641   1.180   6.525   6.229
15255TIP3    H145642   1.172   6.427   6.215
15255TIP3    H245643   1.136   6.559   6.149
15256TIP3   OH245644   0.639   5.026   8.119
15256TIP3    H145645   0.733   5.032   8.098
15256TIP3    H245646   0.642   4.982   8.206
15257TIP3   OH245647   1.467   5.113   7.925
15257TIP3    H145648   1.488   5.084   8.017
15257TIP3    H245649   1.555   5.112   7.883
15258TIP3   OH245650   1.409   6.671   7.418
15258TIP3    H145651   1.331   6.636   7.370
15258TIP3    H245652   1.387   6.766   7.419
15259TIP3   OH245653   2.674   6.040   6.184
15259TIP3    H145654   2.649   6.133   6.166
15259TIP3    H245655   2.594   5.994   6.153
15260TIP3   OH245656   2.675   6.038   6.560
15260TIP3    H145657   2.702   6.012   6.649
15260TIP3    H245658   2.629   5.960   6.528
15261TIP3   OH245659   1.975   5.937   6.927
15261TIP3    H145660   2.006   5.872   6.992
15261TIP3    H245661   2.049   5.999   6.926
15262TIP3   OH245662   2.916   6.341   6.244
15262TIP3    H145663   2.902   6.275   6.314
15262TIP3    H245664   2.942   6.420   6.295
15263TIP3   OH245665   1.943   6.345   6.657
15263TIP3    H145666   1.935   6.248   6.660
15263TIP3    H245667   2.039   6.355   6.650
15264TIP3   OH245668   1.652   5.551   6.441
15264TIP3    H145669   1.604   5.635   6.456
15264TIP3    H245670   1.579   5.496   6.406
15265TIP3   OH245671   1.710   5.837   6.608
15265TIP3    H145672   1.760   5.762   6.648
15265TIP3    H245673   1.772   5.867   6.539
15266TIP3   OH245674   2.561   6.805   6.255
15266TIP3    H145675   2.614   6.732   6.217
15266TIP3    H245676   2.551   6.777   6.347
15267TIP3   OH245677   2.473   6.265   6.612
15267TIP3    H145678   2.511   6.191   6.562
15267TIP3    H245679   2.556   6.311   6.637
15268TIP3   OH245680   3.490   5.587   6.609
15268TIP3    H145681   3.513   5.670   6.656
15268TIP3    H245682   3.497   5.617   6.517
15269TIP3   OH245683   2.885   5.769   6.647
15269TIP3    H145684   2.926   5.683   6.666
15269TIP3    H245685   2.854   5.755   6.556
15270TIP3   OH245686   2.221   5.428   6.611
15270TIP3    H145687   2.199   5.501   6.549
15270TIP3    H245688   2.171   5.355   6.567
15271TIP3   OH245689   2.915   5.517   6.235
15271TIP3    H145690   2.988   5.501   6.298
15271TIP3    H245691   2.964   5.555   6.160
15272TIP3   OH245692   1.855   5.631   6.717
15272TIP3    H145693   1.938   5.611   6.765
15272TIP3    H245694   1.867   5.575   6.638
15273TIP3   OH245695   2.298   5.829   6.505
15273TIP3    H145696   2.390   5.802   6.522
15273TIP3    H245697   2.257   5.744   6.476
15274TIP3   OH245698   3.556   5.793   6.781
15274TIP3    H145699   3.474   5.844   6.761
15274TIP3    H245700   3.572   5.822   6.872
15275TIP3   OH245701   2.218   5.411   7.045
15275TIP3    H145702   2.158   5.449   6.978
15275TIP3    H245703   2.167   5.429   7.126
15276TIP3   OH245704   2.571   6.264   6.052
15276TIP3    H145705   2.522   6.242   5.972
15276TIP3    H245706   2.529   6.350   6.076
15277TIP3   OH245707   2.324   6.186   6.843
15277TIP3    H145708   2.260   6.250   6.881
15277TIP3    H245709   2.366   6.239   6.773
15278TIP3   OH245710   3.130   5.518   6.403
15278TIP3    H145711   3.115   5.472   6.487
15278TIP3    H245712   3.180   5.597   6.431
15279TIP3   OH245713   2.089   5.527   6.830
15279TIP3    H145714   2.150   5.600   6.853
15279TIP3    H245715   2.138   5.486   6.755
15280TIP3   OH245716   2.151   6.378   6.937
15280TIP3    H145717   2.127   6.464   6.897
15280TIP3    H245718   2.072   6.365   6.995
15281TIP3   OH245719   1.551   6.070   6.174
15281TIP3    H145720   1.507   6.097   6.092
15281TIP3    H245721   1.579   6.156   6.212
15282TIP3   OH245722   2.988   6.582   6.411
15282TIP3    H145723   2.899   6.576   6.452
15282TIP3    H245724   2.981   6.670   6.368
15283TIP3   OH245725   3.277   5.487   6.774
15283TIP3    H145726   3.188   5.518   6.750
15283TIP3    H245727   3.332   5.521   6.701
15284TIP3   OH245728   2.578   5.133   6.758
15284TIP3    H145729   2.565   5.038   6.775
15284TIP3    H245730   2.499   5.170   6.804
15285TIP3   OH245731   2.696   6.629   6.092
15285TIP3    H145732   2.748   6.550   6.065
15285TIP3    H245733   2.751   6.699   6.050
15286TIP3   OH245734   2.837   6.414   5.989
15286TIP3    H145735   2.786   6.338   5.958
15286TIP3    H245736   2.870   6.382   6.076
15287TIP3   OH245737   3.213   6.500   6.758
15287TIP3    H145738   3.204   6.424   6.698
15287TIP3    H245739   3.197   6.576   6.698
15288TIP3   OH245740   2.503   5.890   6.012
15288TIP3    H145741   2.423   5.943   5.992
15288TIP3    H245742   2.551   5.893   5.927
15289TIP3   OH245743   2.464   5.676   5.732
15289TIP3    H145744   2.531   5.726   5.782
15289TIP3    H245745   2.522   5.613   5.685
15290TIP3   OH245746   3.408   6.131   6.599
15290TIP3    H145747   3.327   6.186   6.607
15290TIP3    H245748   3.439   6.160   6.510
15291TIP3   OH245749   2.851   5.974   5.987
15291TIP3    H145750   2.796   6.000   6.065
15291TIP3    H245751   2.935   5.949   6.032
15292TIP3   OH245752   3.088   6.016   6.895
15292TIP3    H145753   3.086   6.100   6.944
15292TIP3    H245754   3.001   6.021   6.850
15293TIP3   OH245755   2.084   5.973   6.402
15293TIP3    H145756   2.044   5.916   6.334
15293TIP3    H245757   2.162   5.921   6.430
15294TIP3   OH245758   2.213   6.380   6.554
15294TIP3    H145759   2.194   6.338   6.468
15294TIP3    H245760   2.304   6.351   6.571
15295TIP3   OH245761   2.226   5.944   6.756
15295TIP3    H145762   2.256   5.928   6.665
15295TIP3    H245763   2.265   6.031   6.778
15296TIP3   OH245764   2.749   6.581   6.534
15296TIP3    H145765   2.730   6.663   6.583
15296TIP3    H245766   2.732   6.511   6.600
15297TIP3   OH245767   2.357   6.500   7.082
15297TIP3    H145768   2.298   6.564   7.127
15297TIP3    H245769   2.291   6.448   7.032
15298TIP3   OH245770   2.695   5.832   5.812
15298TIP3    H145771   2.753   5.892   5.865
15298TIP3    H245772   2.721   5.858   5.720
15299TIP3   OH245773   2.111   6.058   7.179
15299TIP3    H145774   2.116   6.145   7.225
15299TIP3    H245775   2.015   6.040   7.189
15300TIP3   OH245776   2.436   6.515   6.085
15300TIP3    H145777   2.511   6.571   6.112
15300TIP3    H245778   2.372   6.581   6.053
15301TIP3   OH245779   2.153   6.671   7.167
15301TIP3    H145780   2.119   6.669   7.075
15301TIP3    H245781   2.073   6.650   7.220
15302TIP3   OH245782   3.211   5.081   5.862
15302TIP3    H145783   3.127   5.096   5.910
15302TIP3    H245784   3.219   5.161   5.808
15303TIP3   OH245785   1.953   5.814   6.204
15303TIP3    H145786   1.887   5.862   6.149
15303TIP3    H245787   1.905   5.733   6.223
15304TIP3   OH245788   3.006   6.442   5.405
15304TIP3    H145789   3.013   6.540   5.395
15304TIP3    H245790   3.099   6.415   5.394
15305TIP3   OH245791   1.733   6.200   7.114
15305TIP3    H145792   1.666   6.178   7.046
15305TIP3    H245793   1.768   6.112   7.139
15306TIP3   OH245794   1.586   6.392   6.749
15306TIP3    H145795   1.682   6.389   6.738
15306TIP3    H245796   1.575   6.473   6.801
15307TIP3   OH245797   3.443   6.852   6.790
15307TIP3    H145798   3.458   6.759   6.814
15307TIP3    H245799   3.362   6.872   6.842
15308TIP3   OH245800   2.559   6.630   6.938
15308TIP3    H145801   2.558   6.723   6.969
15308TIP3    H245802   2.486   6.592   6.992
15309TIP3   OH245803   2.315   6.760   5.888
15309TIP3    H145804   2.268   6.746   5.804
15309TIP3    H245805   2.285   6.849   5.915
15310TIP3   OH245806   1.754   6.609   6.271
15310TIP3    H145807   1.804   6.601   6.355
15310TIP3    H245808   1.690   6.537   6.281
15311TIP3   OH245809   2.518   6.660   5.530
15311TIP3    H145810   2.578   6.590   5.495
15311TIP3    H245811   2.551   6.670   5.622
15312TIP3   OH245812   2.567   6.707   5.800
15312TIP3    H145813   2.480   6.718   5.843
15312TIP3    H245814   2.620   6.673   5.874
15313TIP3   OH245815   3.342   5.975   7.078
15313TIP3    H145816   3.262   5.993   7.027
15313TIP3    H245817   3.353   5.879   7.066
15314TIP3   OH245818   1.938   6.383   7.106
15314TIP3    H145819   1.988   6.365   7.188
15314TIP3    H245820   1.863   6.319   7.113
15315TIP3   OH245821   2.337   5.207   6.885
15315TIP3    H145822   2.247   5.177   6.862
15315TIP3    H245823   2.313   5.290   6.930
15316TIP3   OH245824   2.869   5.322   7.081
15316TIP3    H145825   2.936   5.296   7.147
15316TIP3    H245826   2.784   5.302   7.126
15317TIP3   OH245827   3.113   5.752   7.000
15317TIP3    H145828   3.063   5.748   7.085
15317TIP3    H245829   3.086   5.839   6.965
15318TIP3   OH245830   2.768   5.880   5.555
15318TIP3    H145831   2.737   5.854   5.466
15318TIP3    H245832   2.846   5.935   5.533
15319TIP3   OH245833   2.479   5.261   5.857
15319TIP3    H145834   2.450   5.261   5.950
15319TIP3    H245835   2.457   5.171   5.830
15320TIP3   OH245836   2.268   5.721   6.905
15320TIP3    H145837   2.218   5.743   6.986
15320TIP3    H245838   2.253   5.802   6.851
15321TIP3   OH245839   2.153   5.607   6.419
15321TIP3    H145840   2.059   5.582   6.436
15321TIP3    H245841   2.165   5.566   6.330
15322TIP3   OH245842   2.642   5.693   6.145
15322TIP3    H145843   2.588   5.765   6.106
15322TIP3    H245844   2.696   5.667   6.069
15323TIP3   OH245845   2.817   5.973   7.233
15323TIP3    H145846   2.794   5.901   7.296
15323TIP3    H245847   2.910   5.989   7.256
15324TIP3   OH245848   2.801   5.724   6.388
15324TIP3    H145849   2.742   5.757   6.317
15324TIP3    H245850   2.831   5.641   6.344
15325TIP3   OH245851   2.088   5.751   7.114
15325TIP3    H145852   2.110   5.816   7.183
15325TIP3    H245853   2.075   5.670   7.167
15326TIP3   OH245854   2.139   5.225   5.826
15326TIP3    H145855   2.130   5.227   5.923
15326TIP3    H245856   2.062   5.279   5.800
15327TIP3   OH245857   1.680   5.274   6.693
15327TIP3    H145858   1.754   5.306   6.748
15327TIP3    H245859   1.724   5.241   6.613
15328TIP3   OH245860   1.657   5.256   6.213
15328TIP3    H145861   1.702   5.296   6.136
15328TIP3    H245862   1.595   5.328   6.237
15329TIP3   OH245863   2.811   5.971   6.810
15329TIP3    H145864   2.843   5.898   6.753
15329TIP3    H245865   2.782   5.919   6.889
15330TIP3   OH245866   2.476   5.428   6.481
15330TIP3    H145867   2.393   5.428   6.533
15330TIP3    H245868   2.543   5.434   6.552
15331TIP3   OH245869   1.914   5.486   6.489
15331TIP3    H145870   1.819   5.494   6.464
15331TIP3    H245871   1.936   5.394   6.466
15332TIP3   OH245872   2.186   5.480   6.176
15332TIP3    H145873   2.280   5.500   6.157
15332TIP3    H245874   2.139   5.507   6.094
15333TIP3   OH245875   2.972   5.504   6.680
15333TIP3    H145876   2.939   5.517   6.772
15333TIP3    H245877   2.904   5.444   6.645
15334TIP3   OH245878   2.023   5.512   5.957
15334TIP3    H145879   1.949   5.471   5.909
15334TIP3    H245880   2.074   5.550   5.882
15335TIP3   OH245881   3.140   7.194   6.900
15335TIP3    H145882   3.137   7.218   6.805
15335TIP3    H245883   3.218   7.245   6.930
15336TIP3   OH245884   2.098   6.303   7.324
15336TIP3    H145885   2.178   6.336   7.371
15336TIP3    H245886   2.033   6.304   7.397
15337TIP3   OH245887   2.562   5.756   6.578
15337TIP3    H145888   2.637   5.718   6.528
15337TIP3    H245889   2.574   5.718   6.667
15338TIP3   OH245890   2.087   5.247   6.455
15338TIP3    H145891   2.054   5.166   6.500
15338TIP3    H245892   2.142   5.210   6.385
15339TIP3   OH245893   2.539   5.653   6.870
15339TIP3    H145894   2.450   5.690   6.882
15339TIP3    H245895   2.597   5.714   6.920
15340TIP3   OH245896   2.278   6.046   5.964
15340TIP3    H145897   2.204   5.982   5.952
15340TIP3    H245898   2.260   6.080   6.054
15341TIP3   OH245899   3.179   6.280   6.594
15341TIP3    H145900   3.203   6.331   6.513
15341TIP3    H245901   3.092   6.243   6.570
15342TIP3   OH245902   2.734   5.362   5.824
15342TIP3    H145903   2.637   5.349   5.831
15342TIP3    H245904   2.747   5.456   5.848
15343TIP3   OH245905   2.674   6.362   6.961
15343TIP3    H145906   2.695   6.343   7.054
15343TIP3    H245907   2.638   6.453   6.965
15344TIP3   OH245908   2.806   5.605   5.926
15344TIP3    H145909   2.902   5.613   5.943
15344TIP3    H245910   2.786   5.686   5.874
15345TIP3   OH245911   1.966   6.065   6.641
15345TIP3    H145912   2.006   6.038   6.556
15345TIP3    H245913   2.006   6.002   6.703
15346TIP3   OH245914   2.420   6.195   5.781
15346TIP3    H145915   2.374   6.282   5.788
15346TIP3    H245916   2.366   6.141   5.843
15347TIP3   OH245917   1.848   5.987   7.252
15347TIP3    H145918   1.868   5.975   7.346
15347TIP3    H245919   1.777   5.922   7.238
15348TIP3   OH245920   2.572   6.100   7.273
15348TIP3    H145921   2.514   6.043   7.221
15348TIP3    H245922   2.660   6.069   7.244
15349TIP3   OH245923   2.837   6.617   6.859
15349TIP3    H145924   2.741   6.622   6.868
15349TIP3    H245925   2.865   6.673   6.934
15350TIP3   OH245926   3.249   5.694   5.764
15350TIP3    H145927   3.185   5.649   5.703
15350TIP3    H245928   3.244   5.783   5.724
15351TIP3   OH245929   3.464   6.545   6.851
15351TIP3    H145930   3.367   6.549   6.841
15351TIP3    H245931   3.489   6.521   6.759
15352TIP3   OH245932   2.946   6.515   5.671
15352TIP3    H145933   2.920   6.448   5.736
15352TIP3    H245934   2.957   6.464   5.589
15353TIP3   OH245935   2.942   6.143   6.514
15353TIP3    H145936   2.849   6.118   6.527
15353TIP3    H245937   2.976   6.065   6.468
15354TIP3   OH245938   2.068   6.368   6.260
15354TIP3    H145939   2.072   6.453   6.211
15354TIP3    H245940   1.973   6.360   6.274
15355TIP3   OH245941   1.631   5.676   5.966
15355TIP3    H145942   1.678   5.760   5.985
15355TIP3    H245943   1.554   5.683   6.026
15356TIP3   OH245944   2.211   6.138   6.209
15356TIP3    H145945   2.174   6.227   6.225
15356TIP3    H245946   2.173   6.089   6.285
15357TIP3   OH245947   2.337   6.716   6.732
15357TIP3    H145948   2.373   6.790   6.680
15357TIP3    H245949   2.416   6.687   6.781
15358TIP3   OH245950   1.990   6.611   6.117
15358TIP3    H145951   1.904   6.619   6.162
15358TIP3    H245952   2.023   6.703   6.123
15359TIP3   OH245953   2.727   6.348   6.692
15359TIP3    H145954   2.719   6.348   6.790
15359TIP3    H245955   2.810   6.300   6.680
15360TIP3   OH245956   2.698   6.238   5.573
15360TIP3    H145957   2.752   6.214   5.653
15360TIP3    H245958   2.609   6.217   5.605
15361TIP3   OH245959   2.975   6.884   6.742
15361TIP3    H145960   2.895   6.830   6.731
15361TIP3    H245961   2.962   6.950   6.670
15362TIP3   OH245962   3.040   6.718   5.394
15362TIP3    H145963   3.079   6.792   5.344
15362TIP3    H245964   2.960   6.764   5.428
15363TIP3   OH245965   2.062   5.493   7.262
15363TIP3    H145966   1.966   5.500   7.278
15363TIP3    H245967   2.089   5.433   7.334
15364TIP3   OH245968   2.858   6.171   5.788
15364TIP3    H145969   2.850   6.109   5.863
15364TIP3    H245970   2.956   6.174   5.779
15365TIP3   OH245971   1.775   6.579   6.894
15365TIP3    H145972   1.828   6.503   6.924
15365TIP3    H245973   1.808   6.648   6.953
15366TIP3   OH245974   2.068   6.223   5.572
15366TIP3    H145975   2.082   6.130   5.545
15366TIP3    H245976   2.051   6.211   5.668
15367TIP3   OH245977   2.015   6.227   5.845
15367TIP3    H145978   2.082   6.202   5.910
15367TIP3    H245979   2.017   6.325   5.851
15368TIP3   OH245980   1.750   5.922   6.049
15368TIP3    H145981   1.684   5.967   6.106
15368TIP3    H245982   1.764   5.992   5.982
15369TIP3   OH245983   2.899   5.555   6.938
15369TIP3    H145984   2.974   5.597   6.984
15369TIP3    H245985   2.881   5.477   6.993
15370TIP3   OH245986   2.773   5.312   6.104
15370TIP3    H145987   2.763   5.336   6.010
15370TIP3    H245988   2.814   5.393   6.141
15371TIP3   OH245989   2.277   6.425   5.792
15371TIP3    H145990   2.192   6.453   5.831
15371TIP3    H245991   2.297   6.501   5.737
15372TIP3   OH245992   2.468   5.486   6.207
15372TIP3    H145993   2.533   5.558   6.189
15372TIP3    H245994   2.472   5.481   6.305
15373TIP3   OH245995   2.736   5.808   7.018
15373TIP3    H145996   2.751   5.866   7.095
15373TIP3    H245997   2.792   5.732   7.037
15374TIP3   OH245998   2.613   5.219   6.313
15374TIP3    H145999   2.604   5.295   6.372
15374TIP3    H246000   2.672   5.257   6.243
15375TIP3   OH246001   2.018   6.500   5.862
15375TIP3    H146002   1.990   6.570   5.799
15375TIP3    H246003   2.004   6.545   5.948
15376TIP3   OH246004   2.124   5.213   6.100
15376TIP3    H146005   2.118   5.304   6.136
15376TIP3    H246006   2.220   5.197   6.111
15377TIP3   OH246007   3.378   5.704   6.996
15377TIP3    H146008   3.280   5.705   7.006
15377TIP3    H246009   3.386   5.673   6.905
15378TIP3   OH246010   3.029   5.901   6.384
15378TIP3    H146011   2.952   5.843   6.398
15378TIP3    H246012   3.099   5.854   6.434
15379TIP3   OH246013   1.738   6.134   5.857
15379TIP3    H146014   1.798   6.210   5.866
15379TIP3    H246015   1.787   6.083   5.788
15380TIP3   OH246016   1.686   5.407   5.985
15380TIP3    H146017   1.685   5.505   5.982
15380TIP3    H246018   1.598   5.385   5.953
15381TIP3   OH246019   2.997   6.853   6.336
15381TIP3    H146020   2.954   6.901   6.261
15381TIP3    H246021   3.090   6.875   6.316
15382TIP3   OH246022   2.073   5.127   6.863
15382TIP3    H146023   2.040   5.094   6.777
15382TIP3    H246024   2.062   5.048   6.921
15383TIP3   OH246025   1.611   6.341   6.246
15383TIP3    H146026   1.537   6.376   6.297
15383TIP3    H246027   1.594   6.383   6.159
15384TIP3   OH246028   1.765   6.884   7.316
15384TIP3    H146029   1.852   6.881   7.362
15384TIP3    H246030   1.744   6.789   7.312
15385TIP3   OH246031   2.250   6.853   7.360
15385TIP3    H146032   2.345   6.834   7.366
15385TIP3    H246033   2.226   6.796   7.284
15386TIP3   OH246034   2.230   6.428   5.486
15386TIP3    H146035   2.173   6.358   5.527
15386TIP3    H246036   2.305   6.374   5.457
15387TIP3   OH246037   2.888   6.758   7.091
15387TIP3    H146038   2.880   6.687   7.160
15387TIP3    H246039   2.966   6.808   7.122
15388TIP3   OH246040   2.667   6.468   5.397
15388TIP3    H146041   2.714   6.407   5.456
15388TIP3    H246042   2.725   6.471   5.318
15389TIP3   OH246043   1.898   6.293   7.515
15389TIP3    H146044   1.915   6.197   7.519
15389TIP3    H246045   1.810   6.295   7.472
15390TIP3   OH246046   1.874   5.945   5.705
15390TIP3    H146047   1.929   5.913   5.779
15390TIP3    H246048   1.943   5.950   5.635
15391TIP3   OH246049   2.507   6.376   7.288
15391TIP3    H146050   2.464   6.392   7.201
15391TIP3    H246051   2.537   6.283   7.280
15392TIP3   OH246052   2.382   6.141   5.512
15392TIP3    H146053   2.384   6.156   5.609
15392TIP3    H246054   2.379   6.043   5.509
15393TIP3   OH246055   2.998   6.382   6.892
15393TIP3    H146056   3.072   6.429   6.849
15393TIP3    H246057   2.927   6.448   6.883
15394TIP3   OH246058   2.016   6.025   7.495
15394TIP3    H146059   2.090   5.965   7.479
15394TIP3    H246060   2.039   6.059   7.584
15395TIP3   OH246061   2.084   5.846   5.931
15395TIP3    H146062   2.056   5.807   6.015
15395TIP3    H246063   2.118   5.769   5.881
15396TIP3   OH246064   2.352   5.911   7.158
15396TIP3    H146065   2.275   5.971   7.163
15396TIP3    H246066   2.398   5.945   7.078
15397TIP3   OH246067   2.182   5.636   5.771
15397TIP3    H146068   2.155   5.641   5.677
15397TIP3    H246069   2.279   5.647   5.763
15398TIP3   OH246070   2.866   6.312   7.293
15398TIP3    H146071   2.949   6.295   7.245
15398TIP3    H246072   2.868   6.245   7.363
15399TIP3   OH246073   3.009   5.973   5.430
15399TIP3    H146074   2.984   5.926   5.348
15399TIP3    H246075   2.977   6.063   5.407
15400TIP3   OH246076   2.476   5.699   7.285
15400TIP3    H146077   2.474   5.618   7.230
15400TIP3    H246078   2.432   5.765   7.227
15401TIP3   OH246079   2.477   5.483   7.090
15401TIP3    H146080   2.504   5.527   7.006
15401TIP3    H246081   2.383   5.462   7.073
15402TIP3   OH246082   2.508   6.021   6.962
15402TIP3    H146083   2.590   6.032   6.912
15402TIP3    H246084   2.450   6.090   6.922
15403TIP3   OH246085   3.088   5.990   7.347
15403TIP3    H146086   3.139   5.908   7.357
15403TIP3    H246087   3.155   6.051   7.313
15404TIP3   OH246088   3.129   6.239   7.081
15404TIP3    H146089   3.071   6.293   7.022
15404TIP3    H246090   3.216   6.261   7.040
15405TIP3   OH246091   2.352   5.814   7.513
15405TIP3    H146092   2.283   5.747   7.527
15405TIP3    H246093   2.387   5.788   7.426
15406TIP3   OH246094   2.610   5.249   7.156
15406TIP3    H146095   2.562   5.332   7.134
15406TIP3    H246096   2.539   5.183   7.145
15407TIP3   OH246097   2.737   5.755   7.374
15407TIP3    H146098   2.726   5.745   7.470
15407TIP3    H246099   2.646   5.731   7.345
15408TIP3   OH246100   2.975   5.699   7.227
15408TIP3    H146101   2.899   5.705   7.288
15408TIP3    H246102   3.047   5.671   7.286
15409TIP3   OH246103   3.207   5.643   7.381
15409TIP3    H146104   3.217   5.548   7.402
15409TIP3    H246105   3.200   5.684   7.470
15410TIP3   OH246106   2.192   5.594   7.565
15410TIP3    H146107   2.200   5.503   7.530
15410TIP3    H246108   2.227   5.581   7.656
15411TIP3   OH246109   2.706   5.260   7.413
15411TIP3    H146110   2.773   5.189   7.408
15411TIP3    H246111   2.665   5.253   7.324
15412TIP3   OH246112   2.770   5.474   7.574
15412TIP3    H146113   2.747   5.404   7.509
15412TIP3    H246114   2.693   5.534   7.568
15413TIP3   OH246115   1.988   6.700   5.672
15413TIP3    H146116   2.085   6.700   5.655
15413TIP3    H246117   1.958   6.751   5.594
15414TIP3   OH246118   1.470   6.085   5.891
15414TIP3    H146119   1.565   6.107   5.879
15414TIP3    H246120   1.466   5.996   5.849
15415TIP3   OH246121   1.384   6.697   6.302
15415TIP3    H146122   1.315   6.635   6.269
15415TIP3    H246123   1.428   6.641   6.370
15416TIP3   OH246124   1.522   6.551   6.489
15416TIP3    H146125   1.509   6.477   6.550
15416TIP3    H246126   1.572   6.612   6.546
15417TIP3   OH246127   3.248   6.949   6.290
15417TIP3    H146128   3.273   6.981   6.378
15417TIP3    H246129   3.308   6.998   6.232
15418TIP3   OH246130   3.277   6.970   6.571
15418TIP3    H146131   3.237   6.881   6.568
15418TIP3    H246132   3.355   6.950   6.627
15419TIP3   OH246133   3.324   6.645   7.146
15419TIP3    H146134   3.250   6.654   7.209
15419TIP3    H246135   3.365   6.734   7.149
15420TIP3   OH246136   3.141   6.159   5.765
15420TIP3    H146137   3.209   6.224   5.740
15420TIP3    H246138   3.182   6.119   5.845
15421TIP3   OH246139   3.268   6.025   5.968
15421TIP3    H146140   3.202   5.984   6.028
15421TIP3    H246141   3.331   6.067   6.030
15422TIP3   OH246142   3.319   6.416   6.401
15422TIP3    H146143   3.373   6.358   6.345
15422TIP3    H246144   3.308   6.495   6.344
15423TIP3   OH246145   3.153   6.717   6.598
15423TIP3    H146146   3.084   6.763   6.648
15423TIP3    H246147   3.101   6.671   6.529
15424TIP3   OH246148   3.206   5.933   5.617
15424TIP3    H146149   3.134   5.938   5.549
15424TIP3    H246150   3.180   6.010   5.672
15425TIP3   OH246151   3.079   5.607   5.571
15425TIP3    H146152   3.034   5.649   5.497
15425TIP3    H246153   3.051   5.514   5.561
15426TIP3   OH246154   3.083   5.882   6.116
15426TIP3    H146155   3.090   5.785   6.113
15426TIP3    H246156   3.069   5.898   6.212
15427TIP3   OH246157   1.710   5.954   6.862
15427TIP3    H146158   1.708   5.928   6.768
15427TIP3    H246159   1.807   5.957   6.878
15428TIP3   OH246160   3.369   6.306   6.972
15428TIP3    H146161   3.445   6.244   6.963
15428TIP3    H246162   3.398   6.381   6.916
15429TIP3   OH246163   3.556   6.114   6.990
15429TIP3    H146164   3.482   6.064   7.032
15429TIP3    H246165   3.630   6.051   7.004
15430TIP3   OH246166   3.019   5.342   5.561
15430TIP3    H146167   3.098   5.310   5.608
15430TIP3    H246168   2.950   5.279   5.587
15431TIP3   OH246169   3.077   5.598   6.013
15431TIP3    H146170   3.118   5.509   6.028
15431TIP3    H246171   3.136   5.632   5.944
15432TIP3   OH246172   3.243   5.771   6.507
15432TIP3    H146173   3.327   5.801   6.467
15432TIP3    H246174   3.252   5.812   6.596
15433TIP3   OH246175   3.307   5.916   6.739
15433TIP3    H146176   3.229   5.950   6.788
15433TIP3    H246177   3.338   5.997   6.694
15434TIP3   OH246178   1.925   5.643   7.535
15434TIP3    H146179   2.023   5.637   7.538
15434TIP3    H246180   1.900   5.560   7.579
15435TIP3   OH246181   3.763   5.507   7.296
15435TIP3    H146182   3.818   5.440   7.251
15435TIP3    H246183   3.732   5.563   7.221
15436TIP3   OH246184   3.188   5.348   6.049
15436TIP3    H146185   3.234   5.332   6.134
15436TIP3    H246186   3.128   5.271   6.046
15437TIP3   OH246187   1.887   5.334   6.865
15437TIP3    H146188   1.951   5.261   6.879
15437TIP3    H246189   1.947   5.411   6.863
15438TIP3   OH246190   1.692   5.609   6.943
15438TIP3    H146191   1.740   5.604   6.858
15438TIP3    H246192   1.716   5.697   6.974
15439TIP3   OH246193   3.633   5.647   7.104
15439TIP3    H146194   3.548   5.689   7.130
15439TIP3    H246195   3.600   5.579   7.043
15440TIP3   OH246196   3.274   5.285   5.670
15440TIP3    H146197   3.336   5.219   5.636
15440TIP3    H246198   3.330   5.365   5.672
15441TIP3   OH246199   1.672   5.109   6.440
15441TIP3    H146200   1.579   5.111   6.469
15441TIP3    H246201   1.671   5.170   6.363
15442TIP3   OH246202   2.835   6.808   5.947
15442TIP3    H146203   2.889   6.800   5.866
15442TIP3    H246204   2.877   6.882   5.993
15443TIP3   OH246205   1.892   5.190   7.256
15443TIP3    H146206   1.843   5.187   7.340
15443TIP3    H246207   1.826   5.231   7.198
15444TIP3   OH246208   1.933   6.619   7.336
15444TIP3    H146209   1.842   6.590   7.317
15444TIP3    H246210   1.941   6.600   7.430
15445TIP3   OH246211   2.111   6.649   6.882
15445TIP3    H146212   2.062   6.725   6.843
15445TIP3    H246213   2.197   6.664   6.837
15446TIP3   OH246214   2.558   6.895   7.020
15446TIP3    H146215   2.600   6.899   7.109
15446TIP3    H246216   2.623   6.946   6.967
15447TIP3   OH246217   2.737   7.044   6.879
15447TIP3    H146218   2.810   6.997   6.835
15447TIP3    H246219   2.788   7.104   6.939
15448TIP3   OH246220   3.533   5.412   6.974
15448TIP3    H146221   3.440   5.413   6.946
15448TIP3    H246222   3.555   5.317   6.963
15449TIP3   OH246223   1.787   6.906   6.906
15449TIP3    H146224   1.701   6.945   6.879
15449TIP3    H246225   1.793   6.940   6.995
15450TIP3   OH246226   2.024   6.883   6.762
15450TIP3    H146227   1.938   6.900   6.806
15450TIP3    H246228   2.007   6.919   6.673
15451TIP3   OH246229   2.447   6.920   6.555
15451TIP3    H146230   2.384   6.938   6.482
15451TIP3    H246231   2.458   7.010   6.592
15452TIP3   OH246232   2.715   6.857   6.609
15452TIP3    H146233   2.620   6.875   6.591
15452TIP3    H246234   2.756   6.935   6.570
15453TIP3   OH246235   2.930   7.050   6.529
15453TIP3    H146236   2.912   7.135   6.483
15453TIP3    H246237   2.952   6.991   6.454
15454TIP3   OH246238   1.698   6.703   6.650
15454TIP3    H146239   1.726   6.679   6.741
15454TIP3    H246240   1.771   6.660   6.599
15455TIP3   OH246241   1.890   6.573   6.504
15455TIP3    H146242   1.908   6.490   6.554
15455TIP3    H246243   1.980   6.613   6.501
15456TIP3   OH246244   2.151   6.665   6.513
15456TIP3    H146245   2.190   6.577   6.500
15456TIP3    H246246   2.198   6.692   6.594
15457TIP3   OH246247   2.736   5.326   6.596
15457TIP3    H146248   2.691   5.259   6.650
15457TIP3    H246249   2.805   5.274   6.552
15458TIP3   OH246250   3.264   5.207   6.505
15458TIP3    H146251   3.295   5.259   6.427
15458TIP3    H246252   3.167   5.222   6.499
15459TIP3   OH246253   3.354   5.307   6.268
15459TIP3    H146254   3.426   5.256   6.224
15459TIP3    H246255   3.386   5.399   6.250
15460TIP3   OH246256   1.985   5.035   6.614
15460TIP3    H146257   1.892   5.001   6.614
15460TIP3    H246258   2.034   4.950   6.611
15461TIP3   OH246259   1.769   4.903   6.258
15461TIP3    H146260   1.798   4.965   6.188
15461TIP3    H246261   1.738   4.966   6.327
15462TIP3   OH246262   2.426   5.067   6.493
15462TIP3    H146263   2.486   5.120   6.437
15462TIP3    H246264   2.442   5.104   6.580
15463TIP3   OH246265   2.982   5.211   6.478
15463TIP3    H146266   2.971   5.179   6.388
15463TIP3    H246267   2.963   5.131   6.532
15464TIP3   OH246268   3.003   5.136   6.041
15464TIP3    H146269   2.915   5.176   6.048
15464TIP3    H246270   2.989   5.051   6.089
15465TIP3   OH246271   1.488   6.472   6.043
15465TIP3    H146272   1.402   6.441   6.007
15465TIP3    H246273   1.477   6.567   6.030
15466TIP3   OH246274   1.884   5.066   6.027
15466TIP3    H146275   1.934   5.006   5.970
15466TIP3    H246276   1.955   5.122   6.064
15467TIP3   OH246277   2.402   5.236   6.123
15467TIP3    H146278   2.462   5.192   6.186
15467TIP3    H246279   2.420   5.329   6.148
15468TIP3   OH246280   2.258   6.666   5.622
15468TIP3    H146281   2.347   6.688   5.587
15468TIP3    H246282   2.237   6.590   5.563
15469TIP3   OH246283   2.981   6.782   5.713
15469TIP3    H146284   2.970   6.684   5.701
15469TIP3    H246285   2.932   6.815   5.635
15470TIP3   OH246286   2.192   5.315   7.503
15470TIP3    H146287   2.158   5.246   7.562
15470TIP3    H246288   2.286   5.316   7.530
15471TIP3   OH246289   2.440   5.312   7.624
15471TIP3    H146290   2.525   5.286   7.585
15471TIP3    H246291   2.427   5.242   7.691
15472TIP3   OH246292   1.562   6.500   5.682
15472TIP3    H146293   1.560   6.531   5.774
15472TIP3    H246294   1.652   6.462   5.674
15473TIP3   OH246295   3.263   5.371   7.412
15473TIP3    H146296   3.283   5.341   7.504
15473TIP3    H246297   3.352   5.367   7.371
15474TIP3   OH246298   3.201   6.925   6.908
15474TIP3    H146299   3.124   6.895   6.857
15474TIP3    H246300   3.186   7.022   6.907
15475TIP3   OH246301   4.471   6.298   5.671
15475TIP3    H146302   4.444   6.390   5.652
15475TIP3    H246303   4.392   6.250   5.639
15476TIP3   OH246304   4.473   6.296   6.047
15476TIP3    H146305   4.498   6.267   6.136
15476TIP3    H246306   4.426   6.219   6.012
15477TIP3   OH246307   3.773   6.193   6.411
15477TIP3    H146308   3.804   6.131   6.479
15477TIP3    H246309   3.841   6.262   6.416
15478TIP3   OH246310   4.713   6.598   5.731
15478TIP3    H146311   4.697   6.530   5.797
15478TIP3    H246312   4.737   6.675   5.786
15479TIP3   OH246313   3.734   6.601   6.138
15479TIP3    H146314   3.730   6.503   6.143
15479TIP3    H246315   3.830   6.615   6.147
15480TIP3   OH246316   3.448   5.808   5.929
15480TIP3    H146317   3.400   5.891   5.943
15480TIP3    H246318   3.376   5.753   5.893
15481TIP3   OH246319   3.507   6.094   6.095
15481TIP3    H146320   3.556   6.019   6.134
15481TIP3    H246321   3.567   6.124   6.026
15482TIP3   OH246322   4.360   7.063   5.745
15482TIP3    H146323   4.409   6.990   5.703
15482TIP3    H246324   4.348   7.031   5.835
15483TIP3   OH246325   4.269   6.521   6.098
15483TIP3    H146326   4.307   6.447   6.048
15483TIP3    H246327   4.352   6.567   6.123
15484TIP3   OH246328   5.281   5.844   6.097
15484TIP3    H146329   5.308   5.928   6.140
15484TIP3    H246330   5.299   5.865   6.003
15485TIP3   OH246331   4.679   6.025   6.134
15485TIP3    H146332   4.723   5.940   6.152
15485TIP3    H246333   4.650   6.012   6.042
15486TIP3   OH246334   4.017   5.683   6.099
15486TIP3    H146335   3.997   5.757   6.038
15486TIP3    H246336   3.969   5.610   6.052
15487TIP3   OH246337   4.710   5.775   5.722
15487TIP3    H146338   4.783   5.759   5.785
15487TIP3    H246339   4.761   5.810   5.646
15488TIP3   OH246340   3.652   5.887   6.205
15488TIP3    H146341   3.736   5.869   6.251
15488TIP3    H246342   3.663   5.831   6.125
15489TIP3   OH246343   4.094   6.085   5.991
15489TIP3    H146344   4.187   6.058   6.008
15489TIP3    H246345   4.054   6.000   5.962
15490TIP3   OH246346   5.354   6.052   6.266
15490TIP3    H146347   5.271   6.100   6.246
15490TIP3    H246348   5.363   6.072   6.361
15491TIP3   OH246349   4.001   5.638   6.535
15491TIP3    H146350   3.959   5.691   6.464
15491TIP3    H246351   3.955   5.674   6.613
15492TIP3   OH246352   4.367   6.521   5.539
15492TIP3    H146353   4.319   6.495   5.460
15492TIP3    H246354   4.323   6.605   5.561
15493TIP3   OH246355   4.122   6.441   6.330
15493TIP3    H146356   4.057   6.504   6.369
15493TIP3    H246357   4.161   6.496   6.259
15494TIP3   OH246358   4.924   5.777   5.889
15494TIP3    H146359   4.920   5.723   5.969
15494TIP3    H246360   4.978   5.852   5.918
15495TIP3   OH246361   3.888   5.779   6.321
15495TIP3    H146362   3.946   5.856   6.342
15495TIP3    H246363   3.936   5.743   6.243
15496TIP3   OH246364   3.949   6.629   6.422
15496TIP3    H146365   3.926   6.715   6.380
15496TIP3    H246366   3.870   6.620   6.480
15497TIP3   OH246367   3.347   6.326   5.661
15497TIP3    H146368   3.302   6.354   5.579
15497TIP3    H246369   3.375   6.412   5.699
15498TIP3   OH246370   4.786   6.841   5.901
15498TIP3    H146371   4.697   6.832   5.942
15498TIP3    H246372   4.776   6.927   5.856
15499TIP3   OH246373   5.074   5.746   6.264
15499TIP3    H146374   4.985   5.774   6.234
15499TIP3    H246375   5.131   5.775   6.190
15500TIP3   OH246376   4.382   5.386   6.231
15500TIP3    H146377   4.375   5.291   6.254
15500TIP3    H246378   4.312   5.425   6.284
15501TIP3   OH246379   4.491   6.889   5.580
15501TIP3    H146380   4.540   6.807   5.555
15501TIP3    H246381   4.548   6.956   5.535
15502TIP3   OH246382   4.631   6.674   5.478
15502TIP3    H146383   4.585   6.597   5.442
15502TIP3    H246384   4.665   6.639   5.563
15503TIP3   OH246385   5.011   6.757   6.244
15503TIP3    H146386   4.999   6.679   6.185
15503TIP3    H246387   4.992   6.832   6.182
15504TIP3   OH246388   4.301   6.149   5.500
15504TIP3    H146389   4.220   6.200   5.479
15504TIP3    H246390   4.346   6.147   5.414
15505TIP3   OH246391   4.260   5.933   5.220
15505TIP3    H146392   4.328   5.983   5.268
15505TIP3    H246393   4.316   5.869   5.172
15506TIP3   OH246394   5.206   6.393   6.089
15506TIP3    H146395   5.123   6.444   6.095
15506TIP3    H246396   5.234   6.416   5.997
15507TIP3   OH246397   4.648   6.232   5.474
15507TIP3    H146398   4.593   6.257   5.551
15507TIP3    H246399   4.731   6.205   5.518
15508TIP3   OH246400   4.884   6.273   6.382
15508TIP3    H146401   4.881   6.357   6.432
15508TIP3    H246402   4.797   6.276   6.337
15509TIP3   OH246403   3.881   6.230   5.889
15509TIP3    H146404   3.839   6.173   5.821
15509TIP3    H246405   3.959   6.177   5.915
15510TIP3   OH246406   4.013   6.645   6.034
15510TIP3    H146407   3.990   6.594   5.956
15510TIP3    H246408   4.102   6.612   6.056
15511TIP3   OH246409   4.026   6.198   6.242
15511TIP3    H146410   4.054   6.186   6.150
15511TIP3    H246411   4.062   6.287   6.265
15512TIP3   OH246412   4.546   6.838   6.021
15512TIP3    H146413   4.527   6.918   6.073
15512TIP3    H246414   4.528   6.765   6.084
15513TIP3   OH246415   4.145   6.763   6.568
15513TIP3    H146416   4.086   6.828   6.608
15513TIP3    H246417   4.080   6.709   6.517
15514TIP3   OH246418   4.491   6.088   5.299
15514TIP3    H146419   4.549   6.148   5.352
15514TIP3    H246420   4.517   6.114   5.207
15515TIP3   OH246421   3.907   6.313   6.666
15515TIP3    H146422   3.914   6.399   6.711
15515TIP3    H246423   3.811   6.297   6.676
15516TIP3   OH246424   4.233   6.770   5.571
15516TIP3    H146425   4.306   6.827   5.599
15516TIP3    H246426   4.167   6.833   5.538
15517TIP3   OH246427   5.014   5.342   5.351
15517TIP3    H146428   4.928   5.344   5.399
15517TIP3    H246429   5.013   5.427   5.303
15518TIP3   OH246430   3.748   6.071   5.693
15518TIP3    H146431   3.683   6.119   5.637
15518TIP3    H246432   3.701   5.989   5.708
15519TIP3   OH246433   4.802   6.699   4.894
15519TIP3    H146434   4.810   6.797   4.881
15519TIP3    H246435   4.895   6.671   4.882
15520TIP3   OH246436   3.525   6.454   6.603
15520TIP3    H146437   3.460   6.434   6.533
15520TIP3    H246438   3.562   6.367   6.626
15521TIP3   OH246439   3.384   6.649   6.238
15521TIP3    H146440   3.480   6.648   6.228
15521TIP3    H246441   3.371   6.729   6.290
15522TIP3   OH246442   5.249   7.100   6.287
15522TIP3    H146443   5.246   7.004   6.302
15522TIP3    H246444   5.166   7.126   6.333
15523TIP3   OH246445   4.355   6.883   6.427
15523TIP3    H146446   4.355   6.977   6.457
15523TIP3    H246447   4.279   6.848   6.478
15524TIP3   OH246448   4.113   7.018   5.374
15524TIP3    H146449   4.065   6.998   5.292
15524TIP3    H246450   4.079   7.107   5.398
15525TIP3   OH246451   3.551   6.866   5.758
15525TIP3    H146452   3.600   6.857   5.843
15525TIP3    H246453   3.486   6.795   5.768
15526TIP3   OH246454   4.316   6.918   5.017
15526TIP3    H146455   4.374   6.847   4.981
15526TIP3    H246456   4.348   6.926   5.109
15527TIP3   OH246457   4.364   6.964   5.287
15527TIP3    H146458   4.276   6.975   5.328
15527TIP3    H246459   4.413   6.922   5.360
15528TIP3   OH246460   5.140   6.234   6.562
15528TIP3    H146461   5.058   6.249   6.513
15528TIP3    H246462   5.152   6.138   6.551
15529TIP3   OH246463   3.735   6.631   6.588
15529TIP3    H146464   3.773   6.637   6.678
15529TIP3    H246465   3.658   6.573   6.602
15530TIP3   OH246466   4.671   5.578   6.567
15530TIP3    H146467   4.740   5.553   6.631
15530TIP3    H246468   4.588   5.560   6.615
15531TIP3   OH246469   4.908   6.009   6.487
15531TIP3    H146470   4.859   6.004   6.572
15531TIP3    H246471   4.881   6.095   6.452
15532TIP3   OH246472   4.565   6.139   5.043
15532TIP3    H146473   4.533   6.112   4.955
15532TIP3    H246474   4.644   6.190   5.018
15533TIP3   OH246475   4.281   5.516   5.344
15533TIP3    H146476   4.249   5.514   5.437
15533TIP3    H246477   4.242   5.432   5.312
15534TIP3   OH246478   4.064   5.977   6.393
15534TIP3    H146479   4.013   6.001   6.473
15534TIP3    H246480   4.050   6.058   6.338
15535TIP3   OH246481   3.950   5.862   5.908
15535TIP3    H146482   3.856   5.838   5.923
15535TIP3    H246483   3.963   5.823   5.818
15536TIP3   OH246484   4.439   5.951   5.633
15536TIP3    H146485   4.384   6.022   5.592
15536TIP3    H246486   4.493   5.922   5.557
15537TIP3   OH246487   4.613   6.230   6.719
15537TIP3    H146488   4.590   6.158   6.782
15537TIP3    H246489   4.706   6.246   6.742
15538TIP3   OH246490   4.596   5.981   5.874
15538TIP3    H146491   4.538   6.012   5.802
15538TIP3    H246492   4.628   5.898   5.832
15539TIP3   OH246493   3.886   6.009   6.602
15539TIP3    H146494   3.901   6.078   6.668
15539TIP3    H246495   3.869   5.931   6.657
15540TIP3   OH246496   3.934   5.485   5.313
15540TIP3    H146497   3.924   5.482   5.410
15540TIP3    H246498   3.855   5.538   5.288
15541TIP3   OH246499   3.474   5.531   6.180
15541TIP3    H146500   3.552   5.563   6.230
15541TIP3    H246501   3.512   5.497   6.098
15542TIP3   OH246502   3.451   5.512   5.700
15542TIP3    H146503   3.497   5.550   5.623
15542TIP3    H246504   3.391   5.586   5.723
15543TIP3   OH246505   4.608   6.227   6.298
15543TIP3    H146506   4.640   6.154   6.240
15543TIP3    H246507   4.578   6.177   6.376
15544TIP3   OH246508   4.274   5.687   5.967
15544TIP3    H146509   4.190   5.686   6.017
15544TIP3    H246510   4.340   5.695   6.038
15545TIP3   OH246511   3.709   5.742   5.978
15545TIP3    H146512   3.615   5.751   5.951
15545TIP3    H246513   3.731   5.650   5.952
15546TIP3   OH246514   3.982   5.740   5.664
15546TIP3    H146515   4.076   5.756   5.642
15546TIP3    H246516   3.934   5.764   5.581
15547TIP3   OH246517   4.769   5.762   6.169
15547TIP3    H146518   4.733   5.774   6.260
15547TIP3    H246519   4.704   5.701   6.131
15548TIP3   OH246520   3.819   5.770   5.444
15548TIP3    H146521   3.745   5.728   5.397
15548TIP3    H246522   3.870   5.807   5.369
15549TIP3   OH246523   4.935   7.451   6.388
15549TIP3    H146524   4.935   7.474   6.294
15549TIP3    H246525   5.014   7.499   6.420
15550TIP3   OH246526   3.897   6.551   6.818
15550TIP3    H146527   3.974   6.591   6.864
15550TIP3    H246528   3.826   6.577   6.880
15551TIP3   OH246529   4.359   6.012   6.063
15551TIP3    H146530   4.434   5.977   6.011
15551TIP3    H246531   4.376   5.974   6.151
15552TIP3   OH246532   3.886   5.503   5.941
15552TIP3    H146533   3.850   5.424   5.987
15552TIP3    H246534   3.934   5.464   5.867
15553TIP3   OH246535   4.335   5.906   6.365
15553TIP3    H146536   4.247   5.949   6.371
15553TIP3    H246537   4.394   5.970   6.409
15554TIP3   OH246538   4.074   6.303   5.450
15554TIP3    H146539   4.000   6.238   5.439
15554TIP3    H246540   4.056   6.337   5.541
15555TIP3   OH246541   4.974   6.538   6.081
15555TIP3    H146542   4.997   6.587   5.999
15555TIP3    H246543   4.887   6.498   6.058
15556TIP3   OH246544   4.532   5.619   5.303
15556TIP3    H146545   4.435   5.602   5.316
15556TIP3    H246546   4.543   5.711   5.332
15557TIP3   OH246547   4.476   6.622   6.447
15557TIP3    H146548   4.488   6.599   6.540
15557TIP3    H246549   4.432   6.709   6.452
15558TIP3   OH246550   4.601   5.860   5.414
15558TIP3    H146551   4.697   5.867   5.430
15558TIP3    H246552   4.582   5.940   5.361
15559TIP3   OH246553   3.763   6.320   6.129
15559TIP3    H146554   3.803   6.294   6.043
15559TIP3    H246555   3.802   6.257   6.191
15560TIP3   OH246556   4.217   6.452   5.269
15560TIP3    H146557   4.170   6.539   5.277
15560TIP3    H246558   4.163   6.397   5.330
15561TIP3   OH246559   3.646   6.240   6.737
15561TIP3    H146560   3.667   6.233   6.832
15561TIP3    H246561   3.572   6.178   6.728
15562TIP3   OH246562   4.369   6.357   6.760
15562TIP3    H146563   4.309   6.300   6.708
15562TIP3    H246564   4.456   6.326   6.730
15563TIP3   OH246565   4.634   6.880   6.341
15563TIP3    H146566   4.538   6.877   6.354
15563TIP3    H246567   4.661   6.931   6.421
15564TIP3   OH246568   5.047   5.949   5.249
15564TIP3    H146569   4.983   5.903   5.190
15564TIP3    H246570   5.041   6.038   5.209
15565TIP3   OH246571   5.261   6.808   6.333
15565TIP3    H146572   5.163   6.804   6.325
15565TIP3    H246573   5.285   6.778   6.242
15566TIP3   OH246574   4.744   6.771   5.159
15566TIP3    H146575   4.716   6.702   5.222
15566TIP3    H246576   4.753   6.723   5.075
15567TIP3   OH246577   4.739   6.400   6.001
15567TIP3    H146578   4.646   6.375   6.014
15567TIP3    H246579   4.773   6.321   5.955
15568TIP3   OH246580   3.863   6.623   5.743
15568TIP3    H146581   3.864   6.708   5.696
15568TIP3    H246582   3.769   6.615   5.765
15569TIP3   OH246583   3.428   5.932   5.453
15569TIP3    H146584   3.474   6.017   5.473
15569TIP3    H246585   3.350   5.939   5.513
15570TIP3   OH246586   4.009   6.394   5.697
15570TIP3    H146587   3.970   6.483   5.711
15570TIP3    H246588   3.969   6.345   5.772
15571TIP3   OH246589   4.138   6.973   6.219
15571TIP3    H146590   4.176   7.049   6.170
15571TIP3    H246591   4.214   6.944   6.272
15572TIP3   OH246592   3.785   6.866   5.603
15572TIP3    H146593   3.699   6.872   5.649
15572TIP3    H246594   3.815   6.960   5.607
15573TIP3   OH246595   4.525   6.605   6.178
15573TIP3    H146596   4.515   6.606   6.276
15573TIP3    H246597   4.605   6.553   6.167
15574TIP3   OH246598   4.495   6.497   5.060
15574TIP3    H146599   4.547   6.473   5.140
15574TIP3    H246600   4.406   6.473   5.090
15575TIP3   OH246601   4.772   7.140   6.229
15575TIP3    H146602   4.694   7.083   6.223
15575TIP3    H246603   4.755   7.205   6.157
15576TIP3   OH246604   4.837   6.975   4.881
15576TIP3    H146605   4.874   7.047   4.828
15576TIP3    H246606   4.757   7.020   4.915
15577TIP3   OH246607   3.858   5.744   6.749
15577TIP3    H146608   3.763   5.760   6.767
15577TIP3    H246609   3.885   5.694   6.827
15578TIP3   OH246610   4.655   6.431   5.277
15578TIP3    H146611   4.645   6.366   5.349
15578TIP3    H246612   4.752   6.431   5.266
15579TIP3   OH246613   3.576   6.841   6.386
15579TIP3    H146614   3.631   6.766   6.414
15579TIP3    H246615   3.613   6.911   6.442
15580TIP3   OH246616   3.864   6.479   5.059
15580TIP3    H146617   3.878   6.387   5.030
15580TIP3    H246618   3.847   6.467   5.155
15581TIP3   OH246619   3.811   6.484   5.331
15581TIP3    H146620   3.877   6.458   5.397
15581TIP3    H246621   3.814   6.582   5.339
15582TIP3   OH246622   3.546   6.179   5.536
15582TIP3    H146623   3.480   6.223   5.593
15582TIP3    H246624   3.560   6.249   5.469
15583TIP3   OH246625   4.692   5.814   6.427
15583TIP3    H146626   4.771   5.855   6.467
15583TIP3    H246627   4.680   5.734   6.482
15584TIP3   OH246628   4.565   5.572   5.590
15584TIP3    H146629   4.558   5.595   5.496
15584TIP3    H246630   4.609   5.651   5.628
15585TIP3   OH246631   4.074   6.683   5.281
15585TIP3    H146632   3.988   6.710   5.318
15585TIP3    H246633   4.090   6.755   5.219
15586TIP3   OH246634   4.264   5.744   5.693
15586TIP3    H146635   4.329   5.815   5.675
15586TIP3    H246636   4.268   5.738   5.791
15587TIP3   OH246637   4.531   6.064   6.504
15587TIP3    H146638   4.547   6.122   6.582
15587TIP3    H246639   4.589   5.988   6.522
15588TIP3   OH246640   4.409   5.476   5.800
15588TIP3    H146641   4.399   5.554   5.857
15588TIP3    H246642   4.468   5.513   5.729
15589TIP3   OH246643   3.816   6.757   5.348
15589TIP3    H146644   3.786   6.827   5.285
15589TIP3    H246645   3.800   6.800   5.435
15590TIP3   OH246646   3.919   5.470   5.589
15590TIP3    H146647   3.916   5.561   5.623
15590TIP3    H246648   4.015   5.453   5.598
15591TIP3   OH246649   5.174   5.964   6.480
15591TIP3    H146650   5.077   5.964   6.491
15591TIP3    H246651   5.181   5.923   6.393
15592TIP3   OH246652   4.824   6.159   5.872
15592TIP3    H146653   4.748   6.100   5.884
15592TIP3    H246654   4.895   6.111   5.919
15593TIP3   OH246655   3.534   6.390   5.343
15593TIP3    H146656   3.595   6.465   5.353
15593TIP3    H246657   3.583   6.339   5.275
15594TIP3   OH246658   3.482   5.663   5.471
15594TIP3    H146659   3.480   5.760   5.469
15594TIP3    H246660   3.394   5.640   5.439
15595TIP3   OH246661   4.792   7.113   5.823
15595TIP3    H146662   4.748   7.160   5.748
15595TIP3    H246663   4.886   7.132   5.801
15596TIP3   OH246664   3.407   6.597   5.732
15596TIP3    H146665   3.336   6.633   5.786
15596TIP3    H246666   3.387   6.640   5.645
15597TIP3   OH246667   3.552   7.138   6.808
15597TIP3    H146668   3.649   7.137   6.822
15597TIP3    H246669   3.533   7.045   6.792
15598TIP3   OH246670   4.050   7.107   6.861
15598TIP3    H146671   4.136   7.071   6.837
15598TIP3    H246672   3.998   7.095   6.778
15599TIP3   OH246673   4.027   6.684   4.974
15599TIP3    H146674   3.970   6.614   5.013
15599TIP3    H246675   4.101   6.630   4.943
15600TIP3   OH246676   4.688   7.013   6.576
15600TIP3    H146677   4.676   6.944   6.646
15600TIP3    H246678   4.763   7.064   6.610
15601TIP3   OH246679   4.464   6.726   4.884
15601TIP3    H146680   4.509   6.662   4.942
15601TIP3    H246681   4.521   6.727   4.805
15602TIP3   OH246682   3.691   6.540   7.014
15602TIP3    H146683   3.710   6.447   6.997
15602TIP3    H246684   3.609   6.555   6.962
15603TIP3   OH246685   3.671   6.202   5.192
15603TIP3    H146686   3.724   6.168   5.266
15603TIP3    H246687   3.739   6.206   5.121
15604TIP3   OH246688   4.304   6.634   6.771
15604TIP3    H146689   4.255   6.648   6.688
15604TIP3    H246690   4.332   6.540   6.766
15605TIP3   OH246691   4.179   6.399   5.000
15605TIP3    H146692   4.180   6.412   5.097
15605TIP3    H246693   4.177   6.300   4.996
15606TIP3   OH246694   4.796   6.638   6.380
15606TIP3    H146695   4.866   6.689   6.336
15606TIP3    H246696   4.721   6.700   6.371
15607TIP3   OH246697   3.811   6.274   6.984
15607TIP3    H146698   3.892   6.225   6.966
15607TIP3    H246699   3.832   6.316   7.070
15608TIP3   OH246700   3.882   6.103   5.418
15608TIP3    H146701   3.852   6.062   5.501
15608TIP3    H246702   3.915   6.026   5.367
15609TIP3   OH246703   4.150   6.168   6.645
15609TIP3    H146704   4.071   6.227   6.651
15609TIP3    H246705   4.194   6.202   6.565
15610TIP3   OH246706   3.978   5.894   5.258
15610TIP3    H146707   3.951   5.897   5.164
15610TIP3    H246708   4.075   5.903   5.250
15611TIP3   OH246709   4.663   6.569   6.779
15611TIP3    H146710   4.745   6.551   6.733
15611TIP3    H246711   4.663   6.502   6.850
15612TIP3   OH246712   4.805   6.230   4.917
15612TIP3    H146713   4.781   6.182   4.836
15612TIP3    H246714   4.772   6.320   4.893
15613TIP3   OH246715   4.272   5.956   6.771
15613TIP3    H146716   4.267   5.876   6.715
15613TIP3    H246717   4.228   6.023   6.715
15614TIP3   OH246718   4.265   5.734   6.572
15614TIP3    H146719   4.294   5.785   6.493
15614TIP3    H246720   4.173   5.712   6.550
15615TIP3   OH246721   4.305   6.279   6.449
15615TIP3    H146722   4.385   6.290   6.397
15615TIP3    H246723   4.245   6.345   6.408
15616TIP3   OH246724   4.884   6.246   6.834
15616TIP3    H146725   4.935   6.164   6.844
15616TIP3    H246726   4.952   6.307   6.801
15617TIP3   OH246727   4.926   6.497   6.569
15617TIP3    H146728   4.867   6.549   6.510
15617TIP3    H246729   5.013   6.517   6.527
15618TIP3   OH246730   4.150   6.070   7.001
15618TIP3    H146731   4.078   6.005   7.014
15618TIP3    H246732   4.183   6.045   6.913
15619TIP3   OH246733   4.411   5.516   6.644
15619TIP3    H146734   4.368   5.602   6.622
15619TIP3    H246735   4.338   5.455   6.633
15620TIP3   OH246736   4.533   6.012   6.861
15620TIP3    H146737   4.523   6.003   6.957
15620TIP3    H246738   4.442   5.988   6.833
15621TIP3   OH246739   4.771   5.957   6.714
15621TIP3    H146740   4.695   5.962   6.776
15621TIP3    H246741   4.844   5.927   6.774
15622TIP3   OH246742   5.003   5.900   6.867
15622TIP3    H146743   5.013   5.804   6.888
15622TIP3    H246744   4.996   5.941   6.956
15623TIP3   OH246745   3.988   5.849   7.051
15623TIP3    H146746   4.001   5.759   7.017
15623TIP3    H246747   4.022   5.840   7.143
15624TIP3   OH246748   4.501   5.515   6.903
15624TIP3    H146749   4.571   5.447   6.900
15624TIP3    H246750   4.468   5.512   6.811
15625TIP3   OH246751   4.566   5.731   7.061
15625TIP3    H146752   4.542   5.661   6.997
15625TIP3    H246753   4.489   5.791   7.055
15626TIP3   OH246754   3.786   6.959   5.160
15626TIP3    H146755   3.881   6.958   5.141
15626TIP3    H246756   3.754   7.007   5.082
15627TIP3   OH246757   3.266   6.341   5.377
15627TIP3    H146758   3.361   6.364   5.366
15627TIP3    H246759   3.262   6.252   5.336
15628TIP3   OH246760   3.183   6.954   5.788
15628TIP3    H146761   3.113   6.893   5.756
15628TIP3    H246762   3.225   6.898   5.857
15629TIP3   OH246763   3.320   6.807   5.976
15629TIP3    H146764   3.304   6.734   6.038
15629TIP3    H246765   3.368   6.869   6.034
15630TIP3   OH246766   5.044   7.205   5.776
15630TIP3    H146767   5.069   7.237   5.864
15630TIP3    H246768   5.103   7.255   5.717
15631TIP3   OH246769   5.076   7.227   6.057
15631TIP3    H146770   5.030   7.140   6.053
15631TIP3    H246771   5.147   7.204   6.119
15632TIP3   OH246772   5.121   6.902   6.632
15632TIP3    H146773   5.046   6.911   6.694
15632TIP3    H246774   5.161   6.991   6.637
15633TIP3   OH246775   4.936   6.416   5.253
15633TIP3    H146776   5.006   6.480   5.226
15633TIP3    H246777   4.978   6.376   5.332
15634TIP3   OH246778   5.064   6.284   5.456
15634TIP3    H146779   4.997   6.240   5.514
15634TIP3    H246780   5.126   6.324   5.520
15635TIP3   OH246781   5.118   6.675   5.890
15635TIP3    H146782   5.170   6.612   5.836
15635TIP3    H246783   5.105   6.749   5.828
15636TIP3   OH246784   4.950   6.976   6.084
15636TIP3    H146785   4.880   7.018   6.137
15636TIP3    H246786   4.899   6.928   6.016
15637TIP3   OH246787   5.002   6.191   5.103
15637TIP3    H146788   4.931   6.194   5.036
15637TIP3    H246789   4.975   6.267   5.159
15638TIP3   OH246790   4.874   5.864   5.058
15638TIP3    H146791   4.831   5.904   4.982
15638TIP3    H246792   4.847   5.770   5.048
15639TIP3   OH246793   4.880   6.138   5.603
15639TIP3    H146794   4.886   6.041   5.598
15639TIP3    H246795   4.865   6.154   5.699
15640TIP3   OH246796   3.507   6.208   6.350
15640TIP3    H146797   3.504   6.184   6.255
15640TIP3    H246798   3.604   6.213   6.365
15641TIP3   OH246799   5.167   6.563   6.459
15641TIP3    H146800   5.241   6.499   6.450
15641TIP3    H246801   5.193   6.634   6.398
15642TIP3   OH246802   5.356   6.372   6.478
15642TIP3    H146803   5.280   6.324   6.517
15642TIP3    H246804   5.427   6.306   6.493
15643TIP3   OH246805   4.818   5.599   5.045
15643TIP3    H146806   4.894   5.575   5.102
15643TIP3    H246807   4.752   5.532   5.069
15644TIP3   OH246808   4.873   5.855   5.500
15644TIP3    H146809   4.913   5.766   5.516
15644TIP3    H246810   4.932   5.887   5.430
15645TIP3   OH246811   5.038   6.031   5.993
15645TIP3    H146812   5.124   6.058   5.954
15645TIP3    H246813   5.049   6.068   6.083
15646TIP3   OH246814   5.104   6.174   6.227
15646TIP3    H146815   5.025   6.207   6.275
15646TIP3    H246816   5.135   6.255   6.181
15647TIP3   OH246817   3.720   5.897   7.017
15647TIP3    H146818   3.818   5.894   7.025
15647TIP3    H246819   3.696   5.816   7.066
15648TIP3   OH246820   5.558   5.765   6.782
15648TIP3    H146821   5.614   5.697   6.738
15648TIP3    H246822   5.529   5.820   6.707
15649TIP3   OH246823   4.983   5.606   5.538
15649TIP3    H146824   5.029   5.587   5.622
15649TIP3    H246825   4.924   5.528   5.531
15650TIP3   OH246826   3.684   5.592   6.352
15650TIP3    H146827   3.749   5.522   6.361
15650TIP3    H246828   3.740   5.672   6.349
15651TIP3   OH246829   3.490   5.864   6.432
15651TIP3    H146830   3.536   5.862   6.346
15651TIP3    H246831   3.509   5.954   6.461
15652TIP3   OH246832   5.430   5.906   6.589
15652TIP3    H146833   5.343   5.945   6.613
15652TIP3    H246834   5.400   5.835   6.529
15653TIP3   OH246835   5.061   5.565   5.182
15653TIP3    H146836   5.090   5.488   5.128
15653TIP3    H246837   5.134   5.628   5.167
15654TIP3   OH246838   3.468   5.376   5.933
15654TIP3    H146839   3.374   5.369   5.956
15654TIP3    H246840   3.466   5.430   5.852
15655TIP3   OH246841   4.629   7.071   5.435
15655TIP3    H146842   4.680   7.055   5.353
15655TIP3    H246843   4.682   7.139   5.478
15656TIP3   OH246844   3.686   5.439   6.736
15656TIP3    H146845   3.642   5.439   6.823
15656TIP3    H246846   3.621   5.491   6.684
15657TIP3   OH246847   3.720   6.797   6.860
15657TIP3    H146848   3.658   6.832   6.795
15657TIP3    H246849   3.745   6.877   6.908
15658TIP3   OH246850   3.904   6.881   6.338
15658TIP3    H146851   3.867   6.956   6.388
15658TIP3    H246852   3.983   6.922   6.298
15659TIP3   OH246853   4.358   7.148   6.505
15659TIP3    H146854   4.397   7.154   6.595
15659TIP3    H246855   4.421   7.204   6.454
15660TIP3   OH246856   4.534   7.304   6.363
15660TIP3    H146857   4.605   7.251   6.326
15660TIP3    H246858   4.583   7.362   6.425
15661TIP3   OH246859   5.326   5.668   6.465
15661TIP3    H146860   5.234   5.665   6.432
15661TIP3    H246861   5.354   5.575   6.452
15662TIP3   OH246862   3.588   7.166   6.375
15662TIP3    H146863   3.498   7.205   6.379
15662TIP3    H246864   3.618   7.172   6.467
15663TIP3   OH246865   3.830   7.160   6.242
15663TIP3    H146866   3.749   7.157   6.297
15663TIP3    H246867   3.794   7.183   6.155
15664TIP3   OH246868   4.251   7.178   6.041
15664TIP3    H146869   4.175   7.195   5.982
15664TIP3    H246870   4.258   7.264   6.089
15665TIP3   OH246871   4.515   7.114   6.095
15665TIP3    H146872   4.420   7.128   6.078
15665TIP3    H246873   4.553   7.194   6.057
15666TIP3   OH246874   4.730   7.309   6.015
15666TIP3    H146875   4.710   7.392   5.966
15666TIP3    H246876   4.749   7.247   5.942
15667TIP3   OH246877   3.496   6.959   6.136
15667TIP3    H146878   3.523   6.942   6.229
15667TIP3    H246879   3.570   6.915   6.089
15668TIP3   OH246880   3.689   6.830   5.990
15668TIP3    H146881   3.703   6.747   6.041
15668TIP3    H246882   3.779   6.868   5.991
15669TIP3   OH246883   3.955   6.928   5.991
15669TIP3    H146884   3.986   6.836   5.987
15669TIP3    H246885   3.984   6.951   6.082
15670TIP3   OH246886   4.537   5.584   6.084
15670TIP3    H146887   4.492   5.510   6.129
15670TIP3    H246888   4.606   5.538   6.033
15671TIP3   OH246889   5.057   5.472   5.997
15671TIP3    H146890   5.092   5.517   5.917
15671TIP3    H246891   4.961   5.478   5.983
15672TIP3   OH246892   5.151   5.563   5.756
15672TIP3    H146893   5.221   5.512   5.711
15672TIP3    H246894   5.183   5.655   5.739
15673TIP3   OH246895   3.782   5.296   6.097
15673TIP3    H146896   3.690   5.263   6.101
15673TIP3    H246897   3.831   5.212   6.101
15674TIP3   OH246898   3.562   5.165   5.753
15674TIP3    H146899   3.600   5.222   5.685
15674TIP3    H246900   3.534   5.228   5.821
15675TIP3   OH246901   4.222   5.327   5.978
15675TIP3    H146902   4.279   5.372   5.913
15675TIP3    H246903   4.259   5.360   6.061
15676TIP3   OH246904   4.772   5.467   5.963
15676TIP3    H146905   4.773   5.429   5.874
15676TIP3    H246906   4.757   5.387   6.018
15677TIP3   OH246907   4.801   5.394   5.525
15677TIP3    H146908   4.711   5.430   5.533
15677TIP3    H246909   4.790   5.309   5.573
15678TIP3   OH246910   3.285   6.728   5.528
15678TIP3    H146911   3.199   6.696   5.494
15678TIP3    H246912   3.272   6.823   5.519
15679TIP3   OH246913   3.681   5.325   5.511
15679TIP3    H146914   3.728   5.258   5.457
15679TIP3    H246915   3.755   5.376   5.549
15680TIP3   OH246916   4.197   5.493   5.610
15680TIP3    H146917   4.258   5.448   5.671
15680TIP3    H246918   4.217   5.586   5.635
15681TIP3   OH246919   4.055   6.922   5.109
15681TIP3    H146920   4.143   6.944   5.073
15681TIP3    H246921   4.033   6.847   5.050
15682TIP3   OH246922   4.775   7.038   5.202
15682TIP3    H146923   4.766   6.940   5.189
15682TIP3    H246924   4.729   7.071   5.122
15683TIP3   OH246925   3.991   5.567   6.984
15683TIP3    H146926   3.953   5.501   7.044
15683TIP3    H246927   4.083   5.571   7.017
15684TIP3   OH246928   4.235   5.567   7.109
15684TIP3    H146929   4.324   5.542   7.076
15684TIP3    H246930   4.222   5.499   7.178
15685TIP3   OH246931   3.359   6.759   5.168
15685TIP3    H146932   3.354   6.786   5.261
15685TIP3    H246933   3.448   6.719   5.162
15686TIP3   OH246934   5.059   5.628   6.899
15686TIP3    H146935   5.080   5.598   6.990
15686TIP3    H246936   5.148   5.624   6.857
15687TIP3   OH246937   5.005   7.184   6.386
15687TIP3    H146938   4.923   7.150   6.344
15687TIP3    H246939   4.982   7.278   6.393
15688TIP3   OH246940   6.266   6.554   5.160
15688TIP3    H146941   6.238   6.646   5.138
15688TIP3    H246942   6.190   6.505   5.124
15689TIP3   OH246943   6.265   6.555   5.535
15689TIP3    H146944   6.293   6.518   5.620
15689TIP3    H246945   6.224   6.479   5.492
15690TIP3   OH246946   5.567   6.451   5.901
15690TIP3    H146947   5.598   6.384   5.965
15690TIP3    H246948   5.643   6.510   5.896
15691TIP3   OH246949   6.509   6.854   5.218
15691TIP3    H146950   6.494   6.786   5.284
15691TIP3    H246951   6.536   6.930   5.272
15692TIP3   OH246952   5.537   6.860   5.631
15692TIP3    H146953   5.527   6.763   5.634
15692TIP3    H246954   5.633   6.867   5.622
15693TIP3   OH246955   5.244   6.067   5.416
15693TIP3    H146956   5.192   6.148   5.428
15693TIP3    H246957   5.175   6.008   5.381
15694TIP3   OH246958   5.305   6.352   5.583
15694TIP3    H146959   5.352   6.275   5.621
15694TIP3    H246960   5.360   6.373   5.506
15695TIP3   OH246961   6.155   7.318   5.234
15695TIP3    H146962   6.204   7.248   5.185
15695TIP3    H246963   6.152   7.281   5.323
15696TIP3   OH246964   6.064   6.779   5.587
15696TIP3    H146965   6.099   6.704   5.537
15696TIP3    H246966   6.149   6.823   5.609
15697TIP3   OH246967   7.073   6.101   5.582
15697TIP3    H146968   7.105   6.183   5.625
15697TIP3    H246969   7.100   6.117   5.490
15698TIP3   OH246970   6.476   6.284   5.621
15698TIP3    H146971   6.520   6.198   5.638
15698TIP3    H246972   6.446   6.270   5.529
15699TIP3   OH246973   5.813   5.942   5.585
15699TIP3    H146974   5.791   6.014   5.522
15699TIP3    H246975   5.765   5.867   5.541
15700TIP3   OH246976   6.506   6.033   5.208
15700TIP3    H146977   6.579   6.017   5.272
15700TIP3    H246978   6.557   6.067   5.133
15701TIP3   OH246979   5.448   6.144   5.691
15701TIP3    H146980   5.530   6.122   5.738
15701TIP3    H246981   5.458   6.088   5.612
15702TIP3   OH246982   5.889   6.342   5.482
15702TIP3    H146983   5.982   6.315   5.496
15702TIP3    H246984   5.849   6.258   5.450
15703TIP3   OH246985   7.151   6.308   5.752
15703TIP3    H146986   7.067   6.355   5.734
15703TIP3    H246987   7.162   6.328   5.846
15704TIP3   OH246988   5.811   5.925   6.019
15704TIP3    H146989   5.751   5.961   5.951
15704TIP3    H246990   5.759   5.942   6.100
15705TIP3   OH246991   6.159   6.775   5.029
15705TIP3    H146992   6.118   6.752   4.945
15705TIP3    H246993   6.116   6.860   5.049
15706TIP3   OH246994   5.921   6.699   5.819
15706TIP3    H146995   5.854   6.762   5.854
15706TIP3    H246996   5.958   6.750   5.744
15707TIP3   OH246997   6.717   6.034   5.377
15707TIP3    H146998   6.721   5.976   5.454
15707TIP3    H246999   6.777   6.107   5.403
15708TIP3   OH247000   5.681   6.040   5.804
15708TIP3    H147001   5.744   6.112   5.825
15708TIP3    H247002   5.729   5.998   5.728
15709TIP3   OH247003   5.747   6.892   5.913
15709TIP3    H147004   5.720   6.976   5.871
15709TIP3    H247005   5.668   6.876   5.969
15710TIP3   OH247006   5.143   6.582   5.148
15710TIP3    H147007   5.099   6.608   5.065
15710TIP3    H247008   5.170   6.669   5.184
15711TIP3   OH247009   6.581   7.097   5.389
15711TIP3    H147010   6.490   7.090   5.427
15711TIP3    H247011   6.574   7.183   5.342
15712TIP3   OH247012   6.869   6.004   5.751
15712TIP3    H147013   6.781   6.031   5.718
15712TIP3    H247014   6.928   6.033   5.679
15713TIP3   OH247015   6.170   5.646   5.731
15713TIP3    H147016   6.158   5.551   5.747
15713TIP3    H247017   6.091   5.682   5.778
15714TIP3   OH247018   6.284   7.147   5.065
15714TIP3    H147019   6.333   7.064   5.041
15714TIP3    H247020   6.343   7.213   5.021
15715TIP3   OH247021   6.423   6.932   4.966
15715TIP3    H147022   6.390   6.852   4.922
15715TIP3    H247023   6.458   6.895   5.050
15716TIP3   OH247024   6.805   7.012   5.732
15716TIP3    H147025   6.796   6.936   5.671
15716TIP3    H247026   6.789   7.088   5.671
15717TIP3   OH247027   6.098   6.407   4.987
15717TIP3    H147028   6.017   6.457   4.964
15717TIP3    H247029   6.144   6.403   4.901
15718TIP3   OH247030   6.057   6.188   4.708
15718TIP3    H147031   6.126   6.239   4.754
15718TIP3    H247032   6.112   6.125   4.659
15719TIP3   OH247033   7.001   6.649   5.576
15719TIP3    H147034   6.918   6.702   5.581
15719TIP3    H247035   7.030   6.671   5.485
15720TIP3   OH247036   6.443   6.489   4.961
15720TIP3    H147037   6.389   6.514   5.039
15720TIP3    H247038   6.527   6.461   5.005
15721TIP3   OH247039   6.680   6.527   5.869
15721TIP3    H147040   6.681   6.617   5.907
15721TIP3    H247041   6.594   6.529   5.822
15722TIP3   OH247042   5.676   6.487   5.376
15722TIP3    H147043   5.634   6.430   5.308
15722TIP3    H247044   5.753   6.433   5.403
15723TIP3   OH247045   5.806   6.897   5.526
15723TIP3    H147046   5.784   6.854   5.442
15723TIP3    H247047   5.897   6.864   5.542
15724TIP3   OH247048   5.820   6.456   5.732
15724TIP3    H147049   5.847   6.438   5.639
15724TIP3    H247050   5.858   6.544   5.749
15725TIP3   OH247051   6.338   7.096   5.507
15725TIP3    H147052   6.323   7.176   5.560
15725TIP3    H247053   6.324   7.023   5.571
15726TIP3   OH247054   5.949   7.009   6.065
15726TIP3    H147055   5.888   7.075   6.105
15726TIP3    H247056   5.885   6.958   6.010
15727TIP3   OH247057   6.286   6.346   4.785
15727TIP3    H147058   6.345   6.405   4.838
15727TIP3    H247059   6.312   6.371   4.693
15728TIP3   OH247060   5.704   6.573   6.153
15728TIP3    H147061   5.706   6.659   6.200
15728TIP3    H247062   5.609   6.552   6.161
15729TIP3   OH247063   6.027   7.029   5.063
15729TIP3    H147064   6.104   7.084   5.082
15729TIP3    H247065   5.965   7.091   5.022
15730TIP3   OH247066   5.747   7.183   6.142
15730TIP3    H147067   5.711   7.181   6.051
15730TIP3    H247068   5.668   7.161   6.196
15731TIP3   OH247069   6.802   5.589   4.832
15731TIP3    H147070   6.721   5.609   4.884
15731TIP3    H247071   6.814   5.672   4.782
15732TIP3   OH247072   5.542   6.329   5.183
15732TIP3    H147073   5.478   6.375   5.124
15732TIP3    H247074   5.499   6.244   5.195
15733TIP3   OH247075   6.599   6.957   4.382
15733TIP3    H147076   6.608   7.053   4.367
15733TIP3    H247077   6.692   6.927   4.369
15734TIP3   OH247078   5.326   6.713   6.087
15734TIP3    H147079   5.258   6.691   6.019
15734TIP3    H247080   5.360   6.625   6.112
15735TIP3   OH247081   5.178   6.906   5.721
15735TIP3    H147082   5.274   6.903   5.713
15735TIP3    H247083   5.165   6.986   5.774
15736TIP3   OH247084   7.044   7.356   5.777
15736TIP3    H147085   7.041   7.259   5.789
15736TIP3    H247086   6.960   7.382   5.821
15737TIP3   OH247087   6.150   7.141   5.914
15737TIP3    H147088   6.151   7.235   5.942
15737TIP3    H247089   6.076   7.106   5.968
15738TIP3   OH247090   5.907   7.273   4.863
15738TIP3    H147091   5.863   7.253   4.778
15738TIP3    H247092   5.876   7.363   4.883
15739TIP3   OH247093   5.347   7.123   5.245
15739TIP3    H147094   5.394   7.112   5.330
15739TIP3    H247095   5.286   7.048   5.249
15740TIP3   OH247096   6.111   7.173   4.504
15740TIP3    H147097   6.170   7.104   4.467
15740TIP3    H247098   6.146   7.182   4.595
15741TIP3   OH247099   6.160   7.222   4.775
15741TIP3    H147100   6.072   7.230   4.817
15741TIP3    H247101   6.211   7.179   4.845
15742TIP3   OH247102   6.930   6.489   6.052
15742TIP3    H147103   6.856   6.500   5.991
15742TIP3    H247104   6.950   6.394   6.041
15743TIP3   OH247105   5.531   6.895   6.078
15743TIP3    H147106   5.578   6.879   6.162
15743TIP3    H247107   5.456   6.832   6.085
15744TIP3   OH247108   5.929   5.720   5.859
15744TIP3    H147109   5.840   5.688   5.834
15744TIP3    H247110   5.904   5.803   5.904
15745TIP3   OH247111   6.462   5.838   6.055
15745TIP3    H147112   6.530   5.806   6.118
15745TIP3    H247113   6.378   5.814   6.100
15746TIP3   OH247114   6.702   6.261   5.972
15746TIP3    H147115   6.655   6.262   6.058
15746TIP3    H247116   6.679   6.348   5.934
15747TIP3   OH247117   6.362   6.397   4.530
15747TIP3    H147118   6.329   6.369   4.443
15747TIP3    H247119   6.442   6.445   4.504
15748TIP3   OH247120   6.073   5.772   4.831
15748TIP3    H147121   6.043   5.769   4.923
15748TIP3    H247122   6.037   5.687   4.798
15749TIP3   OH247123   5.862   6.234   5.880
15749TIP3    H147124   5.810   6.255   5.960
15749TIP3    H247125   5.846   6.314   5.826
15750TIP3   OH247126   5.744   6.121   5.393
15750TIP3    H147127   5.651   6.095   5.410
15750TIP3    H247128   5.758   6.081   5.304
15751TIP3   OH247129   6.235   6.208   5.120
15751TIP3    H147130   6.181   6.279   5.079
15751TIP3    H247131   6.290   6.179   5.044
15752TIP3   OH247132   6.393   6.238   5.360
15752TIP3    H147133   6.334   6.267   5.288
15752TIP3    H247134   6.426   6.155   5.319
15753TIP3   OH247135   5.680   6.264   6.088
15753TIP3    H147136   5.699   6.328   6.158
15753TIP3    H247137   5.665   6.182   6.138
15754TIP3   OH247138   5.726   5.738   4.798
15754TIP3    H147139   5.721   5.739   4.896
15754TIP3    H247140   5.651   5.795   4.775
15755TIP3   OH247141   5.271   5.790   5.669
15755TIP3    H147142   5.350   5.817   5.719
15755TIP3    H247143   5.307   5.753   5.587
15756TIP3   OH247144   5.256   5.772   5.187
15756TIP3    H147145   5.295   5.813   5.107
15756TIP3    H247146   5.190   5.841   5.211
15757TIP3   OH247147   6.407   6.484   5.786
15757TIP3    H147148   6.438   6.413   5.725
15757TIP3    H247149   6.377   6.429   5.862
15758TIP3   OH247150   6.070   5.946   5.456
15758TIP3    H147151   5.987   5.942   5.507
15758TIP3    H247152   6.137   5.943   5.526
15759TIP3   OH247153   5.506   5.999   5.463
15759TIP3    H147154   5.411   6.006   5.437
15759TIP3    H247155   5.528   5.907   5.440
15760TIP3   OH247156   5.778   5.996   5.151
15760TIP3    H147157   5.872   6.012   5.129
15760TIP3    H247158   5.731   6.020   5.067
15761TIP3   OH247159   6.562   6.021   5.662
15761TIP3    H147160   6.520   6.030   5.749
15761TIP3    H247161   6.503   5.958   5.618
15762TIP3   OH247162   5.615   6.028   4.931
15762TIP3    H147163   5.542   5.985   4.883
15762TIP3    H247164   5.666   6.064   4.856
15763TIP3   OH247165   6.731   7.708   5.874
15763TIP3    H147166   6.730   7.731   5.779
15763TIP3    H247167   6.810   7.757   5.905
15764TIP3   OH247168   5.692   6.817   6.298
15764TIP3    H147169   5.768   6.852   6.348
15764TIP3    H247170   5.624   6.815   6.368
15765TIP3   OH247171   6.157   6.272   5.553
15765TIP3    H147172   6.226   6.231   5.499
15765TIP3    H247173   6.167   6.226   5.638
15766TIP3   OH247174   5.681   5.759   5.429
15766TIP3    H147175   5.647   5.679   5.473
15766TIP3    H247176   5.733   5.722   5.357
15767TIP3   OH247177   6.131   6.164   5.842
15767TIP3    H147178   6.040   6.199   5.854
15767TIP3    H247179   6.186   6.227   5.890
15768TIP3   OH247180   5.868   6.560   4.937
15768TIP3    H147181   5.796   6.495   4.926
15768TIP3    H247182   5.851   6.593   5.029
15769TIP3   OH247183   6.769   6.795   5.568
15769TIP3    H147184   6.794   6.843   5.486
15769TIP3    H247185   6.683   6.754   5.543
15770TIP3   OH247186   6.327   5.875   4.801
15770TIP3    H147187   6.230   5.860   4.806
15770TIP3    H247188   6.337   5.970   4.822
15771TIP3   OH247189   6.274   6.884   5.939
15771TIP3    H147190   6.244   6.860   6.027
15771TIP3    H247191   6.234   6.972   5.927
15772TIP3   OH247192   6.397   6.120   4.903
15772TIP3    H147193   6.494   6.125   4.916
15772TIP3    H247194   6.379   6.198   4.846
15773TIP3   OH247195   5.564   6.583   5.615
15773TIP3    H147196   5.598   6.553   5.529
15773TIP3    H247197   5.593   6.513   5.675
15774TIP3   OH247198   6.014   6.709   4.757
15774TIP3    H147199   5.967   6.796   4.765
15774TIP3    H247200   5.959   6.654   4.817
15775TIP3   OH247201   5.441   6.499   6.224
15775TIP3    H147202   5.458   6.486   6.319
15775TIP3    H247203   5.369   6.435   6.208
15776TIP3   OH247204   6.431   7.134   5.832
15776TIP3    H147205   6.334   7.136   5.841
15776TIP3    H247206   6.458   7.189   5.908
15777TIP3   OH247207   6.840   6.207   4.739
15777TIP3    H147208   6.777   6.161   4.678
15777TIP3    H247209   6.837   6.295   4.696
15778TIP3   OH247210   7.056   7.062   5.821
15778TIP3    H147211   6.958   7.059   5.811
15778TIP3    H247212   7.082   7.035   5.731
15779TIP3   OH247213   6.536   7.026   4.645
15779TIP3    H147214   6.515   6.953   4.705
15779TIP3    H247215   6.551   6.982   4.560
15780TIP3   OH247216   6.534   6.656   5.491
15780TIP3    H147217   6.440   6.629   5.500
15780TIP3    H247218   6.569   6.578   5.443
15781TIP3   OH247219   5.660   6.884   5.239
15781TIP3    H147220   5.663   6.965   5.185
15781TIP3    H247221   5.565   6.868   5.245
15782TIP3   OH247222   5.224   6.189   4.940
15782TIP3    H147223   5.270   6.273   4.960
15782TIP3    H247224   5.146   6.195   5.000
15783TIP3   OH247225   5.804   6.652   5.185
15783TIP3    H147226   5.767   6.741   5.201
15783TIP3    H247227   5.764   6.602   5.258
15784TIP3   OH247228   5.930   7.230   5.708
15784TIP3    H147229   5.968   7.302   5.654
15784TIP3    H247230   6.008   7.197   5.754
15785TIP3   OH247231   5.582   7.122   5.092
15785TIP3    H147232   5.495   7.130   5.136
15785TIP3    H247233   5.612   7.216   5.093
15786TIP3   OH247234   6.321   6.863   5.666
15786TIP3    H147235   6.320   6.860   5.764
15786TIP3    H247236   6.399   6.809   5.646
15787TIP3   OH247237   6.291   6.754   4.548
15787TIP3    H147238   6.344   6.730   4.628
15787TIP3    H247239   6.202   6.728   4.578
15788TIP3   OH247240   6.567   7.399   5.716
15788TIP3    H147241   6.488   7.343   5.704
15788TIP3    H247242   6.555   7.465   5.644
15789TIP3   OH247243   6.633   7.232   4.369
15789TIP3    H147244   6.674   7.304   4.318
15789TIP3    H247245   6.553   7.279   4.399
15790TIP3   OH247246   5.653   6.008   6.236
15790TIP3    H147247   5.557   6.013   6.249
15790TIP3    H247248   5.679   5.944   6.305
15791TIP3   OH247249   6.451   6.692   4.768
15791TIP3    H147250   6.442   6.623   4.837
15791TIP3    H247251   6.548   6.689   4.753
15792TIP3   OH247252   5.371   7.094   5.866
15792TIP3    H147253   5.419   7.015   5.895
15792TIP3    H247254   5.395   7.157   5.935
15793TIP3   OH247255   5.659   6.737   4.547
15793TIP3    H147256   5.674   6.645   4.516
15793TIP3    H247257   5.641   6.722   4.642
15794TIP3   OH247258   5.606   6.740   4.820
15794TIP3    H147259   5.677   6.714   4.880
15794TIP3    H247260   5.610   6.838   4.826
15795TIP3   OH247261   5.343   6.436   5.022
15795TIP3    H147262   5.277   6.480   5.079
15795TIP3    H247263   5.357   6.505   4.955
15796TIP3   OH247264   6.480   6.080   5.925
15796TIP3    H147265   6.570   6.107   5.948
15796TIP3    H247266   6.471   5.994   5.971
15797TIP3   OH247267   6.365   5.826   5.078
15797TIP3    H147268   6.354   5.848   4.984
15797TIP3    H247269   6.406   5.907   5.113
15798TIP3   OH247270   5.871   6.939   4.770
15798TIP3    H147271   5.784   6.969   4.804
15798TIP3    H247272   5.887   7.007   4.703
15799TIP3   OH247273   6.060   6.001   5.181
15799TIP3    H147274   6.126   6.072   5.162
15799TIP3    H247275   6.065   5.995   5.279
15800TIP3   OH247276   6.336   6.320   5.992
15800TIP3    H147277   6.319   6.329   6.087
15800TIP3    H247278   6.385   6.235   5.987
15801TIP3   OH247279   6.206   5.733   5.286
15801TIP3    H147280   6.199   5.810   5.345
15801TIP3    H247281   6.264   5.769   5.216
15802TIP3   OH247282   5.612   7.014   4.835
15802TIP3    H147283   5.582   7.083   4.771
15802TIP3    H247284   5.596   7.058   4.921
15803TIP3   OH247285   5.715   5.728   5.076
15803TIP3    H147286   5.713   5.819   5.111
15803TIP3    H247287   5.811   5.709   5.084
15804TIP3   OH247288   6.971   6.224   5.968
15804TIP3    H147289   6.873   6.220   5.976
15804TIP3    H247290   6.982   6.178   5.884
15805TIP3   OH247291   6.619   6.417   5.360
15805TIP3    H147292   6.544   6.356   5.369
15805TIP3    H247293   6.692   6.369   5.406
15806TIP3   OH247294   5.331   6.647   4.830
15806TIP3    H147295   5.394   6.720   4.838
15806TIP3    H247296   5.377   6.594   4.762
15807TIP3   OH247297   5.278   5.919   4.958
15807TIP3    H147298   5.275   6.017   4.955
15807TIP3    H247299   5.191   5.896   4.924
15808TIP3   OH247300   6.588   7.369   5.310
15808TIP3    H147301   6.545   7.416   5.235
15808TIP3    H247302   6.682   7.389   5.289
15809TIP3   OH247303   5.665   5.640   5.836
15809TIP3    H147304   5.632   5.608   5.750
15809TIP3    H247305   5.653   5.562   5.894
15810TIP3   OH247306   5.207   6.861   5.220
15810TIP3    H147307   5.130   6.891   5.270
15810TIP3    H247308   5.185   6.898   5.132
15811TIP3   OH247309   5.359   7.399   6.282
15811TIP3    H147310   5.440   7.398   6.336
15811TIP3    H247311   5.331   7.306   6.287
15812TIP3   OH247312   5.850   7.370   6.325
15812TIP3    H147313   5.942   7.342   6.335
15812TIP3    H247314   5.819   7.310   6.255
15813TIP3   OH247315   5.824   6.941   4.463
15813TIP3    H147316   5.767   6.869   4.500
15813TIP3    H247317   5.898   6.889   4.428
15814TIP3   OH247318   6.479   7.273   6.067
15814TIP3    H147319   6.476   7.201   6.134
15814TIP3    H247320   6.558   7.324   6.093
15815TIP3   OH247321   6.259   6.983   4.371
15815TIP3    H147322   6.307   6.920   4.428
15815TIP3    H247323   6.315   6.985   4.291
15816TIP3   OH247324   5.492   6.805   6.486
15816TIP3    H147325   5.506   6.708   6.491
15816TIP3    H247326   5.402   6.809   6.446
15817TIP3   OH247327   5.466   6.459   4.679
15817TIP3    H147328   5.521   6.424   4.752
15817TIP3    H247329   5.534   6.463   4.608
15818TIP3   OH247330   6.114   6.881   6.243
15818TIP3    H147331   6.053   6.915   6.174
15818TIP3    H247332   6.098   6.786   6.240
15819TIP3   OH247333   5.973   6.655   4.488
15819TIP3    H147334   5.977   6.668   4.584
15819TIP3    H247335   5.973   6.557   4.483
15820TIP3   OH247336   6.592   6.897   5.869
15820TIP3    H147337   6.665   6.942   5.823
15820TIP3    H247338   6.521   6.962   5.856
15821TIP3   OH247339   5.610   6.541   6.469
15821TIP3    H147340   5.676   6.472   6.456
15821TIP3    H247341   5.632   6.573   6.559
15822TIP3   OH247342   5.678   6.359   4.905
15822TIP3    H147343   5.650   6.316   4.987
15822TIP3    H247344   5.712   6.284   4.853
15823TIP3   OH247345   5.941   6.421   6.133
15823TIP3    H147346   5.864   6.481   6.138
15823TIP3    H247347   5.993   6.462   6.061
15824TIP3   OH247348   5.775   6.152   4.745
15824TIP3    H147349   5.748   6.153   4.651
15824TIP3    H247350   5.872   6.159   4.737
15825TIP3   OH247351   6.599   6.486   4.405
15825TIP3    H147352   6.578   6.438   4.323
15825TIP3    H247353   6.568   6.576   4.380
15826TIP3   OH247354   6.074   6.214   6.255
15826TIP3    H147355   6.068   6.131   6.204
15826TIP3    H247356   6.022   6.276   6.199
15827TIP3   OH247357   6.069   5.999   6.065
15827TIP3    H147358   6.095   6.037   5.979
15827TIP3    H247359   5.976   5.975   6.048
15828TIP3   OH247360   6.110   6.546   5.942
15828TIP3    H147361   6.181   6.541   5.876
15828TIP3    H247362   6.046   6.606   5.898
15829TIP3   OH247363   6.694   6.517   6.311
15829TIP3    H147364   6.720   6.428   6.338
15829TIP3    H247365   6.782   6.557   6.298
15830TIP3   OH247366   6.714   6.748   6.056
15830TIP3    H147367   6.662   6.807   5.997
15830TIP3    H247368   6.804   6.766   6.019
15831TIP3   OH247369   5.950   6.329   6.482
15831TIP3    H147370   5.878   6.266   6.502
15831TIP3    H247371   5.980   6.297   6.395
15832TIP3   OH247372   6.202   5.764   6.130
15832TIP3    H147373   6.153   5.846   6.108
15832TIP3    H247374   6.133   5.696   6.118
15833TIP3   OH247375   6.319   6.310   6.347
15833TIP3    H147376   6.322   6.270   6.436
15833TIP3    H247377   6.235   6.270   6.315
15834TIP3   OH247378   6.572   6.238   6.209
15834TIP3    H147379   6.495   6.222   6.266
15834TIP3    H247380   6.644   6.193   6.258
15835TIP3   OH247381   6.793   6.154   6.352
15835TIP3    H147382   6.809   6.059   6.373
15835TIP3    H247383   6.792   6.195   6.441
15836TIP3   OH247384   5.788   6.109   6.538
15836TIP3    H147385   5.791   6.018   6.502
15836TIP3    H247386   5.821   6.094   6.629
15837TIP3   OH247387   6.298   5.775   6.387
15837TIP3    H147388   6.366   5.704   6.383
15837TIP3    H247389   6.258   5.766   6.299
15838TIP3   OH247390   6.364   5.991   6.543
15838TIP3    H147391   6.341   5.917   6.482
15838TIP3    H247392   6.284   6.047   6.539
15839TIP3   OH247393   5.582   7.217   4.648
15839TIP3    H147394   5.678   7.215   4.628
15839TIP3    H247395   5.550   7.264   4.569
15840TIP3   OH247396   5.063   6.597   4.866
15840TIP3    H147397   5.157   6.620   4.852
15840TIP3    H247398   5.057   6.509   4.824
15841TIP3   OH247399   4.976   7.211   5.276
15841TIP3    H147400   4.908   7.149   5.242
15841TIP3    H247401   5.020   7.154   5.343
15842TIP3   OH247402   5.113   7.066   5.464
15842TIP3    H147403   5.100   6.990   5.522
15842TIP3    H247404   5.162   7.126   5.523
15843TIP3   OH247405   6.839   7.462   5.264
15843TIP3    H147406   6.868   7.501   5.348
15843TIP3    H247407   6.898   7.505   5.200
15844TIP3   OH247408   6.868   7.485   5.548
15844TIP3    H147409   6.829   7.395   5.541
15844TIP3    H247410   6.947   7.464   5.599
15845TIP3   OH247411   6.916   7.159   6.119
15845TIP3    H147412   6.842   7.168   6.182
15845TIP3    H247413   6.957   7.248   6.122
15846TIP3   OH247414   6.731   6.674   4.740
15846TIP3    H147415   6.800   6.737   4.711
15846TIP3    H247416   6.775   6.633   4.818
15847TIP3   OH247417   6.860   6.542   4.944
15847TIP3    H147418   6.793   6.497   5.000
15847TIP3    H247419   6.918   6.584   5.011
15848TIP3   OH247420   6.913   6.929   5.376
15848TIP3    H147421   6.966   6.869   5.321
15848TIP3    H247422   6.904   7.007   5.318
15849TIP3   OH247423   6.747   7.230   5.573
15849TIP3    H147424   6.676   7.275   5.622
15849TIP3    H247425   6.697   7.183   5.503
15850TIP3   OH247426   6.798   6.448   4.591
15850TIP3    H147427   6.727   6.450   4.523
15850TIP3    H247428   6.770   6.525   4.645
15851TIP3   OH247429   6.668   6.122   4.547
15851TIP3    H147430   6.631   6.161   4.468
15851TIP3    H247431   6.643   6.028   4.535
15852TIP3   OH247432   6.675   6.395   5.090
15852TIP3    H147433   6.683   6.299   5.084
15852TIP3    H247434   6.662   6.409   5.186
15853TIP3   OH247435   5.302   6.468   5.836
15853TIP3    H147436   5.300   6.440   5.742
15853TIP3    H247437   5.399   6.470   5.852
15854TIP3   OH247438   6.958   6.818   5.948
15854TIP3    H147439   7.033   6.754   5.940
15854TIP3    H247440   6.985   6.889   5.888
15855TIP3   OH247441   7.147   6.628   5.969
15855TIP3    H147442   7.074   6.576   6.006
15855TIP3    H247443   7.221   6.565   5.980
15856TIP3   OH247444   6.614   5.856   4.533
15856TIP3    H147445   6.691   5.824   4.585
15856TIP3    H247446   6.542   5.797   4.560
15857TIP3   OH247447   6.671   6.113   4.987
15857TIP3    H147448   6.711   6.024   5.002
15857TIP3    H247449   6.729   6.144   4.915
15858TIP3   OH247450   6.833   6.290   5.480
15858TIP3    H147451   6.919   6.315   5.440
15858TIP3    H247452   6.848   6.324   5.570
15859TIP3   OH247453   6.901   6.431   5.715
15859TIP3    H147454   6.821   6.465   5.759
15859TIP3    H247455   6.933   6.511   5.667
15860TIP3   OH247456   5.520   6.159   6.513
15860TIP3    H147457   5.617   6.149   6.513
15860TIP3    H247458   5.493   6.074   6.554
15861TIP3   OH247459   7.352   6.020   6.269
15861TIP3    H147460   7.410   5.952   6.227
15861TIP3    H247461   7.327   6.076   6.193
15862TIP3   OH247462   6.777   5.862   5.024
15862TIP3    H147463   6.828   5.845   5.106
15862TIP3    H247464   6.719   5.784   5.021
15863TIP3   OH247465   5.480   5.848   5.842
15863TIP3    H147466   5.543   5.773   5.852
15863TIP3    H247467   5.542   5.923   5.837
15864TIP3   OH247468   5.285   6.123   5.917
15864TIP3    H147469   5.332   6.114   5.832
15864TIP3    H247470   5.311   6.212   5.944
15865TIP3   OH247471   7.225   6.163   6.075
15865TIP3    H147472   7.136   6.198   6.093
15865TIP3    H247473   7.202   6.089   6.016
15866TIP3   OH247474   6.864   5.799   4.654
15866TIP3    H147475   6.908   5.727   4.604
15866TIP3    H247476   6.929   5.871   4.647
15867TIP3   OH247477   5.265   5.634   5.421
15867TIP3    H147478   5.171   5.623   5.441
15867TIP3    H247479   5.264   5.688   5.339
15868TIP3   OH247480   6.424   7.329   4.923
15868TIP3    H147481   6.472   7.311   4.839
15868TIP3    H247482   6.480   7.396   4.963
15869TIP3   OH247483   5.486   5.706   6.231
15869TIP3    H147484   5.435   5.700   6.314
15869TIP3    H247485   5.419   5.745   6.172
15870TIP3   OH247486   5.528   7.128   6.311
15870TIP3    H147487   5.435   7.105   6.290
15870TIP3    H247488   5.529   7.114   6.407
15871TIP3   OH247489   5.705   7.163   5.857
15871TIP3    H147490   5.652   7.235   5.818
15871TIP3    H247491   5.789   7.180   5.810
15872TIP3   OH247492   6.151   7.408   5.992
15872TIP3    H147493   6.193   7.411   6.081
15872TIP3    H247494   6.217   7.459   5.940
15873TIP3   OH247495   6.328   7.560   5.851
15873TIP3    H147496   6.399   7.511   5.807
15873TIP3    H247497   6.381   7.618   5.911
15874TIP3   OH247498   7.121   5.923   5.953
15874TIP3    H147499   7.030   5.915   5.919
15874TIP3    H247500   7.154   5.831   5.940
15875TIP3   OH247501   5.383   7.426   5.877
15875TIP3    H147502   5.294   7.459   5.853
15875TIP3    H247503   5.383   7.446   5.971
15876TIP3   OH247504   5.618   7.402   5.736
15876TIP3    H147505   5.532   7.415   5.782
15876TIP3    H247506   5.596   7.433   5.646
15877TIP3   OH247507   6.043   7.431   5.534
15877TIP3    H147508   5.974   7.450   5.467
15877TIP3    H247509   6.056   7.519   5.574
15878TIP3   OH247510   6.311   7.370   5.586
15878TIP3    H147511   6.217   7.387   5.565
15878TIP3    H247512   6.354   7.444   5.542
15879TIP3   OH247513   6.518   7.562   5.501
15879TIP3    H147514   6.504   7.647   5.454
15879TIP3    H247515   6.545   7.503   5.427
15880TIP3   OH247516   5.293   7.218   5.624
15880TIP3    H147517   5.319   7.191   5.715
15880TIP3    H247518   5.363   7.173   5.573
15881TIP3   OH247519   5.484   7.087   5.479
15881TIP3    H147520   5.500   7.003   5.527
15881TIP3    H247521   5.574   7.124   5.474
15882TIP3   OH247522   5.750   7.185   5.480
15882TIP3    H147523   5.782   7.094   5.465
15882TIP3    H247524   5.791   7.203   5.566
15883TIP3   OH247525   6.327   5.840   5.571
15883TIP3    H147526   6.283   5.769   5.622
15883TIP3    H247527   6.397   5.791   5.524
15884TIP3   OH247528   6.851   5.725   5.480
15884TIP3    H147529   6.889   5.772   5.403
15884TIP3    H247530   6.756   5.737   5.467
15885TIP3   OH247531   6.945   5.822   5.242
15885TIP3    H147532   7.016   5.768   5.201
15885TIP3    H247533   6.980   5.912   5.225
15886TIP3   OH247534   5.575   5.549   5.589
15886TIP3    H147535   5.483   5.516   5.587
15886TIP3    H247536   5.624   5.464   5.584
15887TIP3   OH247537   5.353   5.420   5.237
15887TIP3    H147538   5.383   5.481   5.168
15887TIP3    H247539   5.323   5.481   5.307
15888TIP3   OH247540   6.018   5.582   5.466
15888TIP3    H147541   6.078   5.632   5.409
15888TIP3    H247542   6.038   5.618   5.553
15889TIP3   OH247543   6.568   5.726   5.452
15889TIP3    H147544   6.566   5.690   5.362
15889TIP3    H247545   6.554   5.645   5.506
15890TIP3   OH247546   6.596   5.647   5.012
15890TIP3    H147547   6.508   5.688   5.021
15890TIP3    H247548   6.583   5.563   5.062
15891TIP3   OH247549   5.080   6.985   5.016
15891TIP3    H147550   4.995   6.952   4.981
15891TIP3    H247551   5.067   7.080   5.001
15892TIP3   OH247552   5.482   5.586   4.992
15892TIP3    H147553   5.544   5.515   4.970
15892TIP3    H247554   5.542   5.649   5.036
15893TIP3   OH247555   5.992   5.750   5.098
15893TIP3    H147556   6.053   5.705   5.159
15893TIP3    H247557   6.013   5.843   5.122
15894TIP3   OH247558   5.851   7.179   4.597
15894TIP3    H147559   5.940   7.200   4.561
15894TIP3    H247560   5.829   7.104   4.538
15895TIP3   OH247561   6.565   7.292   4.690
15895TIP3    H147562   6.558   7.195   4.674
15895TIP3    H247563   6.525   7.327   4.607
15896TIP3   OH247564   5.784   5.832   6.480
15896TIP3    H147565   5.750   5.760   6.536
15896TIP3    H247566   5.879   5.831   6.506
15897TIP3   OH247567   6.034   5.826   6.598
15897TIP3    H147568   6.117   5.796   6.558
15897TIP3    H247569   6.019   5.757   6.666
15898TIP3   OH247570   5.156   7.016   4.655
15898TIP3    H147571   5.153   7.042   4.748
15898TIP3    H247572   5.245   6.974   4.647
15899TIP3   OH247573   6.857   5.886   6.386
15899TIP3    H147574   6.877   5.854   6.476
15899TIP3    H247575   6.944   5.881   6.343
15900TIP3   OH247576   6.797   7.440   5.879
15900TIP3    H147577   6.719   7.408   5.829
15900TIP3    H247578   6.780   7.536   5.878
15901TIP3   OH247579   8.032   6.831   4.669
15901TIP3    H147580   8.012   6.914   4.622
15901TIP3    H247581   7.988   6.767   4.609
15902TIP3   OH247582   8.009   6.784   5.018
15902TIP3    H147583   8.066   6.783   5.098
15902TIP3    H247584   8.072   6.750   4.951
15903TIP3   OH247585   7.383   6.708   5.373
15903TIP3    H147586   7.401   6.641   5.442
15903TIP3    H247587   7.431   6.784   5.409
15904TIP3   OH247588   8.309   7.117   4.703
15904TIP3    H147589   8.292   7.038   4.755
15904TIP3    H247590   8.327   7.184   4.770
15905TIP3   OH247591   7.334   7.118   5.120
15905TIP3    H147592   7.330   7.020   5.125
15905TIP3    H247593   7.430   7.130   5.109
15906TIP3   OH247594   7.037   6.325   4.905
15906TIP3    H147595   6.982   6.406   4.912
15906TIP3    H247596   6.972   6.264   4.867
15907TIP3   OH247597   7.110   6.613   5.071
15907TIP3    H147598   7.152   6.532   5.108
15907TIP3    H247599   7.143   6.611   4.980
15908TIP3   OH247600   7.950   7.576   4.720
15908TIP3    H147601   7.998   7.503   4.675
15908TIP3    H247602   7.943   7.544   4.810
15909TIP3   OH247603   7.863   7.031   5.067
15909TIP3    H147604   7.913   6.959   5.027
15909TIP3    H247605   7.938   7.087   5.096
15910TIP3   OH247606   8.872   6.354   5.074
15910TIP3    H147607   8.902   6.440   5.109
15910TIP3    H247608   8.879   6.369   4.978
15911TIP3   OH247609   8.262   6.540   5.086
15911TIP3    H147610   8.310   6.459   5.114
15911TIP3    H247611   8.285   6.542   4.991
15912TIP3   OH247612   7.605   6.199   5.074
15912TIP3    H147613   7.590   6.271   5.009
15912TIP3    H247614   7.561   6.125   5.026
15913TIP3   OH247615   7.244   6.400   5.178
15913TIP3    H147616   7.327   6.376   5.225
15913TIP3    H247617   7.254   6.344   5.098
15914TIP3   OH247618   8.949   6.568   5.239
15914TIP3    H147619   8.863   6.612   5.220
15914TIP3    H247620   8.958   6.585   5.333
15915TIP3   OH247621   7.608   6.184   5.505
15915TIP3    H147622   7.545   6.214   5.437
15915TIP3    H247623   7.556   6.199   5.587
15916TIP3   OH247624   7.954   7.038   4.511
15916TIP3    H147625   7.917   7.011   4.426
15916TIP3    H247626   7.907   7.122   4.528
15917TIP3   OH247627   7.712   6.952   5.306
15917TIP3    H147628   7.643   7.013   5.340
15917TIP3    H247629   7.748   7.003   5.232
15918TIP3   OH247630   8.551   6.264   4.876
15918TIP3    H147631   8.506   6.251   4.960
15918TIP3    H247632   8.558   6.361   4.872
15919TIP3   OH247633   7.476   6.296   5.291
15919TIP3    H147634   7.541   6.368   5.310
15919TIP3    H247635   7.521   6.254   5.214
15920TIP3   OH247636   7.539   7.148   5.397
15920TIP3    H147637   7.515   7.234   5.357
15920TIP3    H247638   7.460   7.136   5.455
15921TIP3   OH247639   6.937   6.839   4.635
15921TIP3    H147640   6.897   6.863   4.550
15921TIP3    H247641   6.965   6.927   4.670
15922TIP3   OH247642   8.377   7.354   4.874
15922TIP3    H147643   8.289   7.340   4.916
15922TIP3    H247644   8.361   7.438   4.828
15923TIP3   OH247645   8.665   6.262   5.239
15923TIP3    H147646   8.578   6.286   5.203
15923TIP3    H247647   8.725   6.288   5.166
15924TIP3   OH247648   7.967   5.899   5.220
15924TIP3    H147649   7.954   5.803   5.236
15924TIP3    H247650   7.887   5.935   5.265
15925TIP3   OH247651   8.083   7.402   4.555
15925TIP3    H147652   8.127   7.318   4.529
15925TIP3    H247653   8.144   7.465   4.511
15926TIP3   OH247654   8.221   7.189   4.452
15926TIP3    H147655   8.194   7.109   4.404
15926TIP3    H247656   8.255   7.151   4.536
15927TIP3   OH247657   8.600   7.272   5.218
15927TIP3    H147658   8.592   7.193   5.160
15927TIP3    H247659   8.588   7.345   5.155
15928TIP3   OH247660   7.900   6.682   4.473
15928TIP3    H147661   7.818   6.717   4.435
15928TIP3    H247662   7.952   6.660   4.392
15929TIP3   OH247663   7.852   6.447   4.196
15929TIP3    H147664   7.922   6.491   4.246
15929TIP3    H247665   7.906   6.382   4.146
15930TIP3   OH247666   8.798   6.909   5.066
15930TIP3    H147667   8.714   6.960   5.070
15930TIP3    H247668   8.823   6.922   4.972
15931TIP3   OH247669   8.236   6.745   4.466
15931TIP3    H147670   8.184   6.780   4.541
15931TIP3    H247671   8.286   6.679   4.518
15932TIP3   OH247672   8.474   6.786   5.356
15932TIP3    H147673   8.472   6.869   5.406
15932TIP3    H247674   8.390   6.791   5.308
15933TIP3   OH247675   7.601   7.151   5.011
15933TIP3    H147676   7.583   7.116   4.922
15933TIP3    H247677   7.691   7.118   5.028
15934TIP3   OH247678   8.140   7.349   4.996
15934TIP3    H147679   8.120   7.431   5.044
15934TIP3    H247680   8.121   7.279   5.061
15935TIP3   OH247681   7.746   7.270   5.542
15935TIP3    H147682   7.687   7.334   5.587
15935TIP3    H247683   7.680   7.217   5.492
15936TIP3   OH247684   8.081   6.611   4.277
15936TIP3    H147685   8.145   6.663   4.330
15936TIP3    H247686   8.108   6.632   4.185
15937TIP3   OH247687   7.492   6.832   5.631
15937TIP3    H147688   7.503   6.917   5.679
15937TIP3    H247689   7.400   6.811   5.654
15938TIP3   OH247690   7.820   7.287   4.550
15938TIP3    H147691   7.897   7.342   4.571
15938TIP3    H247692   7.760   7.350   4.507
15939TIP3   OH247693   7.542   7.440   5.627
15939TIP3    H147694   7.507   7.439   5.535
15939TIP3    H247695   7.462   7.419   5.680
15940TIP3   OH247696   8.598   5.847   4.321
15940TIP3    H147697   8.517   5.865   4.372
15940TIP3    H247698   8.609   5.930   4.271
15941TIP3   OH247699   7.332   6.593   4.675
15941TIP3    H147700   7.269   6.632   4.611
15941TIP3    H247701   7.304   6.501   4.679
15942TIP3   OH247702   8.395   7.214   3.872
15942TIP3    H147703   8.404   7.310   3.853
15942TIP3    H247704   8.487   7.183   3.856
15943TIP3   OH247705   7.120   6.969   5.575
15943TIP3    H147706   7.055   6.948   5.505
15943TIP3    H247707   7.154   6.881   5.601
15944TIP3   OH247708   6.975   7.160   5.215
15944TIP3    H147709   7.070   7.160   5.198
15944TIP3    H247710   6.963   7.244   5.262
15945TIP3   OH247711   8.839   7.611   5.261
15945TIP3    H147712   8.839   7.515   5.279
15945TIP3    H247713   8.757   7.638   5.308
15946TIP3   OH247714   7.947   7.401   5.397
15946TIP3    H147715   7.947   7.494   5.430
15946TIP3    H247716   7.875   7.363   5.452
15947TIP3   OH247717   7.706   7.530   4.349
15947TIP3    H147718   7.659   7.511   4.266
15947TIP3    H247719   7.673   7.619   4.373
15948TIP3   OH247720   7.145   7.374   4.728
15948TIP3    H147721   7.192   7.368   4.814
15948TIP3    H247722   7.078   7.304   4.739
15949TIP3   OH247723   7.909   7.431   3.991
15949TIP3    H147724   7.967   7.361   3.953
15949TIP3    H247725   7.943   7.438   4.082
15950TIP3   OH247726   7.959   7.479   4.263
15950TIP3    H147727   7.869   7.491   4.302
15950TIP3    H247728   8.002   7.428   4.333
15951TIP3   OH247729   8.728   6.745   5.538
15951TIP3    H147730   8.653   6.758   5.478
15951TIP3    H247731   8.747   6.650   5.525
15952TIP3   OH247732   7.326   7.152   5.566
15952TIP3    H147733   7.376   7.136   5.648
15952TIP3    H247734   7.251   7.089   5.574
15953TIP3   OH247735   7.724   5.976   5.346
15953TIP3    H147736   7.635   5.945   5.320
15953TIP3    H247737   7.700   6.060   5.389
15954TIP3   OH247738   8.257   6.094   5.541
15954TIP3    H147739   8.323   6.066   5.607
15954TIP3    H247740   8.172   6.071   5.585
15955TIP3   OH247741   8.499   6.520   5.459
15955TIP3    H147742   8.450   6.517   5.545
15955TIP3    H247743   8.476   6.607   5.424
15956TIP3   OH247744   8.159   6.661   4.022
15956TIP3    H147745   8.122   6.631   3.936
15956TIP3    H247746   8.243   6.700   3.992
15957TIP3   OH247747   7.862   6.031   4.316
15957TIP3    H147748   7.836   6.026   4.410
15957TIP3    H247749   7.832   5.943   4.287
15958TIP3   OH247750   7.652   6.501   5.365
15958TIP3    H147751   7.606   6.504   5.452
15958TIP3    H247752   7.634   6.590   5.332
15959TIP3   OH247753   7.537   6.381   4.884
15959TIP3    H147754   7.445   6.352   4.896
15959TIP3    H247755   7.556   6.346   4.795
15960TIP3   OH247756   8.000   6.449   4.590
15960TIP3    H147757   7.971   6.535   4.554
15960TIP3    H247758   8.097   6.458   4.587
15961TIP3   OH247759   8.205   6.746   5.698
15961TIP3    H147760   8.184   6.671   5.757
15961TIP3    H247761   8.301   6.756   5.714
15962TIP3   OH247762   7.474   6.520   5.576
15962TIP3    H147763   7.504   6.581   5.644
15962TIP3    H247764   7.461   6.437   5.626
15963TIP3   OH247765   7.517   5.995   4.284
15963TIP3    H147766   7.520   5.995   4.381
15963TIP3    H247767   7.442   6.054   4.266
15964TIP3   OH247768   7.068   6.047   5.156
15964TIP3    H147769   7.147   6.074   5.206
15964TIP3    H247770   7.104   6.009   5.074
15965TIP3   OH247771   7.046   6.025   4.675
15965TIP3    H147772   7.090   6.063   4.596
15965TIP3    H247773   6.984   6.098   4.696
15966TIP3   OH247774   8.192   6.738   5.260
15966TIP3    H147775   8.225   6.664   5.204
15966TIP3    H247776   8.171   6.688   5.342
15967TIP3   OH247777   7.869   6.211   4.948
15967TIP3    H147778   7.788   6.199   5.001
15967TIP3    H247779   7.939   6.192   5.011
15968TIP3   OH247780   7.300   6.252   4.954
15968TIP3    H147781   7.207   6.257   4.923
15968TIP3    H247782   7.329   6.163   4.927
15969TIP3   OH247783   7.569   6.257   4.640
15969TIP3    H147784   7.666   6.263   4.625
15969TIP3    H247785   7.531   6.279   4.552
15970TIP3   OH247786   8.365   6.280   5.149
15970TIP3    H147787   8.316   6.286   5.234
15970TIP3    H247788   8.311   6.217   5.099
15971TIP3   OH247789   7.408   6.289   4.415
15971TIP3    H147790   7.338   6.243   4.365
15971TIP3    H247791   7.463   6.324   4.341
15972TIP3   OH247792   8.531   7.963   5.359
15972TIP3    H147793   8.528   7.994   5.267
15972TIP3    H247794   8.600   8.020   5.397
15973TIP3   OH247795   7.486   7.072   5.785
15973TIP3    H147796   7.567   7.105   5.831
15973TIP3    H247797   7.422   7.076   5.858
15974TIP3   OH247798   7.933   6.520   5.035
15974TIP3    H147799   8.000   6.476   4.978
15974TIP3    H247800   7.958   6.483   5.122
15975TIP3   OH247801   7.476   6.018   4.914
15975TIP3    H147802   7.447   5.935   4.958
15975TIP3    H247803   7.534   5.984   4.844
15976TIP3   OH247804   7.927   6.424   5.330
15976TIP3    H147805   7.839   6.463   5.348
15976TIP3    H247806   7.988   6.480   5.381
15977TIP3   OH247807   7.653   6.826   4.422
15977TIP3    H147808   7.588   6.754   4.412
15977TIP3    H247809   7.651   6.842   4.519
15978TIP3   OH247810   8.564   7.055   5.056
15978TIP3    H147811   8.590   7.098   4.972
15978TIP3    H247812   8.482   7.008   5.031
15979TIP3   OH247813   8.121   6.121   4.286
15979TIP3    H147814   8.023   6.116   4.290
15979TIP3    H247815   8.140   6.216   4.306
15980TIP3   OH247816   8.061   7.132   5.421
15980TIP3    H147817   8.087   7.112   5.512
15980TIP3    H247818   8.026   7.222   5.427
15981TIP3   OH247819   8.196   6.364   4.373
15981TIP3    H147820   8.291   6.369   4.399
15981TIP3    H247821   8.180   6.453   4.336
15982TIP3   OH247822   7.369   6.841   5.111
15982TIP3    H147823   7.366   6.791   5.029
15982TIP3    H247824   7.370   6.772   5.179
15983TIP3   OH247825   7.810   6.967   4.243
15983TIP3    H147826   7.763   7.054   4.250
15983TIP3    H247827   7.754   6.912   4.301
15984TIP3   OH247828   7.236   6.757   5.713
15984TIP3    H147829   7.258   6.744   5.807
15984TIP3    H247830   7.167   6.690   5.699
15985TIP3   OH247831   7.961   6.870   5.733
15985TIP3    H147832   7.905   6.811   5.680
15985TIP3    H247833   8.051   6.839   5.708
15986TIP3   OH247834   8.224   7.388   5.317
15986TIP3    H147835   8.128   7.393   5.329
15986TIP3    H247836   8.254   7.442   5.394
15987TIP3   OH247837   8.645   6.465   4.220
15987TIP3    H147838   8.576   6.416   4.170
15987TIP3    H247839   8.635   6.551   4.174
15988TIP3   OH247840   8.851   7.320   5.308
15988TIP3    H147841   8.754   7.316   5.300
15988TIP3    H247842   8.877   7.291   5.217
15989TIP3   OH247843   8.341   7.282   4.136
15989TIP3    H147844   8.310   7.209   4.191
15989TIP3    H247845   8.350   7.241   4.048
15990TIP3   OH247846   8.339   6.908   4.974
15990TIP3    H147847   8.246   6.887   4.978
15990TIP3    H247848   8.373   6.829   4.928
15991TIP3   OH247849   7.455   7.137   4.723
15991TIP3    H147850   7.463   7.219   4.670
15991TIP3    H247851   7.359   7.130   4.729
15992TIP3   OH247852   7.020   6.446   4.426
15992TIP3    H147853   7.067   6.529   4.446
15992TIP3    H247854   6.943   6.453   4.487
15993TIP3   OH247855   7.608   6.901   4.701
15993TIP3    H147856   7.585   6.995   4.698
15993TIP3    H247857   7.523   6.862   4.726
15994TIP3   OH247858   7.726   7.484   5.194
15994TIP3    H147859   7.763   7.559   5.143
15994TIP3    H247860   7.804   7.455   5.245
15995TIP3   OH247861   7.383   7.377   4.581
15995TIP3    H147862   7.294   7.387   4.621
15995TIP3    H247863   7.414   7.470   4.581
15996TIP3   OH247864   8.116   7.114   5.152
15996TIP3    H147865   8.106   7.117   5.250
15996TIP3    H247866   8.203   7.073   5.144
15997TIP3   OH247867   8.089   7.014   4.037
15997TIP3    H147868   8.141   6.986   4.115
15997TIP3    H247869   8.001   6.982   4.064
15998TIP3   OH247870   8.366   7.649   5.199
15998TIP3    H147871   8.284   7.597   5.193
15998TIP3    H247872   8.351   7.719   5.132
15999TIP3   OH247873   8.427   7.488   3.854
15999TIP3    H147874   8.463   7.556   3.794
15999TIP3    H247875   8.348   7.536   3.887
16000TIP3   OH247876   7.450   6.267   5.723
16000TIP3    H147877   7.353   6.267   5.735
16000TIP3    H247878   7.478   6.202   5.790
16001TIP3   OH247879   8.248   6.950   4.262
16001TIP3    H147880   8.238   6.880   4.329
16001TIP3    H247881   8.344   6.944   4.243
16002TIP3   OH247882   7.164   7.349   5.356
16002TIP3    H147883   7.218   7.274   5.386
16002TIP3    H247884   7.197   7.420   5.413
16003TIP3   OH247885   7.456   6.993   4.034
16003TIP3    H147886   7.471   6.902   4.003
16003TIP3    H247887   7.436   6.978   4.128
16004TIP3   OH247888   7.401   6.997   4.308
16004TIP3    H147889   7.480   6.969   4.358
16004TIP3    H247890   7.406   7.095   4.314
16005TIP3   OH247891   7.136   6.692   4.507
16005TIP3    H147892   7.072   6.738   4.564
16005TIP3    H247893   7.152   6.761   4.440
16006TIP3   OH247894   8.273   6.338   5.412
16006TIP3    H147895   8.364   6.366   5.432
16006TIP3    H247896   8.267   6.253   5.459
16007TIP3   OH247897   8.165   6.097   4.564
16007TIP3    H147898   8.145   6.102   4.469
16007TIP3    H247899   8.210   6.182   4.577
16008TIP3   OH247900   7.666   7.197   4.258
16008TIP3    H147901   7.579   7.226   4.291
16008TIP3    H247902   7.683   7.265   4.191
16009TIP3   OH247903   7.843   6.249   4.671
16009TIP3    H147904   7.906   6.318   4.638
16009TIP3    H247905   7.862   6.251   4.767
16010TIP3   OH247906   8.124   6.579   5.476
16010TIP3    H147907   8.148   6.627   5.558
16010TIP3    H247908   8.179   6.498   5.482
16011TIP3   OH247909   8.004   5.991   4.768
16011TIP3    H147910   8.002   6.065   4.831
16011TIP3    H247911   8.063   6.029   4.699
16012TIP3   OH247912   7.408   7.270   4.322
16012TIP3    H147913   7.379   7.339   4.257
16012TIP3    H247914   7.392   7.316   4.407
16013TIP3   OH247915   7.509   5.985   4.562
16013TIP3    H147916   7.512   6.076   4.598
16013TIP3    H247917   7.604   5.961   4.569
16014TIP3   OH247918   8.767   6.479   5.454
16014TIP3    H147919   8.669   6.477   5.460
16014TIP3    H247920   8.779   6.435   5.369
16015TIP3   OH247921   7.126   6.904   4.316
16015TIP3    H147922   7.190   6.977   4.324
16015TIP3    H247923   7.173   6.850   4.249
16016TIP3   OH247924   7.072   6.176   4.450
16016TIP3    H147925   7.072   6.273   4.443
16016TIP3    H247926   6.990   6.152   4.406
16017TIP3   OH247927   8.406   7.599   4.754
16017TIP3    H147928   8.340   7.655   4.705
16017TIP3    H247929   8.465   7.671   4.785
16018TIP3   OH247930   7.457   5.898   5.325
16018TIP3    H147931   7.429   5.864   5.238
16018TIP3    H247932   7.449   5.818   5.381
16019TIP3   OH247933   7.000   7.110   4.708
16019TIP3    H147934   6.923   7.146   4.755
16019TIP3    H247935   6.988   7.151   4.620
16020TIP3   OH247936   7.154   7.653   5.777
16020TIP3    H147937   7.241   7.653   5.823
16020TIP3    H247938   7.135   7.558   5.773
16021TIP3   OH247939   7.637   7.621   5.822
16021TIP3    H147940   7.733   7.608   5.827
16021TIP3    H247941   7.615   7.566   5.745
16022TIP3   OH247942   7.620   7.197   3.949
16022TIP3    H147943   7.562   7.126   3.987
16022TIP3    H247944   7.694   7.143   3.917
16023TIP3   OH247945   8.278   7.525   5.550
16023TIP3    H147946   8.270   7.457   5.620
16023TIP3    H247947   8.353   7.580   5.581
16024TIP3   OH247948   8.056   7.239   3.859
16024TIP3    H147949   8.099   7.172   3.915
16024TIP3    H247950   8.111   7.239   3.778
16025TIP3   OH247951   7.286   7.062   5.976
16025TIP3    H147952   7.304   6.966   5.977
16025TIP3    H247953   7.198   7.064   5.932
16026TIP3   OH247954   7.262   6.716   4.167
16026TIP3    H147955   7.317   6.678   4.238
16026TIP3    H247956   7.328   6.719   4.094
16027TIP3   OH247957   7.894   7.145   5.749
16027TIP3    H147958   7.854   7.162   5.661
16027TIP3    H247959   7.926   7.053   5.741
16028TIP3   OH247960   7.769   6.912   3.973
16028TIP3    H147961   7.774   6.925   4.070
16028TIP3    H247962   7.772   6.813   3.968
16029TIP3   OH247963   8.385   7.153   5.351
16029TIP3    H147964   8.461   7.198   5.310
16029TIP3    H247965   8.317   7.222   5.342
16030TIP3   OH247966   7.404   6.793   5.955
16030TIP3    H147967   7.480   6.735   5.938
16030TIP3    H247968   7.428   6.828   6.043
16031TIP3   OH247969   7.477   6.615   4.394
16031TIP3    H147970   7.449   6.567   4.473
16031TIP3    H247971   7.511   6.542   4.338
16032TIP3   OH247972   7.738   6.680   5.616
16032TIP3    H147973   7.664   6.744   5.619
16032TIP3    H247974   7.789   6.713   5.539
16033TIP3   OH247975   7.571   6.411   4.232
16033TIP3    H147976   7.547   6.409   4.137
16033TIP3    H247977   7.669   6.415   4.225
16034TIP3   OH247978   8.257   7.083   5.752
16034TIP3    H147979   8.338   7.065   5.704
16034TIP3    H247980   8.257   7.013   5.820
16035TIP3   OH247981   8.394   6.745   3.892
16035TIP3    H147982   8.373   6.693   3.812
16035TIP3    H247983   8.361   6.833   3.863
16036TIP3   OH247984   7.861   6.468   5.748
16036TIP3    H147985   7.865   6.387   5.693
16036TIP3    H247986   7.820   6.532   5.687
16037TIP3   OH247987   7.866   6.257   5.553
16037TIP3    H147988   7.895   6.292   5.467
16037TIP3    H247989   7.773   6.231   5.533
16038TIP3   OH247990   7.892   6.786   5.421
16038TIP3    H147991   7.978   6.797   5.377
16038TIP3    H247992   7.837   6.855   5.378
16039TIP3   OH247993   8.481   6.761   5.811
16039TIP3    H147994   8.525   6.674   5.809
16039TIP3    H247995   8.549   6.817   5.772
16040TIP3   OH247996   8.516   7.013   5.543
16040TIP3    H147997   8.459   7.065   5.482
16040TIP3    H247998   8.604   7.030   5.503
16041TIP3   OH247999   7.738   6.585   5.973
16041TIP3    H148000   7.671   6.515   5.987
16041TIP3    H248001   7.776   6.558   5.887
16042TIP3   OH248002   7.999   6.021   5.618
16042TIP3    H148003   7.949   6.103   5.595
16042TIP3    H248004   7.930   5.953   5.605
16043TIP3   OH248005   8.123   6.527   5.835
16043TIP3    H148006   8.113   6.514   5.931
16043TIP3    H248007   8.033   6.500   5.806
16044TIP3   OH248008   8.367   6.483   5.693
16044TIP3    H148009   8.289   6.474   5.752
16044TIP3    H248010   8.439   6.445   5.748
16045TIP3   OH248011   8.591   6.413   5.844
16045TIP3    H148012   8.605   6.317   5.862
16045TIP3    H248013   8.590   6.452   5.934
16046TIP3   OH248014   7.581   6.364   6.026
16046TIP3    H148015   7.587   6.274   5.989
16046TIP3    H248016   7.617   6.349   6.116
16047TIP3   OH248017   8.093   6.030   5.875
16047TIP3    H148018   8.161   5.960   5.870
16047TIP3    H248019   8.054   6.023   5.786
16048TIP3   OH248020   8.158   6.244   6.035
16048TIP3    H148021   8.137   6.172   5.970
16048TIP3    H248022   8.081   6.303   6.026
16049TIP3   OH248023   7.378   7.468   4.132
16049TIP3    H148024   7.473   7.472   4.114
16049TIP3    H248025   7.345   7.520   4.057
16050TIP3   OH248026   6.859   6.852   4.355
16050TIP3    H148027   6.953   6.876   4.339
16050TIP3    H248028   6.854   6.765   4.311
16051TIP3   OH248029   6.765   7.465   4.766
16051TIP3    H148030   6.701   7.400   4.730
16051TIP3    H248031   6.815   7.409   4.830
16052TIP3   OH248032   6.910   7.320   4.948
16052TIP3    H148033   6.898   7.246   5.010
16052TIP3    H248034   6.960   7.382   5.004
16053TIP3   OH248035   8.641   7.711   4.735
16053TIP3    H148036   8.663   7.745   4.825
16053TIP3    H248037   8.706   7.761   4.681
16054TIP3   OH248038   8.663   7.733   5.018
16054TIP3    H148039   8.626   7.644   5.033
16054TIP3    H248040   8.739   7.730   5.079
16055TIP3   OH248041   8.712   7.416   5.604
16055TIP3    H148042   8.639   7.424   5.668
16055TIP3    H248043   8.753   7.505   5.609
16056TIP3   OH248044   8.526   6.931   4.230
16056TIP3    H148045   8.599   6.988   4.200
16056TIP3    H248046   8.566   6.889   4.309
16057TIP3   OH248047   8.652   6.802   4.438
16057TIP3    H148048   8.595   6.756   4.502
16057TIP3    H248049   8.725   6.835   4.493
16058TIP3   OH248050   8.708   7.184   4.862
16058TIP3    H148051   8.766   7.118   4.818
16058TIP3    H248052   8.695   7.251   4.794
16059TIP3   OH248053   8.541   7.488   5.053
16059TIP3    H148054   8.476   7.530   5.113
16059TIP3    H248055   8.484   7.433   4.995
16060TIP3   OH248056   8.595   6.708   4.076
16060TIP3    H148057   8.523   6.707   4.009
16060TIP3    H248058   8.563   6.782   4.132
16061TIP3   OH248059   8.466   6.381   4.029
16061TIP3    H148060   8.424   6.413   3.949
16061TIP3    H248061   8.441   6.286   4.027
16062TIP3   OH248062   7.105   6.723   5.325
16062TIP3    H148063   7.099   6.694   5.232
16062TIP3    H248064   7.203   6.725   5.336
16063TIP3   OH248065   8.758   7.077   5.433
16063TIP3    H148066   8.830   7.010   5.426
16063TIP3    H248067   8.789   7.147   5.374
16064TIP3   OH248068   8.944   6.886   5.457
16064TIP3    H148069   8.870   6.832   5.493
16064TIP3    H248070   9.018   6.822   5.469
16065TIP3   OH248071   8.409   6.115   4.022
16065TIP3    H148072   8.486   6.083   4.074
16065TIP3    H248073   8.338   6.053   4.046
16066TIP3   OH248074   8.460   6.355   4.436
16066TIP3    H148075   8.500   6.276   4.476
16066TIP3    H248076   8.538   6.399   4.400
16067TIP3   OH248077   8.633   6.539   4.978
16067TIP3    H148078   8.712   6.568   4.928
16067TIP3    H248079   8.648   6.582   5.063
16068TIP3   OH248080   8.700   6.691   5.208
16068TIP3    H148081   8.617   6.724   5.248
16068TIP3    H248082   8.731   6.769   5.157
16069TIP3   OH248083   7.314   6.417   6.002
16069TIP3    H148084   7.411   6.408   5.999
16069TIP3    H248085   7.290   6.330   6.041
16070TIP3   OH248086   9.146   6.275   5.757
16070TIP3    H148087   9.206   6.209   5.714
16070TIP3    H248088   9.122   6.331   5.680
16071TIP3   OH248089   8.584   6.113   4.509
16071TIP3    H148090   8.624   6.102   4.597
16071TIP3    H248091   8.520   6.039   4.508
16072TIP3   OH248092   7.274   6.106   5.335
16072TIP3    H148093   7.335   6.029   5.340
16072TIP3    H248094   7.338   6.178   5.324
16073TIP3   OH248095   7.079   6.381   5.402
16073TIP3    H148096   7.127   6.366   5.319
16073TIP3    H248097   7.113   6.467   5.428
16074TIP3   OH248098   9.020   6.420   5.563
16074TIP3    H148099   8.929   6.454   5.573
16074TIP3    H248100   9.004   6.349   5.499
16075TIP3   OH248101   8.659   6.056   4.141
16075TIP3    H148102   8.694   5.981   4.089
16075TIP3    H248103   8.728   6.123   4.130
16076TIP3   OH248104   7.060   5.891   4.909
16076TIP3    H148105   6.965   5.882   4.927
16076TIP3    H248106   7.061   5.944   4.826
16077TIP3   OH248107   8.241   7.574   4.418
16077TIP3    H148108   8.277   7.563   4.328
16077TIP3    H248109   8.262   7.667   4.436
16078TIP3   OH248110   7.282   5.969   5.721
16078TIP3    H148111   7.230   5.957   5.802
16078TIP3    H248112   7.214   6.000   5.659
16079TIP3   OH248113   7.322   7.385   5.795
16079TIP3    H148114   7.230   7.359   5.778
16079TIP3    H248115   7.329   7.374   5.890
16080TIP3   OH248116   7.499   7.419   5.342
16080TIP3    H148117   7.450   7.495   5.303
16080TIP3    H248118   7.585   7.433   5.297
16081TIP3   OH248119   7.947   7.666   5.480
16081TIP3    H148120   7.989   7.671   5.568
16081TIP3    H248121   8.012   7.717   5.426
16082TIP3   OH248122   8.122   7.811   5.330
16082TIP3    H148123   8.199   7.763   5.298
16082TIP3    H248124   8.168   7.870   5.395
16083TIP3   OH248125   8.914   6.176   5.442
16083TIP3    H148126   8.827   6.175   5.399
16083TIP3    H248127   8.942   6.083   5.430
16084TIP3   OH248128   7.177   7.675   5.367
16084TIP3    H148129   7.090   7.711   5.339
16084TIP3    H248130   7.185   7.716   5.454
16085TIP3   OH248131   7.412   7.654   5.221
16085TIP3    H148132   7.326   7.669   5.267
16085TIP3    H248133   7.393   7.690   5.132
16086TIP3   OH248134   7.839   7.686   5.020
16086TIP3    H148135   7.771   7.708   4.954
16086TIP3    H248136   7.852   7.773   5.063
16087TIP3   OH248137   8.107   7.625   5.063
16087TIP3    H148138   8.011   7.641   5.050
16087TIP3    H248139   8.143   7.711   5.038
16088TIP3   OH248140   8.318   7.820   4.987
16088TIP3    H148141   8.300   7.911   4.951
16088TIP3    H248142   8.325   7.770   4.905
16089TIP3   OH248143   7.085   7.471   5.111
16089TIP3    H148144   7.114   7.448   5.202
16089TIP3    H248145   7.158   7.431   5.059
16090TIP3   OH248146   7.279   7.345   4.966
16090TIP3    H148147   7.297   7.262   5.015
16090TIP3    H248148   7.368   7.385   4.960
16091TIP3   OH248149   7.543   7.441   4.969
16091TIP3    H148150   7.579   7.352   4.955
16091TIP3    H248151   7.586   7.464   5.053
16092TIP3   OH248152   8.114   6.094   5.054
16092TIP3    H148153   8.080   6.021   5.107
16092TIP3    H248154   8.192   6.054   5.010
16093TIP3   OH248155   8.647   5.975   4.968
16093TIP3    H148156   8.690   6.028   4.897
16093TIP3    H248157   8.555   6.004   4.959
16094TIP3   OH248158   8.748   6.073   4.730
16094TIP3    H148159   8.823   6.030   4.685
16094TIP3    H248160   8.771   6.168   4.718
16095TIP3   OH248161   7.372   5.806   5.078
16095TIP3    H148162   7.280   5.771   5.075
16095TIP3    H248163   7.422   5.721   5.073
16096TIP3   OH248164   7.151   5.671   4.729
16096TIP3    H148165   7.183   5.725   4.655
16096TIP3    H248166   7.126   5.739   4.794
16097TIP3   OH248167   7.809   5.844   4.955
16097TIP3    H148168   7.871   5.886   4.892
16097TIP3    H248169   7.844   5.873   5.040
16098TIP3   OH248170   8.351   5.988   4.944
16098TIP3    H148171   8.368   5.961   4.853
16098TIP3    H248172   8.343   5.901   4.989
16099TIP3   OH248173   8.394   5.904   4.501
16099TIP3    H148174   8.307   5.945   4.504
16099TIP3    H248175   8.378   5.819   4.548
16100TIP3   OH248176   6.875   7.243   4.507
16100TIP3    H148177   6.791   7.210   4.469
16100TIP3    H248178   6.865   7.338   4.489
16101TIP3   OH248179   7.279   5.839   4.480
16101TIP3    H148180   7.339   5.768   4.456
16101TIP3    H248181   7.342   5.901   4.521
16102TIP3   OH248182   7.785   6.002   4.584
16102TIP3    H148183   7.848   5.954   4.640
16102TIP3    H248184   7.807   6.094   4.611
16103TIP3   OH248185   7.648   7.435   4.084
16103TIP3    H148186   7.736   7.457   4.046
16103TIP3    H248187   7.625   7.360   4.024
16104TIP3   OH248188   8.367   7.550   4.174
16104TIP3    H148189   8.358   7.453   4.161
16104TIP3    H248190   8.322   7.584   4.094
16105TIP3   OH248191   7.579   6.088   5.968
16105TIP3    H148192   7.548   6.014   6.023
16105TIP3    H248193   7.675   6.088   5.991
16106TIP3   OH248194   7.829   6.085   6.085
16106TIP3    H148195   7.912   6.056   6.043
16106TIP3    H248196   7.817   6.013   6.151
16107TIP3   OH248197   6.951   7.270   4.142
16107TIP3    H148198   6.953   7.302   4.233
16107TIP3    H248199   7.041   7.230   4.132
16108TIP3   OH248200   8.654   6.143   5.872
16108TIP3    H148201   8.675   6.111   5.962
16108TIP3    H248202   8.742   6.141   5.828
16109TIP3   OH248203   8.595   7.696   5.362
16109TIP3    H148204   8.513   7.665   5.319
16109TIP3    H248205   8.576   7.793   5.367
16110TIP3   OH248206   9.853   7.070   4.139
16110TIP3    H148207   9.833   7.159   4.105
16110TIP3    H248208   9.785   7.017   4.094
16111TIP3   OH248209   9.155   6.964   4.878
16111TIP3    H148210   9.188   6.897   4.941
16111TIP3    H248211   9.233   7.020   4.867
16112TIP3   OH248212   9.124   7.371   4.604
16112TIP3    H148213   9.120   7.272   4.607
16112TIP3    H248214   9.221   7.382   4.596
16113TIP3   OH248215   8.836   6.585   4.391
16113TIP3    H148216   8.777   6.662   4.395
16113TIP3    H248217   8.774   6.518   4.356
16114TIP3   OH248218   8.897   6.865   4.556
16114TIP3    H148219   8.942   6.787   4.595
16114TIP3    H248220   8.951   6.879   4.477
16115TIP3   OH248221   9.738   7.822   4.221
16115TIP3    H148222   9.781   7.744   4.181
16115TIP3    H248223   9.735   7.797   4.314
16116TIP3   OH248224  10.067   6.824   4.594
16116TIP3    H148225  10.071   6.729   4.618
16116TIP3    H248226  10.048   6.815   4.499
16117TIP3   OH248227   9.402   6.456   4.560
16117TIP3    H148228   9.383   6.527   4.494
16117TIP3    H248229   9.358   6.380   4.515
16118TIP3   OH248230  10.090   6.541   4.203
16118TIP3    H148231  10.167   6.508   4.251
16118TIP3    H248232  10.133   6.594   4.133
16119TIP3   OH248233   9.041   6.660   4.664
16119TIP3    H148234   9.123   6.634   4.711
16119TIP3    H248235   9.048   6.601   4.586
16120TIP3   OH248236   9.480   6.855   4.461
16120TIP3    H148237   9.575   6.830   4.472
16120TIP3    H248238   9.442   6.772   4.426
16121TIP3   OH248239   9.405   6.440   4.992
16121TIP3    H148240   9.341   6.472   4.925
16121TIP3    H248241   9.353   6.451   5.074
16122TIP3   OH248242   9.756   7.296   4.000
16122TIP3    H148243   9.712   7.265   3.920
16122TIP3    H248244   9.706   7.377   4.020
16123TIP3   OH248245   9.511   7.218   4.778
16123TIP3    H148246   9.435   7.255   4.827
16123TIP3    H248247   9.563   7.298   4.769
16124TIP3   OH248248   9.274   6.556   4.778
16124TIP3    H148249   9.342   6.624   4.797
16124TIP3    H248250   9.318   6.511   4.701
16125TIP3   OH248251   9.335   7.402   4.885
16125TIP3    H148252   9.311   7.487   4.845
16125TIP3    H248253   9.257   7.389   4.943
16126TIP3   OH248254   8.733   7.091   4.120
16126TIP3    H148255   8.691   7.112   4.034
16126TIP3    H248256   8.757   7.179   4.154
16127TIP3   OH248257   9.757   6.158   4.704
16127TIP3    H148258   9.749   6.061   4.719
16127TIP3    H248259   9.676   6.190   4.751
16128TIP3   OH248260   9.871   7.661   4.032
16128TIP3    H148261   9.946   7.600   4.041
16128TIP3    H248262   9.916   7.747   4.018
16129TIP3   OH248263   9.690   6.924   3.958
16129TIP3    H148264   9.605   6.971   3.941
16129TIP3    H248265   9.726   6.918   3.868
16130TIP3   OH248266   9.647   6.703   3.681
16130TIP3    H148267   9.716   6.742   3.736
16130TIP3    H248268   9.698   6.636   3.632
16131TIP3   OH248269   9.269   7.002   4.350
16131TIP3    H148270   9.225   6.944   4.284
16131TIP3    H248271   9.345   6.946   4.377
16132TIP3   OH248272   9.386   7.412   4.496
16132TIP3    H148273   9.365   7.366   4.413
16132TIP3    H248274   9.482   7.400   4.502
16133TIP3   OH248275   9.408   6.970   4.707
16133TIP3    H148276   9.435   6.944   4.616
16133TIP3    H248277   9.449   7.059   4.716
16134TIP3   OH248278   9.881   7.610   4.490
16134TIP3    H148279   9.907   7.701   4.514
16134TIP3    H248280   9.937   7.558   4.547
16135TIP3   OH248281   9.540   7.526   5.029
16135TIP3    H148282   9.482   7.591   5.075
16135TIP3    H248283   9.473   7.473   4.982
16136TIP3   OH248284   9.889   6.865   3.763
16136TIP3    H148285   9.936   6.926   3.822
16136TIP3    H248286   9.909   6.901   3.676
16137TIP3   OH248287   9.298   7.086   5.127
16137TIP3    H148288   9.302   7.172   5.174
16137TIP3    H248289   9.203   7.067   5.135
16138TIP3   OH248290   9.613   7.542   4.040
16138TIP3    H148291   9.691   7.597   4.056
16138TIP3    H248292   9.553   7.603   3.993
16139TIP3   OH248293   9.338   7.696   5.113
16139TIP3    H148294   9.301   7.695   5.023
16139TIP3    H248295   9.259   7.676   5.168
16140TIP3   OH248296   9.131   6.845   4.162
16140TIP3    H148297   9.068   6.885   4.099
16140TIP3    H248298   9.099   6.755   4.167
16141TIP3   OH248299   8.917   7.225   5.063
16141TIP3    H148300   8.855   7.197   4.993
16141TIP3    H248301   8.956   7.139   5.091
16142TIP3   OH248302   8.748   7.447   4.697
16142TIP3    H148303   8.822   7.403   4.652
16142TIP3    H248304   8.801   7.501   4.761
16143TIP3   OH248305   9.736   7.659   4.882
16143TIP3    H148306   9.739   7.751   4.915
16143TIP3    H248307   9.668   7.619   4.941
16144TIP3   OH248308   9.494   7.788   3.836
16144TIP3    H148309   9.453   7.766   3.750
16144TIP3    H248310   9.462   7.878   3.853
16145TIP3   OH248311   8.936   7.636   4.220
16145TIP3    H148312   8.988   7.628   4.303
16145TIP3    H248313   8.888   7.551   4.221
16146TIP3   OH248314   9.706   7.681   3.494
16146TIP3    H148315   9.782   7.638   3.453
16146TIP3    H248316   9.741   7.702   3.583
16147TIP3   OH248317   9.748   7.739   3.759
16147TIP3    H148318   9.657   7.749   3.795
16147TIP3    H248319   9.789   7.685   3.828
16148TIP3   OH248320   9.122   7.408   5.051
16148TIP3    H148321   9.172   7.394   5.134
16148TIP3    H248322   9.049   7.344   5.061
16149TIP3   OH248323   9.519   6.234   4.830
16149TIP3    H148324   9.431   6.197   4.808
16149TIP3    H248325   9.492   6.315   4.877
16150TIP3   OH248326  10.045   6.355   5.032
16150TIP3    H148327  10.094   6.326   5.110
16150TIP3    H248328   9.953   6.332   5.059
16151TIP3   OH248329   9.675   6.284   3.806
16151TIP3    H148330   9.642   6.283   3.898
16151TIP3    H248331   9.632   6.203   3.772
16152TIP3   OH248332   9.459   6.753   4.859
16152TIP3    H148333   9.395   6.764   4.934
16152TIP3    H248334   9.435   6.828   4.801
16153TIP3   OH248335   9.335   6.637   4.367
16153TIP3    H148336   9.243   6.607   4.384
16153TIP3    H248337   9.351   6.596   4.279
16154TIP3   OH248338   9.822   6.717   4.087
16154TIP3    H148339   9.772   6.792   4.050
16154TIP3    H248340   9.882   6.693   4.015
16155TIP3   OH248341  10.001   6.998   5.180
16155TIP3    H148342   9.977   6.929   5.245
16155TIP3    H248343  10.094   7.016   5.204
16156TIP3   OH248344   9.962   6.748   4.351
16156TIP3    H148345   9.932   6.794   4.271
16156TIP3    H248346  10.004   6.670   4.309
16157TIP3   OH248347   9.276   6.779   5.064
16157TIP3    H148348   9.285   6.839   5.139
16157TIP3    H248349   9.261   6.693   5.109
16158TIP3   OH248350   9.326   6.257   3.771
16158TIP3    H148351   9.317   6.251   3.868
16158TIP3    H248352   9.242   6.301   3.747
16159TIP3   OH248353   8.866   6.306   4.639
16159TIP3    H148354   8.945   6.327   4.692
16159TIP3    H248355   8.900   6.261   4.560
16160TIP3   OH248356   8.845   6.281   4.162
16160TIP3    H148357   8.889   6.320   4.084
16160TIP3    H248358   8.781   6.352   4.182
16161TIP3   OH248359   9.954   7.005   4.751
16161TIP3    H148360  10.007   6.943   4.694
16161TIP3    H248361   9.948   6.949   4.832
16162TIP3   OH248362   9.660   6.460   4.429
16162TIP3    H148363   9.579   6.454   4.483
16162TIP3    H248364   9.729   6.461   4.496
16163TIP3   OH248365   9.099   6.511   4.438
16163TIP3    H148366   9.004   6.516   4.411
16163TIP3    H248367   9.123   6.419   4.415
16164TIP3   OH248368   9.368   6.513   4.126
16164TIP3    H148369   9.463   6.523   4.107
16164TIP3    H248370   9.325   6.534   4.040
16165TIP3   OH248371  10.060   6.556   4.631
16165TIP3    H148372  10.062   6.551   4.729
16165TIP3    H248373  10.020   6.471   4.604
16166TIP3   OH248374   9.204   6.547   3.905
16166TIP3    H148375   9.132   6.499   3.860
16166TIP3    H248376   9.256   6.577   3.827
16167TIP3   OH248377   9.284   7.331   5.271
16167TIP3    H148378   9.363   7.362   5.319
16167TIP3    H248379   9.219   7.331   5.345
16168TIP3   OH248380   9.744   6.784   4.533
16168TIP3    H148381   9.817   6.766   4.471
16168TIP3    H248382   9.769   6.731   4.610
16169TIP3   OH248383   9.274   6.273   4.402
16169TIP3    H148384   9.239   6.194   4.448
16169TIP3    H248385   9.328   6.234   4.333
16170TIP3   OH248386   9.726   6.673   4.823
16170TIP3    H148387   9.635   6.709   4.828
16170TIP3    H248388   9.780   6.740   4.868
16171TIP3   OH248389   9.457   7.073   3.912
16171TIP3    H148390   9.386   7.006   3.902
16171TIP3    H248391   9.440   7.105   4.004
16172TIP3   OH248392   9.919   6.400   3.760
16172TIP3    H148393   9.827   6.374   3.786
16172TIP3    H248394   9.931   6.487   3.804
16173TIP3   OH248395   9.842   7.382   4.914
16173TIP3    H148396   9.875   7.369   5.004
16173TIP3    H248397   9.826   7.478   4.912
16174TIP3   OH248398  10.005   6.639   3.866
16174TIP3    H148399  10.097   6.664   3.883
16174TIP3    H248400   9.973   6.713   3.811
16175TIP3   OH248401   9.154   7.096   4.588
16175TIP3    H148402   9.190   7.066   4.502
16175TIP3    H248403   9.185   7.026   4.647
16176TIP3   OH248404   9.604   7.221   3.736
16176TIP3    H148405   9.558   7.308   3.741
16176TIP3    H248406   9.547   7.167   3.794
16177TIP3   OH248407   9.033   7.016   5.200
16177TIP3    H148408   9.055   7.001   5.294
16177TIP3    H248409   8.965   6.948   5.185
16178TIP3   OH248410   9.754   7.127   5.220
16178TIP3    H148411   9.691   7.063   5.182
16178TIP3    H248412   9.840   7.091   5.191
16179TIP3   OH248413  10.007   7.626   4.803
16179TIP3    H148414   9.915   7.657   4.808
16179TIP3    H248415  10.048   7.682   4.872
16180TIP3   OH248416   9.255   7.399   4.216
16180TIP3    H148417   9.259   7.478   4.159
16180TIP3    H248418   9.160   7.381   4.216
16181TIP3   OH248419   8.816   6.702   3.914
16181TIP3    H148420   8.863   6.786   3.935
16181TIP3    H248421   8.739   6.709   3.974
16182TIP3   OH248422   9.396   7.166   4.160
16182TIP3    H148423   9.359   7.255   4.178
16182TIP3    H248424   9.358   7.113   4.232
16183TIP3   OH248425   9.523   7.739   4.680
16183TIP3    H148426   9.562   7.812   4.629
16183TIP3    H248427   9.600   7.710   4.731
16184TIP3   OH248428   9.174   7.636   4.067
16184TIP3    H148429   9.088   7.649   4.109
16184TIP3    H248430   9.209   7.728   4.068
16185TIP3   OH248431   9.928   7.319   4.655
16185TIP3    H148432   9.915   7.375   4.734
16185TIP3    H248433  10.005   7.360   4.615
16186TIP3   OH248434   9.245   6.524   5.209
16186TIP3    H148435   9.148   6.520   5.217
16186TIP3    H248436   9.271   6.454   5.271
16187TIP3   OH248437   8.950   7.596   4.844
16187TIP3    H148438   9.015   7.529   4.871
16187TIP3    H248439   8.979   7.671   4.897
16188TIP3   OH248440   9.250   7.249   3.522
16188TIP3    H148441   9.266   7.159   3.488
16188TIP3    H248442   9.232   7.232   3.616
16189TIP3   OH248443   9.196   7.254   3.798
16189TIP3    H148444   9.271   7.226   3.851
16189TIP3    H248445   9.204   7.352   3.801
16190TIP3   OH248446   8.936   6.948   3.995
16190TIP3    H148447   8.869   6.991   4.051
16190TIP3    H248448   8.951   7.018   3.928
16191TIP3   OH248449  10.092   6.598   4.916
16191TIP3    H148450  10.141   6.635   4.991
16191TIP3    H248451  10.063   6.512   4.953
16192TIP3   OH248452   9.927   6.360   4.054
16192TIP3    H148453   9.953   6.357   3.961
16192TIP3    H248454   9.994   6.419   4.094
16193TIP3   OH248455   9.464   7.454   3.746
16193TIP3    H148456   9.376   7.485   3.776
16193TIP3    H248457   9.478   7.512   3.670
16194TIP3   OH248458   9.646   6.516   4.156
16194TIP3    H148459   9.717   6.581   4.137
16194TIP3    H248460   9.654   6.508   4.254
16195TIP3   OH248461   9.915   6.839   4.964
16195TIP3    H148462   9.943   6.889   5.043
16195TIP3    H248463   9.974   6.761   4.966
16196TIP3   OH248464   9.796   6.246   4.264
16196TIP3    H148465   9.787   6.326   4.319
16196TIP3    H248466   9.849   6.283   4.189
16197TIP3   OH248467   9.204   7.528   3.809
16197TIP3    H148468   9.176   7.596   3.744
16197TIP3    H248469   9.190   7.574   3.893
16198TIP3   OH248470   9.308   6.239   4.047
16198TIP3    H148471   9.304   6.329   4.086
16198TIP3    H248472   9.404   6.220   4.056
16199TIP3   OH248473   8.924   7.162   3.803
16199TIP3    H148474   8.992   7.231   3.808
16199TIP3    H248475   8.967   7.105   3.736
16200TIP3   OH248476   8.872   6.433   3.935
16200TIP3    H148477   8.865   6.530   3.929
16200TIP3    H248478   8.788   6.404   3.897
16201TIP3   OH248479   9.256   6.145   4.815
16201TIP3    H148480   9.226   6.115   4.727
16201TIP3    H248481   9.236   6.068   4.870
16202TIP3   OH248482   8.795   7.392   4.207
16202TIP3    H148483   8.699   7.405   4.203
16202TIP3    H248484   8.815   7.407   4.114
16203TIP3   OH248485   8.952   7.908   5.258
16203TIP3    H148486   9.037   7.910   5.306
16203TIP3    H248487   8.932   7.813   5.259
16204TIP3   OH248488   9.434   7.877   5.308
16204TIP3    H148489   9.530   7.871   5.309
16204TIP3    H248490   9.412   7.821   5.232
16205TIP3   OH248491   9.416   7.455   3.443
16205TIP3    H148492   9.360   7.380   3.474
16205TIP3    H248493   9.489   7.407   3.399
16206TIP3   OH248494  10.085   7.771   5.034
16206TIP3    H148495  10.061   7.706   5.103
16206TIP3    H248496  10.149   7.826   5.079
16207TIP3   OH248497   9.083   7.318   5.461
16207TIP3    H148498   9.101   7.222   5.466
16207TIP3    H248499   8.994   7.319   5.418
16208TIP3   OH248500   9.058   6.974   3.654
16208TIP3    H148501   9.112   6.933   3.724
16208TIP3    H248502   9.124   6.977   3.582
16209TIP3   OH248503   9.693   7.405   5.234
16209TIP3    H148504   9.650   7.418   5.147
16209TIP3    H248505   9.723   7.311   5.229
16210TIP3   OH248506   9.563   7.169   3.462
16210TIP3    H148507   9.577   7.185   3.558
16210TIP3    H248508   9.563   7.070   3.462
16211TIP3   OH248509   9.202   7.049   5.442
16211TIP3    H148510   9.276   6.989   5.426
16211TIP3    H248511   9.224   7.084   5.530
16212TIP3   OH248512   9.271   6.871   3.881
16212TIP3    H148513   9.243   6.824   3.961
16212TIP3    H248514   9.304   6.797   3.825
16213TIP3   OH248515   9.549   6.958   5.102
16213TIP3    H148516   9.467   7.006   5.123
16213TIP3    H248517   9.541   6.950   5.006
16214TIP3   OH248518   9.366   6.667   3.717
16214TIP3    H148519   9.338   6.665   3.623
16214TIP3    H248520   9.463   6.675   3.708
16215TIP3   OH248521  10.046   7.338   5.239
16215TIP3    H148522  10.133   7.326   5.201
16215TIP3    H248523  10.045   7.272   5.311
16216TIP3   OH248524   9.660   6.726   5.232
16216TIP3    H148525   9.659   6.643   5.181
16216TIP3    H248526   9.622   6.790   5.170
16217TIP3   OH248527   9.662   6.512   5.042
16217TIP3    H148528   9.689   6.551   4.956
16217TIP3    H248529   9.569   6.486   5.023
16218TIP3   OH248530  10.282   7.021   5.291
16218TIP3    H148531  10.316   6.932   5.305
16218TIP3    H248532  10.364   7.072   5.284
16219TIP3   OH248533   9.531   6.843   5.454
16219TIP3    H148534   9.466   6.772   5.472
16219TIP3    H248535   9.572   6.810   5.372
16220TIP3   OH248536   9.795   6.278   5.100
16220TIP3    H148537   9.742   6.359   5.081
16220TIP3    H248538   9.726   6.208   5.089
16221TIP3   OH248539   9.922   6.782   5.320
16221TIP3    H148540   9.910   6.771   5.417
16221TIP3    H248541   9.832   6.756   5.292
16222TIP3   OH248542  10.158   6.706   5.172
16222TIP3    H148543  10.079   6.725   5.225
16222TIP3    H248544  10.226   6.693   5.241
16223TIP3   OH248545  10.367   6.662   5.355
16223TIP3    H148546  10.419   6.589   5.391
16223TIP3    H248547  10.371   6.726   5.429
16224TIP3   OH248548   9.379   6.623   5.513
16224TIP3    H148549   9.380   6.531   5.478
16224TIP3    H248550   9.412   6.607   5.604
16225TIP3   OH248551   9.894   6.289   5.356
16225TIP3    H148552   9.956   6.214   5.352
16225TIP3    H248553   9.848   6.280   5.270
16226TIP3   OH248554   9.958   6.504   5.517
16226TIP3    H148555   9.933   6.432   5.455
16226TIP3    H248556   9.880   6.562   5.515
16227TIP3   OH248557   9.174   7.729   3.624
16227TIP3    H148558   9.270   7.727   3.602
16227TIP3    H248559   9.142   7.774   3.543
16228TIP3   OH248560   8.656   7.109   3.843
16228TIP3    H148561   8.750   7.132   3.825
16228TIP3    H248562   8.649   7.021   3.799
16229TIP3   OH248563   8.566   7.719   4.258
16229TIP3    H148564   8.496   7.666   4.214
16229TIP3    H248565   8.627   7.650   4.285
16230TIP3   OH248566   8.892   6.991   4.804
16230TIP3    H148567   8.893   6.955   4.713
16230TIP3    H248568   8.989   6.988   4.825
16231TIP3   OH248569   9.111   6.675   5.492
16231TIP3    H148570   9.208   6.665   5.486
16231TIP3    H248571   9.087   6.587   5.529
16232TIP3   OH248572   9.075   6.360   4.815
16232TIP3    H148573   9.133   6.282   4.829
16232TIP3    H248574   9.140   6.432   4.811
16233TIP3   OH248575   8.876   6.642   4.892
16233TIP3    H148576   8.918   6.617   4.807
16233TIP3    H248577   8.921   6.725   4.911
16234TIP3   OH248578   8.857   6.144   4.396
16234TIP3    H148579   8.762   6.136   4.419
16234TIP3    H248580   8.854   6.198   4.314
16235TIP3   OH248581   9.083   6.243   5.217
16235TIP3    H148582   9.026   6.212   5.289
16235TIP3    H248583   9.017   6.262   5.148
16236TIP3   OH248584   9.118   7.643   5.281
16236TIP3    H148585   9.026   7.615   5.266
16236TIP3    H248586   9.128   7.628   5.376
16237TIP3   OH248587   9.294   7.673   4.826
16237TIP3    H148588   9.248   7.752   4.789
16237TIP3    H248589   9.381   7.688   4.785
16238TIP3   OH248590   9.743   7.922   4.968
16238TIP3    H148591   9.782   7.928   5.058
16238TIP3    H248592   9.809   7.974   4.916
16239TIP3   OH248593   9.922   8.071   4.824
16239TIP3    H148594   9.977   8.017   4.766
16239TIP3    H248595   9.989   8.138   4.848
16240TIP3   OH248596   8.970   7.928   4.854
16240TIP3    H148597   8.883   7.967   4.829
16240TIP3    H248598   8.984   7.970   4.940
16241TIP3   OH248599   9.206   7.909   4.709
16241TIP3    H148600   9.121   7.925   4.754
16241TIP3    H248601   9.188   7.947   4.620
16242TIP3   OH248602   9.634   7.939   4.501
16242TIP3    H148603   9.562   7.965   4.441
16242TIP3    H248604   9.649   8.024   4.551
16243TIP3   OH248605   9.904   7.880   4.552
16243TIP3    H148606   9.810   7.901   4.538
16243TIP3    H248607   9.948   7.961   4.522
16244TIP3   OH248608   8.885   7.732   4.599
16244TIP3    H148609   8.918   7.708   4.688
16244TIP3    H248610   8.950   7.685   4.543
16245TIP3   OH248611   9.074   7.599   4.452
16245TIP3    H148612   9.093   7.516   4.500
16245TIP3    H248613   9.164   7.639   4.448
16246TIP3   OH248614   9.338   7.700   4.456
16246TIP3    H148615   9.371   7.610   4.439
16246TIP3    H248616   9.383   7.719   4.540
16247TIP3   OH248617   9.916   6.323   4.538
16247TIP3    H148618   9.862   6.262   4.592
16247TIP3    H248619   9.946   6.264   4.467
16248TIP3   OH248620   9.170   6.064   4.563
16248TIP3    H148621   9.078   6.029   4.561
16248TIP3    H248622   9.219   5.979   4.558
16249TIP3   OH248623   8.958   5.930   4.210
16249TIP3    H148624   8.984   5.987   4.136
16249TIP3    H248625   8.924   5.994   4.275
16250TIP3   OH248626   9.604   6.099   4.438
16250TIP3    H148627   9.668   6.142   4.380
16250TIP3    H248628   9.633   6.128   4.526
16251TIP3   OH248629   8.661   7.504   3.998
16251TIP3    H148630   8.580   7.468   3.956
16251TIP3    H248631   8.656   7.595   3.964
16252TIP3   OH248632   9.070   6.094   3.971
16252TIP3    H148633   9.117   6.027   3.917
16252TIP3    H248634   9.144   6.144   4.009
16253TIP3   OH248635   9.585   6.265   4.069
16253TIP3    H148636   9.643   6.216   4.130
16253TIP3    H248637   9.608   6.357   4.096
16254TIP3   OH248638   9.442   7.695   3.570
16254TIP3    H148639   9.531   7.714   3.533
16254TIP3    H248640   9.419   7.620   3.511
16255TIP3   OH248641   9.374   6.353   5.462
16255TIP3    H148642   9.343   6.271   5.504
16255TIP3    H248643   9.470   6.347   5.482
16256TIP3   OH248644   9.627   6.340   5.573
16256TIP3    H148645   9.710   6.311   5.533
16256TIP3    H248646   9.612   6.269   5.639
16257TIP3   OH248647   8.749   7.527   3.628
16257TIP3    H148648   8.753   7.559   3.719
16257TIP3    H248649   8.837   7.485   3.616
16258TIP3   OH248650   0.818   7.894   6.380
16258TIP3    H148651   0.870   7.841   6.442
16258TIP3    H248652   0.835   7.984   6.410
16259TIP3   OH248653   1.325   7.146   6.757
16259TIP3    H148654   1.355   7.229   6.799
16259TIP3    H248655   1.349   7.164   6.664
16260TIP3   OH248656   0.803   7.326   6.788
16260TIP3    H148657   0.828   7.234   6.809
16260TIP3    H248658   0.772   7.313   6.697
16261TIP3   OH248659   0.751   7.076   6.390
16261TIP3    H148660   0.828   7.060   6.449
16261TIP3    H248661   0.797   7.108   6.310
16262TIP3   OH248662   1.403   7.352   6.928
16262TIP3    H148663   1.319   7.398   6.905
16262TIP3    H248664   1.410   7.374   7.022
16263TIP3   OH248665   0.970   7.077   6.552
16263TIP3    H148666   0.958   7.030   6.636
16263TIP3    H248667   1.026   7.152   6.578
16264TIP3   OH248668   1.128   7.046   6.932
16264TIP3    H148669   1.038   7.079   6.918
16264TIP3    H248670   1.176   7.078   6.852
16265TIP3   OH248671   0.688   7.977   6.127
16265TIP3    H148672   0.627   7.908   6.096
16265TIP3    H248673   0.734   7.932   6.199
16266TIP3   OH248674   1.070   8.063   6.915
16266TIP3    H148675   1.035   7.982   6.873
16266TIP3    H248676   1.045   8.130   6.848
16267TIP3   OH248677   1.268   7.683   6.750
16267TIP3    H148678   1.183   7.732   6.759
16267TIP3    H248679   1.292   7.708   6.659
16268TIP3   OH248680   0.706   7.540   6.125
16268TIP3    H148681   0.641   7.561   6.196
16268TIP3    H248682   0.781   7.504   6.177
16269TIP3   OH248683   0.947   7.600   7.016
16269TIP3    H148684   0.928   7.666   7.086
16269TIP3    H248685   0.858   7.583   6.981
16270TIP3   OH248686   0.599   7.353   5.947
16270TIP3    H148687   0.604   7.424   6.014
16270TIP3    H248688   0.567   7.404   5.871
16271TIP3   OH248689   1.050   6.633   6.009
16271TIP3    H148690   0.969   6.652   6.061
16271TIP3    H248691   1.062   6.718   5.961
16272TIP3   OH248692   0.848   8.001   5.557
16272TIP3    H148693   0.860   8.098   5.547
16272TIP3    H248694   0.940   7.970   5.544
16273TIP3   OH248695   1.304   8.394   6.946
16273TIP3    H148696   1.304   8.298   6.965
16273TIP3    H248697   1.212   8.418   6.971
16274TIP3   OH248698   1.190   7.533   7.236
16274TIP3    H148699   1.114   7.565   7.184
16274TIP3    H248700   1.187   7.439   7.210
16275TIP3   OH248701   0.723   6.868   7.229
16275TIP3    H148702   0.797   6.836   7.286
16275TIP3    H248703   0.646   6.846   7.283
16276TIP3   OH248704   0.996   7.345   7.146
16276TIP3    H148705   0.947   7.322   7.227
16276TIP3    H248706   0.929   7.400   7.100
16277TIP3   OH248707   0.597   7.464   5.685
16277TIP3    H148708   0.585   7.409   5.605
16277TIP3    H248709   0.692   7.487   5.679
16278TIP3   OH248710   0.654   7.287   6.544
16278TIP3    H148711   0.574   7.310   6.493
16278TIP3    H248712   0.678   7.203   6.499
16279TIP3   OH248713   0.820   7.055   6.820
16279TIP3    H148714   0.822   7.055   6.918
16279TIP3    H248715   0.748   6.992   6.802
16280TIP3   OH248716   1.043   7.827   6.747
16280TIP3    H148717   1.062   7.881   6.667
16280TIP3    H248718   0.945   7.823   6.745
16281TIP3   OH248719   0.534   6.924   5.965
16281TIP3    H148720   0.455   6.976   5.987
16281TIP3    H248721   0.602   6.992   5.987
16282TIP3   OH248722   0.682   7.123   6.056
16282TIP3    H148723   0.764   7.161   6.093
16282TIP3    H248724   0.638   7.205   6.024
16283TIP3   OH248725   1.090   7.250   5.914
16283TIP3    H148726   1.027   7.205   5.852
16283TIP3    H248727   1.085   7.339   5.874
16284TIP3   OH248728   1.316   8.113   6.997
16284TIP3    H148729   1.218   8.106   6.989
16284TIP3    H248730   1.341   8.080   6.908
16285TIP3   OH248731   0.789   8.076   5.826
16285TIP3    H148732   0.762   8.010   5.892
16285TIP3    H248733   0.802   8.022   5.746
16286TIP3   OH248734   0.783   7.706   6.644
16286TIP3    H148735   0.705   7.665   6.683
16286TIP3    H248736   0.827   7.628   6.604
16287TIP3   OH248737   0.877   8.282   5.548
16287TIP3    H148738   0.928   8.349   5.500
16287TIP3    H248739   0.788   8.315   5.531
16288TIP3   OH248740   0.698   7.738   5.928
16288TIP3    H148741   0.683   7.669   5.996
16288TIP3    H248742   0.795   7.734   5.923
16289TIP3   OH248743   0.847   7.088   7.085
16289TIP3    H148744   0.828   7.175   7.122
16289TIP3    H248745   0.788   7.031   7.138
16290TIP3   OH248746   0.633   6.860   6.240
16290TIP3    H148747   0.600   6.905   6.160
16290TIP3    H248748   0.652   6.937   6.297
16291TIP3   OH248749   1.240   7.252   7.145
16291TIP3    H148750   1.143   7.270   7.145
16291TIP3    H248751   1.245   7.209   7.058
16292TIP3   OH248752   0.872   7.467   6.532
16292TIP3    H148753   0.797   7.404   6.533
16292TIP3    H248754   0.942   7.417   6.581
16293TIP3   OH248755   0.898   8.356   6.479
16293TIP3    H148756   0.820   8.406   6.450
16293TIP3    H248757   0.971   8.415   6.450
16294TIP3   OH248758   0.849   7.534   5.579
16294TIP3    H148759   0.829   7.482   5.499
16294TIP3    H248760   0.822   7.622   5.548
16295TIP3   OH248761   1.011   7.528   7.518
16295TIP3    H148762   0.967   7.462   7.461
16295TIP3    H248763   0.995   7.609   7.468
16296TIP3   OH248764   0.977   7.793   7.220
16296TIP3    H148765   0.915   7.849   7.171
16296TIP3    H248766   1.063   7.818   7.177
16297TIP3   OH248767   0.867   7.300   7.376
16297TIP3    H148768   0.783   7.258   7.404
16297TIP3    H248769   0.930   7.255   7.437
16298TIP3   OH248770   1.031   7.196   7.564
16298TIP3    H148771   1.056   7.101   7.556
16298TIP3    H248772   1.056   7.215   7.655
16299TIP3   OH248773   1.099   8.528   6.435
16299TIP3    H148774   1.123   8.564   6.522
16299TIP3    H248775   1.162   8.574   6.377
16300TIP3   OH248776   1.121   8.534   6.717
16300TIP3    H148777   1.087   8.444   6.708
16300TIP3    H248778   1.192   8.520   6.781
16301TIP3   OH248779   1.159   8.209   7.286
16301TIP3    H148780   1.109   8.208   7.367
16301TIP3    H248781   1.207   8.295   7.291
16302TIP3   OH248782   0.982   7.719   5.915
16302TIP3    H148783   1.055   7.780   5.891
16302TIP3    H248784   1.019   7.677   5.995
16303TIP3   OH248785   1.108   7.587   6.118
16303TIP3    H148786   1.043   7.540   6.176
16303TIP3    H248787   1.172   7.623   6.183
16304TIP3   OH248788   1.147   7.974   6.540
16304TIP3    H148789   1.210   7.911   6.501
16304TIP3    H248790   1.161   8.053   6.484
16305TIP3   OH248791   0.976   8.260   6.738
16305TIP3    H148792   0.920   8.324   6.783
16305TIP3    H248793   0.952   8.275   6.644
16306TIP3   OH248794   1.048   7.493   5.767
16306TIP3    H148795   0.975   7.496   5.701
16306TIP3    H248796   1.020   7.567   5.824
16307TIP3   OH248797   0.925   7.164   5.715
16307TIP3    H148798   0.876   7.204   5.643
16307TIP3    H248799   0.895   7.070   5.709
16308TIP3   OH248800   0.931   7.437   6.266
16308TIP3    H148801   0.935   7.339   6.258
16308TIP3    H248802   0.917   7.450   6.362
16309TIP3   OH248803   1.216   7.867   7.120
16309TIP3    H148804   1.289   7.802   7.113
16309TIP3    H248805   1.240   7.933   7.053
16310TIP3   OH248806   1.400   7.676   7.153
16310TIP3    H148807   1.326   7.621   7.185
16310TIP3    H248808   1.474   7.612   7.159
16311TIP3   OH248809   0.862   6.898   5.709
16311TIP3    H148810   0.941   6.872   5.761
16311TIP3    H248811   0.793   6.838   5.740
16312TIP3   OH248812   0.932   7.163   6.175
16312TIP3    H148813   0.968   7.072   6.187
16312TIP3    H248814   0.982   7.191   6.096
16313TIP3   OH248815   1.083   7.332   6.652
16313TIP3    H148816   1.170   7.360   6.615
16313TIP3    H248817   1.092   7.366   6.743
16314TIP3   OH248818   1.157   7.471   6.889
16314TIP3    H148819   1.078   7.510   6.934
16314TIP3    H248820   1.190   7.549   6.840
16315TIP3   OH248821   1.598   7.060   7.449
16315TIP3    H148822   1.659   6.996   7.405
16315TIP3    H248823   1.576   7.120   7.375
16316TIP3   OH248824   1.030   6.906   6.198
16316TIP3    H148825   1.076   6.890   6.283
16316TIP3    H248826   0.967   6.831   6.196
16317TIP3   OH248827   1.476   7.207   7.256
16317TIP3    H148828   1.383   7.234   7.239
16317TIP3    H248829   1.478   7.130   7.197
16318TIP3   OH248830   1.110   6.844   5.829
16318TIP3    H148831   1.152   6.770   5.781
16318TIP3    H248832   1.177   6.914   5.824
16319TIP3   OH248833   1.372   6.965   7.130
16319TIP3    H148834   1.281   6.963   7.095
16319TIP3    H248835   1.400   6.871   7.116
16320TIP3   OH248836   0.622   6.859   6.770
16320TIP3    H148837   0.599   6.777   6.817
16320TIP3    H248838   0.694   6.827   6.712
16321TIP3   OH248839   1.104   6.765   6.654
16321TIP3    H148840   1.140   6.817   6.579
16321TIP3    H248841   1.008   6.781   6.645
16322TIP3   OH248842   1.195   6.865   6.416
16322TIP3    H148843   1.269   6.814   6.375
16322TIP3    H248844   1.227   6.957   6.402
16323TIP3   OH248845   0.829   6.764   6.620
16323TIP3    H148846   0.824   6.730   6.529
16323TIP3    H248847   0.813   6.682   6.672
16324TIP3   OH248848   0.847   6.693   6.187
16324TIP3    H148849   0.764   6.742   6.202
16324TIP3    H248850   0.829   6.609   6.234
16325TIP3   OH248851   0.816   8.345   5.851
16325TIP3    H148852   0.811   8.247   5.865
16325TIP3    H248853   0.785   8.347   5.760
16326TIP3   OH248854   1.108   6.937   7.563
16326TIP3    H148855   1.126   6.901   7.652
16326TIP3    H248856   1.195   6.927   7.518
16327TIP3   OH248857   1.051   8.477   6.999
16327TIP3    H148858   0.970   8.434   7.029
16327TIP3    H248859   1.051   8.555   7.055
16328TIP3   OH248860   2.314   7.856   5.818
16328TIP3    H148861   2.285   7.948   5.802
16328TIP3    H248862   2.233   7.808   5.793
16329TIP3   OH248863   2.305   7.854   6.202
16329TIP3    H148864   2.341   7.828   6.289
16329TIP3    H248865   2.268   7.769   6.172
16330TIP3   OH248866   1.607   7.756   6.571
16330TIP3    H148867   1.639   7.686   6.631
16330TIP3    H248868   1.691   7.800   6.550
16331TIP3   OH248869   2.552   8.157   5.882
16331TIP3    H148870   2.540   8.086   5.946
16331TIP3    H248871   2.580   8.231   5.939
16332TIP3   OH248872   1.579   8.159   6.294
16332TIP3    H148873   1.571   8.061   6.296
16332TIP3    H248874   1.676   8.168   6.290
16333TIP3   OH248875   1.287   7.367   6.079
16333TIP3    H148876   1.237   7.450   6.091
16333TIP3    H248877   1.217   7.309   6.045
16334TIP3   OH248878   1.348   7.652   6.248
16334TIP3    H148879   1.396   7.575   6.287
16334TIP3    H248880   1.406   7.677   6.176
16335TIP3   OH248881   2.200   8.619   5.897
16335TIP3    H148882   2.249   8.548   5.851
16335TIP3    H248883   2.196   8.585   5.987
16336TIP3   OH248884   2.110   8.082   6.247
16336TIP3    H148885   2.147   8.002   6.205
16336TIP3    H248886   2.195   8.125   6.272
16337TIP3   OH248887   3.122   7.403   6.247
16337TIP3    H148888   3.149   7.485   6.293
16337TIP3    H248889   3.137   7.427   6.154
16338TIP3   OH248890   2.535   7.591   6.278
16338TIP3    H148891   2.558   7.502   6.311
16338TIP3    H248892   2.489   7.568   6.196
16339TIP3   OH248893   1.850   7.240   6.248
16339TIP3    H148894   1.836   7.315   6.186
16339TIP3    H248895   1.803   7.169   6.200
16340TIP3   OH248896   2.552   7.329   5.871
16340TIP3    H148897   2.624   7.314   5.937
16340TIP3    H248898   2.603   7.370   5.799
16341TIP3   OH248899   1.493   7.445   6.354
16341TIP3    H148900   1.576   7.424   6.402
16341TIP3    H248901   1.505   7.390   6.275
16342TIP3   OH248902   1.935   7.644   6.147
16342TIP3    H148903   2.028   7.618   6.165
16342TIP3    H248904   1.896   7.559   6.117
16343TIP3   OH248905   3.195   7.611   6.415
16343TIP3    H148906   3.110   7.658   6.396
16343TIP3    H248907   3.201   7.626   6.510
16344TIP3   OH248908   1.856   7.229   6.685
16344TIP3    H148909   1.799   7.263   6.614
16344TIP3    H248910   1.803   7.251   6.764
16345TIP3   OH248911   2.209   8.081   5.688
16345TIP3    H148912   2.159   8.052   5.611
16345TIP3    H248913   2.162   8.164   5.711
16346TIP3   OH248914   1.962   8.001   6.477
16346TIP3    H148915   1.898   8.065   6.516
16346TIP3    H248916   2.006   8.055   6.409
16347TIP3   OH248917   2.766   7.333   6.039
16347TIP3    H148918   2.751   7.283   6.121
16347TIP3    H248919   2.815   7.411   6.072
16348TIP3   OH248920   1.721   7.335   6.467
16348TIP3    H148921   1.782   7.409   6.491
16348TIP3    H248922   1.773   7.296   6.393
16349TIP3   OH248923   1.788   8.193   6.575
16349TIP3    H148924   1.762   8.279   6.535
16349TIP3    H248925   1.709   8.178   6.632
16350TIP3   OH248926   1.189   7.884   5.812
16350TIP3    H148927   1.145   7.910   5.729
16350TIP3    H248928   1.217   7.970   5.848
16351TIP3   OH248929   2.625   8.399   6.051
16351TIP3    H148930   2.535   8.389   6.091
16351TIP3    H248931   2.615   8.486   6.007
16352TIP3   OH248932   2.913   7.303   6.415
16352TIP3    H148933   2.823   7.329   6.389
16352TIP3    H248934   2.968   7.334   6.340
16353TIP3   OH248935   2.207   6.919   6.387
16353TIP3    H148936   2.179   6.834   6.426
16353TIP3    H248937   2.148   6.983   6.431
16354TIP3   OH248938   2.329   8.448   5.727
16354TIP3    H148939   2.379   8.366   5.706
16354TIP3    H248940   2.388   8.514   5.683
16355TIP3   OH248941   2.472   8.232   5.629
16355TIP3    H148942   2.425   8.155   5.595
16355TIP3    H248943   2.506   8.198   5.714
16356TIP3   OH248944   2.851   8.319   6.394
16356TIP3    H148945   2.842   8.235   6.343
16356TIP3    H248946   2.835   8.387   6.326
16357TIP3   OH248947   2.140   7.706   5.649
16357TIP3    H148948   2.060   7.757   5.627
16357TIP3    H248949   2.188   7.705   5.564
16358TIP3   OH248950   2.100   7.492   5.368
16358TIP3    H148951   2.168   7.540   5.419
16358TIP3    H248952   2.156   7.427   5.322
16359TIP3   OH248953   3.049   7.952   6.238
16359TIP3    H148954   2.966   8.002   6.250
16359TIP3    H248955   3.071   7.976   6.145
16360TIP3   OH248956   2.490   7.790   5.623
16360TIP3    H148957   2.434   7.815   5.701
16360TIP3    H248958   2.572   7.762   5.669
16361TIP3   OH248959   2.725   7.826   6.525
16361TIP3    H148960   2.729   7.906   6.582
16361TIP3    H248961   2.636   7.836   6.487
16362TIP3   OH248962   1.723   7.789   6.038
16362TIP3    H148963   1.682   7.730   5.972
16362TIP3    H248964   1.799   7.736   6.069
16363TIP3   OH248965   1.852   8.201   6.188
16363TIP3    H148966   1.831   8.151   6.107
16363TIP3    H248967   1.942   8.168   6.208
16364TIP3   OH248968   1.852   7.764   6.392
16364TIP3    H148969   1.891   7.738   6.306
16364TIP3    H248970   1.901   7.846   6.414
16365TIP3   OH248971   2.383   8.397   6.170
16365TIP3    H148972   2.371   8.474   6.228
16365TIP3    H248973   2.371   8.322   6.232
16366TIP3   OH248974   1.995   8.318   6.716
16366TIP3    H148975   1.936   8.380   6.764
16366TIP3    H248976   1.929   8.263   6.669
16367TIP3   OH248977   2.333   7.647   5.450
16367TIP3    H148978   2.391   7.706   5.503
16367TIP3    H248979   2.358   7.673   5.358
16368TIP3   OH248980   1.751   7.877   6.820
16368TIP3    H148981   1.751   7.963   6.866
16368TIP3    H248982   1.655   7.856   6.819
16369TIP3   OH248983   2.072   8.329   5.722
16369TIP3    H148984   2.148   8.383   5.747
16369TIP3    H248985   2.009   8.394   5.688
16370TIP3   OH248986   1.790   8.488   6.803
16370TIP3    H148987   1.755   8.482   6.712
16370TIP3    H248988   1.712   8.465   6.857
16371TIP3   OH248989   2.845   6.889   5.496
16371TIP3    H148990   2.764   6.907   5.549
16371TIP3    H248991   2.856   6.974   5.449
16372TIP3   OH248992   1.588   7.631   5.844
16372TIP3    H148993   1.522   7.674   5.786
16372TIP3    H248994   1.548   7.545   5.860
16373TIP3   OH248995   2.643   8.257   5.043
16373TIP3    H148996   2.652   8.354   5.031
16373TIP3    H248997   2.736   8.228   5.031
16374TIP3   OH248998   1.370   8.016   6.750
16374TIP3    H148999   1.309   7.987   6.680
16374TIP3    H249000   1.407   7.930   6.781
16375TIP3   OH249001   1.224   8.205   6.392
16375TIP3    H149002   1.319   8.197   6.374
16375TIP3    H249003   1.221   8.290   6.439
16376TIP3   OH249004   3.086   8.661   6.432
16376TIP3    H149005   3.089   8.564   6.447
16376TIP3    H249006   3.005   8.682   6.483
16377TIP3   OH249007   2.193   8.448   6.572
16377TIP3    H149008   2.193   8.540   6.607
16377TIP3    H249009   2.123   8.407   6.628
16378TIP3   OH249010   1.952   8.576   5.525
16378TIP3    H149011   1.905   8.556   5.442
16378TIP3    H249012   1.920   8.665   5.548
16379TIP3   OH249013   1.392   8.424   5.909
16379TIP3    H149014   1.441   8.414   5.993
16379TIP3    H249015   1.333   8.347   5.913
16380TIP3   OH249016   2.156   8.475   5.168
16380TIP3    H149017   2.215   8.405   5.132
16380TIP3    H249018   2.189   8.483   5.259
16381TIP3   OH249019   2.205   8.522   5.438
16381TIP3    H149020   2.117   8.532   5.480
16381TIP3    H249021   2.255   8.480   5.509
16382TIP3   OH249022   2.985   7.792   6.712
16382TIP3    H149023   2.902   7.816   6.668
16382TIP3    H249024   2.989   7.696   6.698
16383TIP3   OH249025   1.574   8.199   6.744
16383TIP3    H149026   1.625   8.180   6.825
16383TIP3    H249027   1.501   8.134   6.749
16384TIP3   OH249028   1.972   7.012   6.526
16384TIP3    H149029   1.879   6.992   6.505
16384TIP3    H249030   1.964   7.106   6.550
16385TIP3   OH249031   2.507   7.139   6.716
16385TIP3    H149032   2.571   7.110   6.783
16385TIP3    H249033   2.421   7.120   6.758
16386TIP3   OH249034   2.761   7.574   6.646
16386TIP3    H149035   2.700   7.566   6.723
16386TIP3    H249036   2.723   7.651   6.599
16387TIP3   OH249037   2.406   7.697   5.192
16387TIP3    H149038   2.374   7.669   5.104
16387TIP3    H249039   2.485   7.748   5.168
16388TIP3   OH249040   2.121   7.072   5.495
16388TIP3    H149041   2.090   7.071   5.587
16388TIP3    H249042   2.082   6.988   5.463
16389TIP3   OH249043   1.885   7.532   6.537
16389TIP3    H149044   1.859   7.565   6.625
16389TIP3    H249045   1.889   7.615   6.485
16390TIP3   OH249046   1.788   7.424   6.055
16390TIP3    H149047   1.696   7.395   6.074
16390TIP3    H249048   1.802   7.381   5.968
16391TIP3   OH249049   2.279   7.509   5.782
16391TIP3    H149050   2.224   7.580   5.743
16391TIP3    H249051   2.333   7.481   5.706
16392TIP3   OH249052   2.454   7.795   6.884
16392TIP3    H149053   2.435   7.717   6.940
16392TIP3    H249054   2.550   7.803   6.894
16393TIP3   OH249055   2.440   7.540   6.021
16393TIP3    H149056   2.378   7.568   5.950
16393TIP3    H249057   2.470   7.455   5.982
16394TIP3   OH249058   1.712   7.572   6.759
16394TIP3    H149059   1.762   7.628   6.821
16394TIP3    H249060   1.712   7.486   6.805
16395TIP3   OH249061   1.774   7.042   5.461
16395TIP3    H149062   1.769   7.039   5.558
16395TIP3    H249063   1.694   7.093   5.439
16396TIP3   OH249064   1.318   7.089   6.331
16396TIP3    H149065   1.393   7.120   6.386
16396TIP3    H249066   1.360   7.055   6.251
16397TIP3   OH249067   1.294   7.069   5.850
16397TIP3    H149068   1.340   7.109   5.773
16397TIP3    H249069   1.232   7.142   5.873
16398TIP3   OH249070   2.448   7.790   6.438
16398TIP3    H149071   2.484   7.716   6.385
16398TIP3    H249072   2.423   7.741   6.519
16399TIP3   OH249073   2.114   7.240   6.118
16399TIP3    H149074   2.030   7.235   6.167
16399TIP3    H249075   2.173   7.259   6.196
16400TIP3   OH249076   1.550   7.300   6.126
16400TIP3    H149077   1.456   7.306   6.100
16400TIP3    H249078   1.575   7.209   6.103
16401TIP3   OH249079   1.822   7.296   5.814
16401TIP3    H149080   1.917   7.313   5.796
16401TIP3    H249081   1.777   7.321   5.731
16402TIP3   OH249082   2.609   7.318   6.326
16402TIP3    H149083   2.569   7.339   6.413
16402TIP3    H249084   2.539   7.261   6.290
16403TIP3   OH249085   1.658   7.331   5.594
16403TIP3    H149086   1.585   7.287   5.547
16403TIP3    H249087   1.710   7.365   5.518
16404TIP3   OH249088   2.774   9.011   6.537
16404TIP3    H149089   2.772   9.031   6.442
16404TIP3    H249090   2.848   9.065   6.569
16405TIP3   OH249091   1.733   8.121   6.962
16405TIP3    H149092   1.815   8.150   7.007
16405TIP3    H249093   1.671   8.121   7.038
16406TIP3   OH249094   2.203   7.573   6.217
16406TIP3    H149095   2.265   7.524   6.162
16406TIP3    H249096   2.208   7.516   6.297
16407TIP3   OH249097   1.720   7.061   6.087
16407TIP3    H149098   1.691   6.981   6.136
16407TIP3    H249099   1.784   7.025   6.024
16408TIP3   OH249100   1.913   7.862   5.599
16408TIP3    H149101   1.841   7.795   5.589
16408TIP3    H249102   1.896   7.895   5.691
16409TIP3   OH249103   2.816   8.097   6.232
16409TIP3    H149104   2.837   8.145   6.149
16409TIP3    H249105   2.730   8.056   6.210
16410TIP3   OH249106   2.370   7.178   5.451
16410TIP3    H149107   2.274   7.159   5.467
16410TIP3    H249108   2.382   7.269   5.483
16411TIP3   OH249109   2.313   8.181   6.595
16411TIP3    H149110   2.339   8.151   6.683
16411TIP3    H249111   2.274   8.268   6.611
16412TIP3   OH249112   2.442   7.418   5.562
16412TIP3    H149113   2.538   7.425   5.582
16412TIP3    H249114   2.424   7.499   5.512
16413TIP3   OH249115   1.603   7.881   6.276
16413TIP3    H149116   1.642   7.854   6.190
16413TIP3    H249117   1.648   7.820   6.337
16414TIP3   OH249118   2.057   8.010   5.418
16414TIP3    H149119   2.011   8.096   5.427
16414TIP3    H249120   2.004   7.954   5.479
16415TIP3   OH249121   1.479   7.811   6.894
16415TIP3    H149122   1.508   7.788   6.984
16415TIP3    H249123   1.422   7.736   6.870
16416TIP3   OH249124   2.208   7.914   6.912
16416TIP3    H149125   2.156   7.862   6.849
16416TIP3    H249126   2.299   7.884   6.887
16417TIP3   OH249127   2.474   8.449   6.488
16417TIP3    H149128   2.378   8.437   6.503
16417TIP3    H249129   2.500   8.492   6.572
16418TIP3   OH249130   2.886   7.507   5.400
16418TIP3    H149131   2.823   7.462   5.340
16418TIP3    H249132   2.882   7.596   5.360
16419TIP3   OH249133   3.101   8.376   6.481
16419TIP3    H149134   3.003   8.360   6.475
16419TIP3    H249135   3.127   8.336   6.396
16420TIP3   OH249136   2.582   8.329   5.309
16420TIP3    H149137   2.558   8.260   5.373
16420TIP3    H249138   2.594   8.280   5.226
16421TIP3   OH249139   2.578   7.960   6.146
16421TIP3    H149140   2.487   7.931   6.165
16421TIP3    H249141   2.614   7.878   6.106
16422TIP3   OH249142   1.704   8.184   5.900
16422TIP3    H149143   1.706   8.267   5.848
16422TIP3    H249144   1.609   8.170   5.909
16423TIP3   OH249145   1.269   7.491   5.604
16423TIP3    H149146   1.316   7.574   5.625
16423TIP3    H249147   1.192   7.496   5.665
16424TIP3   OH249148   1.848   7.953   5.845
16424TIP3    H149149   1.811   8.042   5.865
16424TIP3    H249150   1.813   7.901   5.920
16425TIP3   OH249151   1.974   8.530   6.372
16425TIP3    H149152   2.016   8.601   6.321
16425TIP3    H249153   2.050   8.495   6.421
16426TIP3   OH249154   1.626   8.425   5.753
16426TIP3    H149155   1.540   8.432   5.799
16426TIP3    H249156   1.657   8.517   5.757
16427TIP3   OH249157   2.367   8.166   6.328
16427TIP3    H149158   2.356   8.163   6.425
16427TIP3    H249159   2.446   8.110   6.317
16428TIP3   OH249160   2.335   8.055   5.211
16428TIP3    H149161   2.389   8.031   5.290
16428TIP3    H249162   2.247   8.030   5.242
16429TIP3   OH249163   2.612   8.701   6.383
16429TIP3    H149164   2.537   8.639   6.378
16429TIP3    H249165   2.594   8.761   6.308
16430TIP3   OH249166   2.678   8.533   5.032
16430TIP3    H149167   2.718   8.606   4.982
16430TIP3    H249168   2.598   8.578   5.064
16431TIP3   OH249169   1.698   7.313   6.902
16431TIP3    H149170   1.601   7.313   6.909
16431TIP3    H249171   1.723   7.245   6.966
16432TIP3   OH249172   2.496   7.988   5.426
16432TIP3    H149173   2.486   7.924   5.499
16432TIP3    H249174   2.594   7.988   5.417
16433TIP3   OH249175   1.413   8.394   6.532
16433TIP3    H149176   1.465   8.316   6.558
16433TIP3    H249177   1.447   8.460   6.592
16434TIP3   OH249178   1.705   8.038   5.210
16434TIP3    H149179   1.719   7.946   5.180
16434TIP3    H249180   1.687   8.024   5.306
16435TIP3   OH249181   1.650   8.042   5.483
16435TIP3    H149182   1.719   8.013   5.544
16435TIP3    H249183   1.656   8.140   5.491
16436TIP3   OH249184   1.387   7.736   5.685
16436TIP3    H149185   1.322   7.780   5.743
16436TIP3    H249186   1.402   7.807   5.620
16437TIP3   OH249187   2.541   7.385   6.585
16437TIP3    H149188   2.620   7.403   6.637
16437TIP3    H249189   2.510   7.301   6.623
16438TIP3   OH249190   2.417   7.125   5.738
16438TIP3    H149191   2.402   7.154   5.647
16438TIP3    H249192   2.455   7.205   5.779
16439TIP3   OH249193   1.915   8.240   5.432
16439TIP3    H149194   1.829   8.269   5.468
16439TIP3    H249195   1.932   8.311   5.368
16440TIP3   OH249196   2.104   7.302   5.847
16440TIP3    H149197   2.169   7.374   5.831
16440TIP3    H249198   2.110   7.293   5.945
16441TIP3   OH249199   2.388   7.643   6.653
16441TIP3    H149200   2.407   7.677   6.742
16441TIP3    H249201   2.418   7.551   6.655
16442TIP3   OH249202   2.249   7.032   5.949
16442TIP3    H149203   2.237   7.105   6.013
16442TIP3    H249204   2.309   7.073   5.883
16443TIP3   OH249205   1.657   8.316   5.498
16443TIP3    H149206   1.627   8.385   5.436
16443TIP3    H249207   1.641   8.359   5.585
16444TIP3   OH249208   1.761   7.027   5.736
16444TIP3    H149209   1.756   7.117   5.775
16444TIP3    H249210   1.856   7.009   5.747
16445TIP3   OH249211   3.020   7.518   6.630
16445TIP3    H149212   2.923   7.524   6.644
16445TIP3    H249213   3.020   7.477   6.542
16446TIP3   OH249214   2.666   7.717   6.020
16446TIP3    H149215   2.588   7.661   6.038
16446TIP3    H249216   2.736   7.670   6.071
16447TIP3   OH249217   1.375   7.949   5.493
16447TIP3    H149218   1.440   8.021   5.502
16447TIP3    H249219   1.421   7.895   5.426
16448TIP3   OH249220   1.323   7.221   5.622
16448TIP3    H149221   1.320   7.319   5.619
16448TIP3    H249222   1.235   7.197   5.591
16449TIP3   OH249223   2.632   8.672   5.973
16449TIP3    H149224   2.590   8.719   5.897
16449TIP3    H249225   2.726   8.689   5.952
16450TIP3   OH249226   1.703   6.942   6.502
16450TIP3    H149227   1.676   6.909   6.414
16450TIP3    H249228   1.697   6.862   6.557
16451TIP3   OH249229   1.252   8.164   5.885
16451TIP3    H149230   1.173   8.193   5.932
16451TIP3    H249231   1.233   8.200   5.796
16452TIP3   OH249232   1.402   8.694   6.954
16452TIP3    H149233   1.489   8.697   6.998
16452TIP3    H249234   1.388   8.598   6.948
16453TIP3   OH249235   1.888   8.668   6.995
16453TIP3    H149236   1.981   8.646   7.004
16453TIP3    H249237   1.863   8.610   6.920
16454TIP3   OH249238   1.868   8.242   5.125
16454TIP3    H149239   1.811   8.172   5.164
16454TIP3    H249240   1.943   8.188   5.094
16455TIP3   OH249241   2.526   8.571   6.732
16455TIP3    H149242   2.515   8.499   6.798
16455TIP3    H249243   2.608   8.614   6.762
16456TIP3   OH249244   2.305   8.284   5.035
16456TIP3    H149245   2.349   8.220   5.093
16456TIP3    H249246   2.362   8.285   4.956
16457TIP3   OH249247   1.537   8.104   7.157
16457TIP3    H149248   1.556   8.008   7.154
16457TIP3    H249249   1.452   8.108   7.107
16458TIP3   OH249250   1.512   7.761   5.344
16458TIP3    H149251   1.565   7.724   5.416
16458TIP3    H249252   1.580   7.764   5.273
16459TIP3   OH249253   2.139   8.188   6.926
16459TIP3    H149254   2.104   8.202   6.836
16459TIP3    H249255   2.175   8.096   6.920
16460TIP3   OH249256   2.018   7.956   5.149
16460TIP3    H149257   2.021   7.970   5.246
16460TIP3    H249258   2.017   7.858   5.145
16461TIP3   OH249259   2.634   8.197   6.528
16461TIP3    H149260   2.710   8.243   6.489
16461TIP3    H249261   2.564   8.264   6.517
16462TIP3   OH249262   1.654   7.837   7.134
16462TIP3    H149263   1.732   7.787   7.108
16462TIP3    H249264   1.681   7.872   7.221
16463TIP3   OH249265   1.722   7.661   5.568
16463TIP3    H149266   1.694   7.620   5.652
16463TIP3    H249267   1.756   7.584   5.518
16464TIP3   OH249268   1.980   7.719   6.793
16464TIP3    H149269   1.910   7.788   6.797
16464TIP3    H249270   2.037   7.754   6.720
16465TIP3   OH249271   1.819   7.453   5.408
16465TIP3    H149272   1.792   7.454   5.314
16465TIP3    H249273   1.917   7.462   5.400
16466TIP3   OH249274   2.506   8.130   6.924
16466TIP3    H149275   2.592   8.120   6.881
16466TIP3    H249276   2.508   8.060   6.991
16467TIP3   OH249277   2.645   7.788   5.067
16467TIP3    H149278   2.621   7.740   4.985
16467TIP3    H249279   2.613   7.878   5.043
16468TIP3   OH249280   2.110   7.510   6.922
16468TIP3    H149281   2.116   7.433   6.862
16468TIP3    H249282   2.070   7.577   6.862
16469TIP3   OH249283   2.119   7.304   6.718
16469TIP3    H149284   2.153   7.325   6.628
16469TIP3    H249285   2.025   7.283   6.699
16470TIP3   OH249286   2.142   7.844   6.616
16470TIP3    H149287   2.221   7.825   6.563
16470TIP3    H249288   2.093   7.907   6.560
16471TIP3   OH249289   2.728   7.805   6.988
16471TIP3    H149290   2.778   7.723   6.984
16471TIP3    H249291   2.787   7.867   6.942
16472TIP3   OH249292   2.759   8.030   6.706
16472TIP3    H149293   2.706   8.096   6.655
16472TIP3    H249294   2.848   8.067   6.691
16473TIP3   OH249295   1.987   7.629   7.151
16473TIP3    H149296   1.920   7.558   7.161
16473TIP3    H249297   2.024   7.607   7.063
16474TIP3   OH249298   2.247   7.069   6.796
16474TIP3    H149299   2.202   7.152   6.766
16474TIP3    H249300   2.178   7.003   6.778
16475TIP3   OH249301   2.373   7.568   7.010
16475TIP3    H149302   2.360   7.558   7.106
16475TIP3    H249303   2.283   7.543   6.979
16476TIP3   OH249304   2.616   7.521   6.868
16476TIP3    H149305   2.537   7.518   6.926
16476TIP3    H249306   2.687   7.488   6.927
16477TIP3   OH249307   2.847   7.459   7.022
16477TIP3    H149308   2.856   7.363   7.040
16477TIP3    H249309   2.840   7.498   7.111
16478TIP3   OH249310   1.828   7.410   7.204
16478TIP3    H149311   1.838   7.322   7.163
16478TIP3    H249312   1.865   7.393   7.293
16479TIP3   OH249313   2.341   7.072   7.053
16479TIP3    H149314   2.409   7.003   7.044
16479TIP3    H249315   2.302   7.070   6.963
16480TIP3   OH249316   2.406   7.287   7.213
16480TIP3    H149317   2.384   7.217   7.147
16480TIP3    H249318   2.330   7.348   7.203
16481TIP3   OH249319   1.627   8.519   5.311
16481TIP3    H149320   1.722   8.516   5.291
16481TIP3    H249321   1.594   8.565   5.231
16482TIP3   OH249322   1.107   7.899   5.528
16482TIP3    H149323   1.201   7.921   5.515
16482TIP3    H249324   1.102   7.810   5.486
16483TIP3   OH249325   1.025   8.509   5.935
16483TIP3    H149326   0.955   8.448   5.903
16483TIP3    H249327   1.067   8.454   6.005
16484TIP3   OH249328   1.155   8.369   6.130
16484TIP3    H149329   1.148   8.291   6.187
16484TIP3    H249330   1.208   8.428   6.187
16485TIP3   OH249331   2.885   8.763   5.927
16485TIP3    H149332   2.909   8.799   6.014
16485TIP3    H249333   2.941   8.814   5.867
16486TIP3   OH249334   2.918   8.783   6.210
16486TIP3    H149335   2.868   8.699   6.201
16486TIP3    H249336   2.987   8.753   6.271
16487TIP3   OH249337   2.778   7.974   5.403
16487TIP3    H149338   2.848   8.037   5.378
16487TIP3    H249339   2.818   7.933   5.483
16488TIP3   OH249340   2.904   7.841   5.607
16488TIP3    H149341   2.838   7.798   5.665
16488TIP3    H249342   2.966   7.881   5.670
16489TIP3   OH249343   2.959   8.234   6.039
16489TIP3    H149344   3.012   8.170   5.988
16489TIP3    H249345   2.946   8.306   5.975
16490TIP3   OH249346   2.791   8.537   6.230
16490TIP3    H149347   2.720   8.571   6.288
16490TIP3    H249348   2.740   8.484   6.165
16491TIP3   OH249349   2.843   7.749   5.253
16491TIP3    H149350   2.771   7.753   5.186
16491TIP3    H249351   2.817   7.824   5.310
16492TIP3   OH249352   2.716   7.421   5.207
16492TIP3    H149353   2.670   7.462   5.133
16492TIP3    H249354   2.689   7.327   5.197
16493TIP3   OH249355   2.720   7.696   5.753
16493TIP3    H149356   2.727   7.599   5.751
16493TIP3    H249357   2.706   7.712   5.849
16494TIP3   OH249358   1.344   7.780   6.498
16494TIP3    H149359   1.344   7.745   6.407
16494TIP3    H249360   1.441   7.779   6.517
16495TIP3   OH249361   2.998   8.108   6.582
16495TIP3    H149362   3.078   8.057   6.605
16495TIP3    H249363   3.029   8.199   6.587
16496TIP3   OH249364   3.202   7.936   6.639
16496TIP3    H149365   3.122   7.888   6.671
16496TIP3    H249366   3.268   7.865   6.648
16497TIP3   OH249367   2.659   7.154   5.193
16497TIP3    H149368   2.734   7.127   5.250
16497TIP3    H249369   2.585   7.098   5.223
16498TIP3   OH249370   2.714   7.412   5.649
16498TIP3    H149371   2.754   7.323   5.666
16498TIP3    H249372   2.774   7.445   5.581
16499TIP3   OH249373   2.879   7.588   6.142
16499TIP3    H149374   2.966   7.616   6.106
16499TIP3    H249375   2.887   7.624   6.233
16500TIP3   OH249376   2.945   7.731   6.376
16500TIP3    H149377   2.866   7.761   6.426
16500TIP3    H249378   2.975   7.814   6.335
16501TIP3   OH249379   1.560   7.461   7.185
16501TIP3    H149380   1.658   7.454   7.176
16501TIP3    H249381   1.540   7.372   7.220
16502TIP3   OH249382   3.398   7.323   6.937
16502TIP3    H149383   3.455   7.255   6.895
16502TIP3    H249384   3.371   7.377   6.859
16503TIP3   OH249385   2.825   7.162   5.684
16503TIP3    H149386   2.871   7.148   5.770
16503TIP3    H249387   2.763   7.086   5.685
16504TIP3   OH249388   1.521   7.150   6.509
16504TIP3    H149389   1.583   7.075   6.517
16504TIP3    H249390   1.584   7.224   6.500
16505TIP3   OH249391   1.329   7.425   6.580
16505TIP3    H149392   1.378   7.414   6.496
16505TIP3    H249393   1.365   7.508   6.611
16506TIP3   OH249394   3.271   7.464   6.741
16506TIP3    H149395   3.182   7.503   6.757
16506TIP3    H249396   3.246   7.392   6.680
16507TIP3   OH249397   2.906   7.101   5.316
16507TIP3    H149398   2.948   7.027   5.268
16507TIP3    H249399   2.975   7.170   5.310
16508TIP3   OH249400   1.309   6.926   6.079
16508TIP3    H149401   1.215   6.926   6.106
16508TIP3    H249402   1.308   6.985   6.001
16509TIP3   OH249403   2.467   8.631   5.584
16509TIP3    H149404   2.521   8.614   5.503
16509TIP3    H249405   2.522   8.695   5.631
16510TIP3   OH249406   1.530   7.013   6.898
16510TIP3    H149407   1.476   7.000   6.978
16510TIP3    H249408   1.463   7.047   6.835
16511TIP3   OH249409   1.575   8.436   6.973
16511TIP3    H149410   1.484   8.404   6.953
16511TIP3    H249411   1.583   8.415   7.067
16512TIP3   OH249412   1.745   8.464   6.519
16512TIP3    H149413   1.700   8.541   6.479
16512TIP3    H249414   1.833   8.477   6.476
16513TIP3   OH249415   2.195   8.713   6.659
16513TIP3    H149416   2.238   8.712   6.747
16513TIP3    H249417   2.262   8.761   6.606
16514TIP3   OH249418   2.373   8.862   6.512
16514TIP3    H149419   2.444   8.808   6.473
16514TIP3    H249420   2.425   8.918   6.574
16515TIP3   OH249421   3.167   7.225   6.616
16515TIP3    H149422   3.076   7.223   6.582
16515TIP3    H249423   3.196   7.132   6.602
16516TIP3   OH249424   1.427   8.723   6.541
16516TIP3    H149425   1.339   8.758   6.517
16516TIP3    H249426   1.434   8.753   6.632
16517TIP3   OH249427   1.662   8.702   6.398
16517TIP3    H149428   1.576   8.715   6.444
16517TIP3    H249429   1.642   8.736   6.309
16518TIP3   OH249430   2.088   8.733   6.196
16518TIP3    H149431   2.018   8.754   6.131
16518TIP3    H249432   2.100   8.820   6.239
16519TIP3   OH249433   2.355   8.673   6.247
16519TIP3    H149434   2.261   8.688   6.227
16519TIP3    H249435   2.396   8.751   6.206
16520TIP3   OH249436   2.566   8.865   6.165
16520TIP3    H149437   2.551   8.949   6.116
16520TIP3    H249438   2.589   8.803   6.092
16521TIP3   OH249439   1.342   8.518   6.285
16521TIP3    H149440   1.367   8.493   6.376
16521TIP3    H249441   1.414   8.473   6.235
16522TIP3   OH249442   1.531   8.386   6.141
16522TIP3    H149443   1.548   8.302   6.189
16522TIP3    H249444   1.622   8.424   6.137
16523TIP3   OH249445   1.796   8.484   6.145
16523TIP3    H149446   1.828   8.393   6.132
16523TIP3    H249447   1.838   8.505   6.230
16524TIP3   OH249448   2.906   7.015   6.138
16524TIP3    H149449   2.936   7.073   6.064
16524TIP3    H249450   2.809   7.029   6.134
16525TIP3   OH249451   2.992   7.123   5.900
16525TIP3    H149452   3.067   7.073   5.861
16525TIP3    H249453   3.024   7.215   5.888
16526TIP3   OH249454   1.622   6.849   6.251
16526TIP3    H149455   1.530   6.815   6.251
16526TIP3    H249456   1.672   6.765   6.247
16527TIP3   OH249457   1.405   6.718   5.897
16527TIP3    H149458   1.436   6.777   5.826
16527TIP3    H249459   1.376   6.781   5.965
16528TIP3   OH249460   2.062   6.884   6.134
16528TIP3    H149461   2.123   6.935   6.078
16528TIP3    H249462   2.095   6.910   6.223
16529TIP3   OH249463   2.636   7.024   6.114
16529TIP3    H149464   2.584   7.009   6.035
16529TIP3    H249465   2.601   6.953   6.173
16530TIP3   OH249466   2.640   6.948   5.675
16530TIP3    H149467   2.555   6.993   5.689
16530TIP3    H249468   2.626   6.865   5.725
16531TIP3   OH249469   1.125   8.286   5.680
16531TIP3    H149470   1.040   8.254   5.646
16531TIP3    H249471   1.114   8.381   5.665
16532TIP3   OH249472   1.523   6.879   5.662
16532TIP3    H149473   1.573   6.817   5.606
16532TIP3    H249474   1.594   6.934   5.700
16533TIP3   OH249475   2.039   7.052   5.761
16533TIP3    H149476   2.098   7.007   5.823
16533TIP3    H249477   2.057   7.145   5.787
16534TIP3   OH249478   1.895   8.481   5.258
16534TIP3    H149479   1.985   8.501   5.224
16534TIP3    H249480   1.873   8.404   5.200
16535TIP3   OH249481   2.615   8.595   5.352
16535TIP3    H149482   2.606   8.498   5.339
16535TIP3    H249483   2.571   8.628   5.271
16536TIP3   OH249484   1.825   7.128   7.145
16536TIP3    H149485   1.798   7.055   7.202
16536TIP3    H249486   1.921   7.132   7.166
16537TIP3   OH249487   2.076   7.129   7.261
16537TIP3    H149488   2.160   7.105   7.218
16537TIP3    H249489   2.067   7.057   7.327
16538TIP3   OH249490   1.202   8.318   5.320
16538TIP3    H149491   1.202   8.343   5.413
16538TIP3    H249492   1.290   8.275   5.309
16539TIP3   OH249493   2.901   7.187   7.049
16539TIP3    H149494   2.923   7.156   7.140
16539TIP3    H249495   2.989   7.184   7.006
16540TIP3   OH249496   2.844   8.744   6.537
16540TIP3    H149497   2.765   8.707   6.494
16540TIP3    H249498   2.818   8.838   6.542
16541TIP3   OH249499   4.108   8.113   5.308
16541TIP3    H149500   4.080   8.205   5.287
16541TIP3    H249501   4.031   8.064   5.277
16542TIP3   OH249502   4.109   8.112   5.686
16542TIP3    H149503   4.135   8.077   5.773
16542TIP3    H249504   4.064   8.035   5.647
16543TIP3   OH249505   3.408   8.007   6.048
16543TIP3    H149506   3.436   7.941   6.114
16543TIP3    H249507   3.482   8.069   6.052
16544TIP3   OH249508   4.351   8.412   5.368
16544TIP3    H149509   4.333   8.343   5.433
16544TIP3    H249510   4.375   8.488   5.423
16545TIP3   OH249511   3.377   8.418   5.781
16545TIP3    H149512   3.367   8.321   5.784
16545TIP3    H249513   3.474   8.425   5.775
16546TIP3   OH249514   3.086   7.625   5.565
16546TIP3    H149515   3.034   7.707   5.579
16546TIP3    H249516   3.016   7.566   5.534
16547TIP3   OH249517   3.146   7.910   5.732
16547TIP3    H149518   3.192   7.833   5.772
16547TIP3    H249519   3.202   7.930   5.657
16548TIP3   OH249520   3.996   8.876   5.383
16548TIP3    H149521   4.046   8.805   5.338
16548TIP3    H249522   3.988   8.841   5.472
16549TIP3   OH249523   3.905   8.338   5.735
16549TIP3    H149524   3.939   8.261   5.686
16549TIP3    H249525   3.990   8.381   5.758
16550TIP3   OH249526   4.919   7.659   5.733
16550TIP3    H149527   4.946   7.743   5.776
16550TIP3    H249528   4.937   7.679   5.640
16551TIP3   OH249529   4.321   7.842   5.770
16551TIP3    H149530   4.359   7.754   5.790
16551TIP3    H249531   4.287   7.827   5.680
16552TIP3   OH249532   3.655   7.500   5.734
16552TIP3    H149533   3.631   7.572   5.672
16552TIP3    H249534   3.606   7.426   5.692
16553TIP3   OH249535   4.347   7.589   5.359
16553TIP3    H149536   4.421   7.572   5.422
16553TIP3    H249537   4.398   7.626   5.284
16554TIP3   OH249538   3.290   7.704   5.840
16554TIP3    H149539   3.371   7.681   5.889
16554TIP3    H249540   3.299   7.645   5.763
16555TIP3   OH249541   3.731   7.900   5.629
16555TIP3    H149542   3.823   7.872   5.647
16555TIP3    H249543   3.690   7.816   5.601
16556TIP3   OH249544   4.993   7.869   5.902
16556TIP3    H149545   4.909   7.914   5.882
16556TIP3    H249546   4.992   7.874   5.999
16557TIP3   OH249547   3.654   7.483   6.168
16557TIP3    H149548   3.590   7.518   6.103
16557TIP3    H249549   3.603   7.495   6.250
16558TIP3   OH249550   4.004   8.336   5.177
16558TIP3    H149551   3.956   8.309   5.097
16558TIP3    H249552   3.959   8.420   5.199
16559TIP3   OH249553   3.760   8.258   5.967
16559TIP3    H149554   3.693   8.319   6.006
16559TIP3    H249555   3.797   8.311   5.895
16560TIP3   OH249556   4.562   7.590   5.526
16560TIP3    H149557   4.550   7.539   5.607
16560TIP3    H249558   4.615   7.666   5.556
16561TIP3   OH249559   3.522   7.599   5.953
16561TIP3    H149560   3.585   7.670   5.976
16561TIP3    H249561   3.571   7.556   5.879
16562TIP3   OH249562   3.585   8.449   6.063
16562TIP3    H149563   3.558   8.534   6.023
16562TIP3    H249564   3.507   8.433   6.121
16563TIP3   OH249565   2.985   8.140   5.298
16563TIP3    H149566   2.939   8.167   5.216
16563TIP3    H249567   3.012   8.226   5.335
16564TIP3   OH249568   4.424   8.656   5.540
16564TIP3    H149569   4.334   8.648   5.579
16564TIP3    H249570   4.415   8.741   5.492
16565TIP3   OH249571   4.710   7.564   5.902
16565TIP3    H149572   4.621   7.588   5.872
16565TIP3    H249573   4.766   7.591   5.827
16566TIP3   OH249574   4.011   7.203   5.883
16566TIP3    H149575   3.998   7.108   5.902
16566TIP3    H249576   3.932   7.241   5.928
16567TIP3   OH249577   4.128   8.704   5.217
16567TIP3    H149578   4.176   8.622   5.192
16567TIP3    H249579   4.186   8.770   5.173
16568TIP3   OH249580   4.267   8.489   5.115
16568TIP3    H149581   4.223   8.411   5.078
16568TIP3    H249582   4.302   8.453   5.200
16569TIP3   OH249583   4.650   8.571   5.881
16569TIP3    H149584   4.636   8.493   5.823
16569TIP3    H249585   4.628   8.645   5.821
16570TIP3   OH249586   3.939   7.964   5.137
16570TIP3    H149587   3.857   8.014   5.116
16570TIP3    H249588   3.983   7.962   5.051
16571TIP3   OH249589   3.897   7.748   4.856
16571TIP3    H149590   3.966   7.797   4.905
16571TIP3    H249591   3.953   7.683   4.809
16572TIP3   OH249592   4.843   8.210   5.727
16572TIP3    H149593   4.759   8.260   5.731
16572TIP3    H249594   4.871   8.230   5.635
16573TIP3   OH249595   4.285   8.046   5.111
16573TIP3    H149596   4.230   8.072   5.188
16573TIP3    H249597   4.368   8.020   5.156
16574TIP3   OH249598   4.522   8.090   6.017
16574TIP3    H149599   4.512   8.174   6.064
16574TIP3    H249600   4.434   8.085   5.973
16575TIP3   OH249601   3.518   8.045   5.524
16575TIP3    H149602   3.476   7.987   5.458
16575TIP3    H249603   3.595   7.991   5.553
16576TIP3   OH249604   3.648   8.457   5.674
16576TIP3    H149605   3.624   8.410   5.593
16576TIP3    H249606   3.738   8.423   5.692
16577TIP3   OH249607   3.663   8.013   5.881
16577TIP3    H149608   3.689   7.998   5.788
16577TIP3    H249609   3.699   8.102   5.900
16578TIP3   OH249610   4.182   8.654   5.658
16578TIP3    H149611   4.164   8.733   5.712
16578TIP3    H249612   4.166   8.580   5.720
16579TIP3   OH249613   3.789   8.576   6.205
16579TIP3    H149614   3.729   8.639   6.251
16579TIP3    H249615   3.723   8.521   6.157
16580TIP3   OH249616   4.129   7.903   4.936
16580TIP3    H149617   4.186   7.963   4.989
16580TIP3    H249618   4.154   7.929   4.844
16581TIP3   OH249619   3.543   8.132   6.299
16581TIP3    H149620   3.547   8.215   6.350
16581TIP3    H249621   3.449   8.108   6.313
16582TIP3   OH249622   3.869   8.585   5.210
16582TIP3    H149623   3.943   8.643   5.234
16582TIP3    H249624   3.805   8.647   5.173
16583TIP3   OH249625   3.582   8.743   6.291
16583TIP3    H149626   3.547   8.737   6.200
16583TIP3    H249627   3.504   8.720   6.346
16584TIP3   OH249628   4.642   7.146   4.984
16584TIP3    H149629   4.561   7.164   5.035
16584TIP3    H249630   4.653   7.230   4.935
16585TIP3   OH249631   3.385   7.887   5.330
16585TIP3    H149632   3.319   7.932   5.274
16585TIP3    H249633   3.341   7.803   5.347
16586TIP3   OH249634   4.439   8.514   4.531
16586TIP3    H149635   4.447   8.611   4.518
16586TIP3    H249636   4.532   8.486   4.519
16587TIP3   OH249637   3.170   8.270   6.238
16587TIP3    H149638   3.100   8.248   6.173
16587TIP3    H249639   3.201   8.182   6.266
16588TIP3   OH249640   3.018   8.466   5.867
16588TIP3    H149641   3.115   8.460   5.864
16588TIP3    H249642   3.005   8.544   5.924
16589TIP3   OH249643   4.885   8.917   5.929
16589TIP3    H149644   4.881   8.819   5.932
16589TIP3    H249645   4.800   8.940   5.971
16590TIP3   OH249646   3.991   8.701   6.063
16590TIP3    H149647   3.989   8.794   6.094
16590TIP3    H249648   3.917   8.663   6.115
16591TIP3   OH249649   3.750   8.832   5.013
16591TIP3    H149650   3.703   8.813   4.929
16591TIP3    H249651   3.718   8.921   5.036
16592TIP3   OH249652   3.188   8.681   5.395
16592TIP3    H149653   3.235   8.671   5.480
16592TIP3    H249654   3.126   8.605   5.401
16593TIP3   OH249655   3.952   8.732   4.654
16593TIP3    H149656   4.011   8.662   4.618
16593TIP3    H249657   3.986   8.740   4.746
16594TIP3   OH249658   4.001   8.779   4.924
16594TIP3    H149659   3.913   8.790   4.965
16594TIP3    H249660   4.050   8.737   4.997
16595TIP3   OH249661   4.773   8.050   6.197
16595TIP3    H149662   4.691   8.059   6.146
16595TIP3    H249663   4.789   7.954   6.190
16596TIP3   OH249664   3.370   8.457   6.232
16596TIP3    H149665   3.421   8.434   6.313
16596TIP3    H249666   3.297   8.392   6.236
16597TIP3   OH249667   3.768   7.284   5.999
16597TIP3    H149668   3.678   7.250   5.981
16597TIP3    H249669   3.744   7.362   6.054
16598TIP3   OH249670   4.302   7.396   6.206
16598TIP3    H149671   4.366   7.366   6.272
16598TIP3    H249672   4.216   7.374   6.249
16599TIP3   OH249673   4.549   7.826   6.129
16599TIP3    H149674   4.496   7.818   6.211
16599TIP3    H249675   4.514   7.908   6.089
16600TIP3   OH249676   4.203   7.952   4.679
16600TIP3    H149677   4.170   7.926   4.591
16600TIP3    H249678   4.281   8.006   4.655
16601TIP3   OH249679   3.917   7.328   4.981
16601TIP3    H149680   3.885   7.326   5.073
16601TIP3    H249681   3.878   7.244   4.949
16602TIP3   OH249682   3.704   7.792   6.031
16602TIP3    H149683   3.650   7.810   6.111
16602TIP3    H249684   3.686   7.872   5.977
16603TIP3   OH249685   3.585   7.680   5.542
16603TIP3    H149686   3.492   7.653   5.561
16603TIP3    H249687   3.598   7.638   5.454
16604TIP3   OH249688   4.077   7.767   5.271
16604TIP3    H149689   4.021   7.837   5.230
16604TIP3    H249690   4.129   7.737   5.194
16605TIP3   OH249691   4.251   8.049   6.363
16605TIP3    H149692   4.225   7.974   6.421
16605TIP3    H249693   4.347   8.054   6.382
16606TIP3   OH249694   4.236   7.796   5.510
16606TIP3    H149695   4.175   7.826   5.439
16606TIP3    H249696   4.266   7.713   5.469
16607TIP3   OH249697   3.523   7.822   6.238
16607TIP3    H149698   3.535   7.884   6.311
16607TIP3    H249699   3.507   7.738   6.287
16608TIP3   OH249700   3.571   7.300   4.948
16608TIP3    H149701   3.564   7.296   5.045
16608TIP3    H249702   3.491   7.350   4.925
16609TIP3   OH249703   3.114   7.349   5.814
16609TIP3    H149704   3.189   7.376   5.871
16609TIP3    H249705   3.157   7.308   5.737
16610TIP3   OH249706   3.091   7.326   5.337
16610TIP3    H149707   3.136   7.367   5.260
16610TIP3    H249708   3.029   7.398   5.360
16611TIP3   OH249709   4.252   8.043   5.936
16611TIP3    H149710   4.280   7.969   5.876
16611TIP3    H249711   4.218   7.991   6.012
16612TIP3   OH249712   3.911   7.504   5.606
16612TIP3    H149713   3.827   7.500   5.655
16612TIP3    H249714   3.976   7.501   5.678
16613TIP3   OH249715   3.348   7.557   5.612
16613TIP3    H149716   3.253   7.564   5.587
16613TIP3    H249717   3.369   7.464   5.591
16614TIP3   OH249718   3.619   7.554   5.300
16614TIP3    H149719   3.713   7.570   5.278
16614TIP3    H249720   3.571   7.577   5.218
16615TIP3   OH249721   4.404   7.576   5.806
16615TIP3    H149722   4.369   7.588   5.897
16615TIP3    H249723   4.339   7.514   5.769
16616TIP3   OH249724   3.455   7.586   5.082
16616TIP3    H149725   3.381   7.543   5.036
16616TIP3    H249726   3.506   7.621   5.005
16617TIP3   OH249727   4.573   9.265   6.025
16617TIP3    H149728   4.568   9.288   5.930
16617TIP3    H249729   4.651   9.317   6.053
16618TIP3   OH249730   3.532   8.378   6.447
16618TIP3    H149731   3.609   8.407   6.499
16618TIP3    H249732   3.466   8.369   6.519
16619TIP3   OH249733   3.998   7.831   5.705
16619TIP3    H149734   4.065   7.784   5.655
16619TIP3    H249735   4.002   7.788   5.793
16620TIP3   OH249736   3.521   7.317   5.579
16620TIP3    H149737   3.487   7.238   5.626
16620TIP3    H249738   3.574   7.278   5.509
16621TIP3   OH249739   3.973   7.728   5.984
16621TIP3    H149740   3.882   7.758   6.004
16621TIP3    H249741   4.028   7.784   6.042
16622TIP3   OH249742   3.710   8.117   5.088
16622TIP3    H149743   3.638   8.052   5.077
16622TIP3    H249744   3.692   8.151   5.179
16623TIP3   OH249745   4.610   8.354   5.719
16623TIP3    H149746   4.633   8.402   5.637
16623TIP3    H249747   4.524   8.311   5.695
16624TIP3   OH249748   4.168   7.432   4.944
16624TIP3    H149749   4.071   7.414   4.955
16624TIP3    H249750   4.177   7.526   4.971
16625TIP3   OH249751   4.122   8.442   6.084
16625TIP3    H149752   4.117   8.404   6.173
16625TIP3    H249753   4.070   8.523   6.092
16626TIP3   OH249754   4.238   7.675   5.051
16626TIP3    H149755   4.334   7.683   5.067
16626TIP3    H249756   4.219   7.755   4.998
16627TIP3   OH249757   3.405   8.142   5.765
16627TIP3    H149758   3.441   8.109   5.680
16627TIP3    H249759   3.432   8.073   5.828
16628TIP3   OH249760   3.854   8.267   4.907
16628TIP3    H149761   3.808   8.353   4.914
16628TIP3    H249762   3.800   8.211   4.967
16629TIP3   OH249763   3.283   8.054   6.374
16629TIP3    H149764   3.295   8.044   6.471
16629TIP3    H249765   3.206   7.997   6.358
16630TIP3   OH249766   4.004   8.174   6.396
16630TIP3    H149767   3.942   8.114   6.350
16630TIP3    H249768   4.090   8.137   6.366
16631TIP3   OH249769   4.273   8.699   5.977
16631TIP3    H149770   4.177   8.688   5.987
16631TIP3    H249771   4.295   8.749   6.058
16632TIP3   OH249772   4.682   7.764   4.888
16632TIP3    H149773   4.619   7.719   4.827
16632TIP3    H249774   4.678   7.853   4.847
16633TIP3   OH249775   4.897   8.627   5.970
16633TIP3    H149776   4.800   8.617   5.956
16633TIP3    H249777   4.927   8.596   5.881
16634TIP3   OH249778   4.382   8.585   4.797
16634TIP3    H149779   4.353   8.515   4.858
16634TIP3    H249780   4.391   8.538   4.712
16635TIP3   OH249781   4.376   8.214   5.640
16635TIP3    H149782   4.283   8.187   5.652
16635TIP3    H249783   4.410   8.135   5.593
16636TIP3   OH249784   3.501   8.441   5.387
16636TIP3    H149785   3.502   8.523   5.334
16636TIP3    H249786   3.406   8.427   5.397
16637TIP3   OH249787   3.064   7.747   5.089
16637TIP3    H149788   3.111   7.831   5.110
16637TIP3    H249789   2.987   7.753   5.150
16638TIP3   OH249790   3.646   8.210   5.335
16638TIP3    H149791   3.607   8.299   5.351
16638TIP3    H249792   3.606   8.159   5.408
16639TIP3   OH249793   3.770   8.788   5.859
16639TIP3    H149794   3.809   8.859   5.805
16639TIP3    H249795   3.848   8.754   5.905
16640TIP3   OH249796   3.423   8.680   5.242
16640TIP3    H149797   3.337   8.688   5.286
16640TIP3    H249798   3.454   8.773   5.244
16641TIP3   OH249799   4.163   8.421   5.815
16641TIP3    H149800   4.156   8.420   5.913
16641TIP3    H249801   4.238   8.362   5.800
16642TIP3   OH249802   4.132   8.311   4.697
16642TIP3    H149803   4.184   8.287   4.777
16642TIP3    H249804   4.043   8.287   4.727
16643TIP3   OH249805   4.410   8.957   5.867
16643TIP3    H149806   4.332   8.899   5.859
16643TIP3    H249807   4.394   9.021   5.794
16644TIP3   OH249808   4.474   8.789   4.519
16644TIP3    H149809   4.511   8.861   4.464
16644TIP3    H249810   4.394   8.835   4.552
16645TIP3   OH249811   3.495   7.565   6.385
16645TIP3    H149812   3.398   7.570   6.400
16645TIP3    H249813   3.522   7.503   6.455
16646TIP3   OH249814   4.292   8.246   4.915
16646TIP3    H149815   4.282   8.181   4.987
16646TIP3    H249816   4.389   8.246   4.903
16647TIP3   OH249817   3.212   8.650   6.015
16647TIP3    H149818   3.258   8.571   6.047
16647TIP3    H249819   3.237   8.714   6.083
16648TIP3   OH249820   3.502   8.294   4.697
16648TIP3    H149821   3.515   8.201   4.667
16648TIP3    H249822   3.483   8.281   4.792
16649TIP3   OH249823   3.448   8.298   4.969
16649TIP3    H149824   3.515   8.271   5.033
16649TIP3    H249825   3.451   8.396   4.976
16650TIP3   OH249826   3.184   7.993   5.172
16650TIP3    H149827   3.117   8.037   5.230
16650TIP3    H249828   3.197   8.064   5.106
16651TIP3   OH249829   4.330   7.629   6.065
16651TIP3    H149830   4.409   7.662   6.110
16651TIP3    H249831   4.310   7.548   6.117
16652TIP3   OH249832   4.210   7.382   5.226
16652TIP3    H149833   4.195   7.407   5.134
16652TIP3    H249834   4.248   7.465   5.264
16653TIP3   OH249835   3.712   8.497   4.919
16653TIP3    H149836   3.625   8.525   4.955
16653TIP3    H249837   3.728   8.568   4.855
16654TIP3   OH249838   3.903   7.558   5.332
16654TIP3    H149839   3.967   7.631   5.315
16654TIP3    H249840   3.905   7.553   5.430
16655TIP3   OH249841   4.171   7.881   6.139
16655TIP3    H149842   4.183   7.933   6.221
16655TIP3    H249843   4.222   7.800   6.157
16656TIP3   OH249844   4.048   7.291   5.438
16656TIP3    H149845   4.038   7.369   5.496
16656TIP3    H249846   4.106   7.328   5.367
16657TIP3   OH249847   3.454   8.571   4.985
16657TIP3    H149848   3.424   8.641   4.922
16657TIP3    H249849   3.437   8.616   5.071
16658TIP3   OH249850   3.556   7.284   5.224
16658TIP3    H149851   3.552   7.374   5.261
16658TIP3    H249852   3.652   7.266   5.233
16659TIP3   OH249853   4.813   7.781   6.114
16659TIP3    H149854   4.715   7.783   6.129
16659TIP3    H249855   4.814   7.729   6.032
16660TIP3   OH249856   4.461   7.974   5.509
16660TIP3    H149857   4.384   7.916   5.520
16660TIP3    H249858   4.532   7.925   5.557
16661TIP3   OH249859   3.171   8.205   4.980
16661TIP3    H149860   3.233   8.279   4.988
16661TIP3    H249861   3.219   8.152   4.912
16662TIP3   OH249862   3.120   7.478   5.109
16662TIP3    H149863   3.116   7.576   5.106
16662TIP3    H249864   3.032   7.454   5.078
16663TIP3   OH249865   4.429   8.928   5.461
16663TIP3    H149866   4.386   8.974   5.386
16663TIP3    H249867   4.523   8.946   5.438
16664TIP3   OH249868   3.506   7.198   5.987
16664TIP3    H149869   3.472   7.162   5.902
16664TIP3    H249870   3.496   7.121   6.047
16665TIP3   OH249871   3.047   8.417   5.370
16665TIP3    H149872   2.972   8.448   5.422
16665TIP3    H249873   3.025   8.456   5.282
16666TIP3   OH249874   3.203   8.945   6.435
16666TIP3    H149875   3.272   8.904   6.490
16666TIP3    H249876   3.151   8.865   6.417
16667TIP3   OH249877   3.664   8.499   4.612
16667TIP3    H149878   3.607   8.428   4.650
16667TIP3    H249879   3.739   8.445   4.579
16668TIP3   OH249880   4.320   8.833   6.217
16668TIP3    H149881   4.307   8.759   6.281
16668TIP3    H249882   4.400   8.876   6.251
16669TIP3   OH249883   4.101   8.541   4.521
16669TIP3    H149884   4.147   8.477   4.578
16669TIP3    H249885   4.157   8.542   4.441
16670TIP3   OH249886   3.332   8.363   6.637
16670TIP3    H149887   3.347   8.266   6.642
16670TIP3    H249888   3.241   8.367   6.600
16671TIP3   OH249889   3.308   8.017   4.829
16671TIP3    H149890   3.360   7.981   4.902
16671TIP3    H249891   3.376   8.021   4.759
16672TIP3   OH249892   3.941   8.448   6.409
16672TIP3    H149893   3.893   8.460   6.326
16672TIP3    H249894   3.969   8.353   6.405
16673TIP3   OH249895   3.816   8.213   4.637
16673TIP3    H149896   3.817   8.227   4.734
16673TIP3    H249897   3.814   8.115   4.633
16674TIP3   OH249898   4.436   8.452   6.022
16674TIP3    H149899   4.500   8.503   5.971
16674TIP3    H249900   4.356   8.506   6.011
16675TIP3   OH249901   3.456   8.104   6.616
16675TIP3    H149902   3.515   8.028   6.606
16675TIP3    H249903   3.474   8.130   6.709
16676TIP3   OH249904   3.520   7.917   5.056
16676TIP3    H149905   3.489   7.876   5.138
16676TIP3    H249906   3.552   7.840   5.005
16677TIP3   OH249907   3.788   7.989   6.287
16677TIP3    H149908   3.706   8.042   6.289
16677TIP3    H249909   3.829   8.018   6.203
16678TIP3   OH249910   3.615   7.709   4.895
16678TIP3    H149911   3.588   7.711   4.801
16678TIP3    H249912   3.712   7.718   4.886
16679TIP3   OH249913   4.308   8.387   6.420
16679TIP3    H149914   4.374   8.351   6.361
16679TIP3    H249915   4.296   8.316   6.485
16680TIP3   OH249916   4.443   8.044   4.554
16680TIP3    H149917   4.417   7.996   4.472
16680TIP3    H249918   4.410   8.134   4.530
16681TIP3   OH249919   3.911   7.771   6.409
16681TIP3    H149920   3.907   7.688   6.356
16681TIP3    H249921   3.864   7.835   6.351
16682TIP3   OH249922   3.911   7.559   6.215
16682TIP3    H149923   3.935   7.594   6.127
16682TIP3    H249924   3.818   7.532   6.200
16683TIP3   OH249925   3.945   8.099   6.089
16683TIP3    H149926   4.020   8.098   6.028
16683TIP3    H249927   3.884   8.162   6.045
16684TIP3   OH249928   4.525   8.060   6.471
16684TIP3    H149929   4.563   7.972   6.486
16684TIP3    H249930   4.598   8.107   6.430
16685TIP3   OH249931   4.564   8.319   6.218
16685TIP3    H149932   4.505   8.367   6.154
16685TIP3    H249933   4.650   8.331   6.172
16686TIP3   OH249934   3.787   7.886   6.637
16686TIP3    H149935   3.717   7.818   6.652
16686TIP3    H249936   3.821   7.859   6.549
16687TIP3   OH249937   4.046   7.322   6.276
16687TIP3    H149938   3.993   7.403   6.259
16687TIP3    H249939   3.975   7.254   6.270
16688TIP3   OH249940   4.168   7.830   6.498
16688TIP3    H149941   4.155   7.813   6.593
16688TIP3    H249942   4.079   7.802   6.466
16689TIP3   OH249943   4.410   7.778   6.355
16689TIP3    H149944   4.332   7.775   6.413
16689TIP3    H249945   4.480   7.741   6.412
16690TIP3   OH249946   4.645   7.715   6.504
16690TIP3    H149947   4.653   7.619   6.523
16690TIP3    H249948   4.636   7.754   6.594
16691TIP3   OH249949   3.629   7.665   6.689
16691TIP3    H149950   3.631   7.573   6.656
16691TIP3    H249951   3.663   7.650   6.780
16692TIP3   OH249952   4.151   7.338   6.531
16692TIP3    H149953   4.207   7.259   6.529
16692TIP3    H249954   4.096   7.323   6.451
16693TIP3   OH249955   4.208   7.550   6.694
16693TIP3    H149956   4.186   7.477   6.632
16693TIP3    H249957   4.127   7.603   6.691
16694TIP3   OH249958   3.423   8.772   4.797
16694TIP3    H149959   3.518   8.773   4.778
16694TIP3    H249960   3.390   8.821   4.719
16695TIP3   OH249961   2.903   8.156   5.014
16695TIP3    H149962   2.998   8.178   5.003
16695TIP3    H249963   2.899   8.067   4.973
16696TIP3   OH249964   2.817   8.768   5.427
16696TIP3    H149965   2.749   8.706   5.393
16696TIP3    H249966   2.861   8.712   5.494
16697TIP3   OH249967   2.954   8.623   5.614
16697TIP3    H149968   2.943   8.547   5.674
16697TIP3    H249969   3.003   8.683   5.672
16698TIP3   OH249970   4.682   9.017   5.414
16698TIP3    H149971   4.706   9.059   5.499
16698TIP3    H249972   4.735   9.068   5.351
16699TIP3   OH249973   4.709   9.043   5.698
16699TIP3    H149974   4.667   8.954   5.690
16699TIP3    H249975   4.789   9.020   5.747
16700TIP3   OH249976   4.573   8.230   4.890
16700TIP3    H149977   4.642   8.294   4.863
16700TIP3    H249978   4.615   8.190   4.969
16701TIP3   OH249979   4.701   8.098   5.093
16701TIP3    H149980   4.635   8.055   5.151
16701TIP3    H249981   4.763   8.138   5.157
16702TIP3   OH249982   4.756   8.489   5.529
16702TIP3    H149983   4.806   8.426   5.475
16702TIP3    H249984   4.744   8.564   5.467
16703TIP3   OH249985   4.587   8.789   5.724
16703TIP3    H149986   4.515   8.834   5.770
16703TIP3    H249987   4.539   8.741   5.652
16704TIP3   OH249988   4.639   8.005   4.741
16704TIP3    H149989   4.568   8.008   4.673
16704TIP3    H249990   4.612   8.081   4.796
16705TIP3   OH249991   4.512   7.678   4.695
16705TIP3    H149992   4.467   7.719   4.620
16705TIP3    H249993   4.485   7.584   4.684
16706TIP3   OH249994   4.517   7.953   5.240
16706TIP3    H149995   4.522   7.856   5.236
16706TIP3    H249996   4.502   7.968   5.336
16707TIP3   OH249997   3.142   8.031   5.983
16707TIP3    H149998   3.141   7.999   5.890
16707TIP3    H249999   3.239   8.029   6.002
16708TIP3   OH250000   4.807   8.380   6.103
16708TIP3    H150001   4.877   8.311   6.093
16708TIP3    H250002   4.824   8.437   6.026
16709TIP3   OH250003   4.992   8.187   6.122
16709TIP3    H150004   4.915   8.135   6.154
16709TIP3    H250005   5.063   8.120   6.134
16710TIP3   OH250006   4.454   7.412   4.682
16710TIP3    H150007   4.529   7.382   4.738
16710TIP3    H250008   4.381   7.355   4.708
16711TIP3   OH250009   4.511   7.670   5.137
16711TIP3    H150010   4.551   7.581   5.153
16711TIP3    H250011   4.570   7.702   5.067
16712TIP3   OH250012   4.675   7.845   5.630
16712TIP3    H150013   4.761   7.873   5.591
16712TIP3    H250014   4.686   7.881   5.720
16713TIP3   OH250015   4.742   7.988   5.863
16713TIP3    H150016   4.663   8.020   5.911
16713TIP3    H250017   4.772   8.069   5.817
16714TIP3   OH250018   3.362   7.717   6.663
16714TIP3    H150019   3.459   7.705   6.663
16714TIP3    H250020   3.334   7.633   6.703
16715TIP3   OH250021   5.184   7.581   6.415
16715TIP3    H150022   5.248   7.515   6.381
16715TIP3    H250023   5.167   7.637   6.336
16716TIP3   OH250024   4.621   7.419   5.173
16716TIP3    H150025   4.667   7.403   5.257
16716TIP3    H250026   4.559   7.342   5.171
16717TIP3   OH250027   3.321   7.405   5.986
16717TIP3    H150028   3.383   7.331   6.003
16717TIP3    H250029   3.382   7.481   5.987
16718TIP3   OH250030   3.126   7.680   6.067
16718TIP3    H150031   3.174   7.676   5.982
16718TIP3    H250032   3.152   7.767   6.100
16719TIP3   OH250033   5.067   7.726   6.216
16719TIP3    H150034   4.980   7.759   6.244
16719TIP3    H250035   5.040   7.648   6.164
16720TIP3   OH250036   4.703   7.357   4.805
16720TIP3    H150037   4.743   7.283   4.754
16720TIP3    H250038   4.771   7.427   4.795
16721TIP3   OH250039   3.106   7.182   5.565
16721TIP3    H150040   3.013   7.182   5.594
16721TIP3    H250041   3.103   7.242   5.488
16722TIP3   OH250042   4.267   8.884   5.073
16722TIP3    H150043   4.317   8.869   4.990
16722TIP3    H250044   4.318   8.956   5.114
16723TIP3   OH250045   3.326   7.266   6.385
16723TIP3    H150046   3.275   7.258   6.467
16723TIP3    H250047   3.258   7.303   6.324
16724TIP3   OH250048   3.363   8.701   6.475
16724TIP3    H150049   3.277   8.666   6.444
16724TIP3    H250050   3.368   8.660   6.563
16725TIP3   OH250051   3.544   8.721   6.008
16725TIP3    H150052   3.492   8.794   5.967
16725TIP3    H250053   3.629   8.737   5.962
16726TIP3   OH250054   3.989   8.970   6.146
16726TIP3    H150055   4.034   8.969   6.232
16726TIP3    H250056   4.055   9.018   6.090
16727TIP3   OH250057   4.168   9.117   6.002
16727TIP3    H150058   4.237   9.068   5.955
16727TIP3    H250059   4.222   9.175   6.060
16728TIP3   OH250060   4.964   7.482   6.101
16728TIP3    H150061   4.871   7.476   6.072
16728TIP3    H250062   4.993   7.389   6.090
16729TIP3   OH250063   3.226   8.984   6.030
16729TIP3    H150064   3.141   9.017   5.993
16729TIP3    H250065   3.208   8.998   6.123
16730TIP3   OH250066   3.459   8.960   5.886
16730TIP3    H150067   3.373   8.973   5.931
16730TIP3    H250068   3.438   8.994   5.796
16731TIP3   OH250069   3.885   8.988   5.683
16731TIP3    H150070   3.815   9.007   5.617
16731TIP3    H250071   3.896   9.077   5.723
16732TIP3   OH250072   4.152   8.930   5.737
16732TIP3    H150073   4.057   8.944   5.716
16732TIP3    H250074   4.192   9.006   5.690
16733TIP3   OH250075   4.363   9.121   5.652
16733TIP3    H150076   4.346   9.206   5.605
16733TIP3    H250077   4.385   9.061   5.578
16734TIP3   OH250078   3.134   8.775   5.774
16734TIP3    H150079   3.158   8.747   5.865
16734TIP3    H250080   3.204   8.730   5.723
16735TIP3   OH250081   3.325   8.645   5.629
16735TIP3    H150082   3.341   8.561   5.678
16735TIP3    H250083   3.415   8.682   5.624
16736TIP3   OH250084   3.591   8.741   5.630
16736TIP3    H150085   3.622   8.649   5.618
16736TIP3    H250086   3.631   8.762   5.716
16737TIP3   OH250087   4.169   7.397   5.722
16737TIP3    H150088   4.123   7.331   5.776
16737TIP3    H250089   4.236   7.344   5.676
16738TIP3   OH250090   4.695   7.278   5.628
16738TIP3    H150091   4.729   7.330   5.552
16738TIP3    H250092   4.598   7.292   5.620
16739TIP3   OH250093   4.788   7.379   5.390
16739TIP3    H150094   4.860   7.328   5.349
16739TIP3    H250095   4.820   7.471   5.375
16740TIP3   OH250096   3.418   7.106   5.736
16740TIP3    H150097   3.326   7.072   5.738
16740TIP3    H250098   3.468   7.021   5.735
16741TIP3   OH250099   3.200   6.974   5.383
16741TIP3    H150100   3.231   7.035   5.313
16741TIP3    H250101   3.171   7.037   5.452
16742TIP3   OH250102   3.859   7.139   5.616
16742TIP3    H150103   3.921   7.192   5.564
16742TIP3    H250104   3.873   7.173   5.705
16743TIP3   OH250105   4.416   7.284   5.601
16743TIP3    H150106   4.401   7.249   5.512
16743TIP3    H250107   4.398   7.204   5.657
16744TIP3   OH250108   4.437   7.205   5.163
16744TIP3    H150109   4.350   7.248   5.174
16744TIP3    H250110   4.422   7.121   5.211
16745TIP3   OH250111   2.922   8.543   5.166
16745TIP3    H150112   2.837   8.510   5.131
16745TIP3    H250113   2.908   8.638   5.154
16746TIP3   OH250114   3.318   7.137   5.147
16746TIP3    H150115   3.368   7.073   5.093
16746TIP3    H250116   3.391   7.190   5.186
16747TIP3   OH250117   3.834   7.308   5.247
16747TIP3    H150118   3.891   7.261   5.309
16747TIP3    H250119   3.855   7.401   5.273
16748TIP3   OH250120   3.692   8.737   4.747
16748TIP3    H150121   3.780   8.759   4.710
16748TIP3    H250122   3.670   8.661   4.688
16749TIP3   OH250123   4.411   8.852   4.839
16749TIP3    H150124   4.402   8.755   4.825
16749TIP3    H250125   4.366   8.886   4.759
16750TIP3   OH250126   3.626   7.394   6.631
16750TIP3    H150127   3.594   7.314   6.676
16750TIP3    H250128   3.722   7.384   6.647
16751TIP3   OH250129   3.879   7.390   6.756
16751TIP3    H150130   3.939   7.344   6.694
16751TIP3    H250131   3.852   7.313   6.811
16752TIP3   OH250132   2.996   8.573   4.806
16752TIP3    H150133   2.994   8.600   4.898
16752TIP3    H250134   3.085   8.532   4.797
16753TIP3   OH250135   4.697   7.444   6.536
16753TIP3    H150136   4.716   7.413   6.627
16753TIP3    H250137   4.786   7.438   6.495
16754TIP3   OH250138   4.633   8.996   6.032
16754TIP3    H150139   4.557   8.966   5.976
16754TIP3    H250140   4.620   9.093   6.025
16755TIP3   OH250141   5.904   8.371   4.793
16755TIP3    H150142   5.876   8.463   4.777
16755TIP3    H250143   5.826   8.321   4.762
16756TIP3   OH250144   5.901   8.368   5.172
16756TIP3    H150145   5.932   8.339   5.260
16756TIP3    H250146   5.859   8.287   5.138
16757TIP3   OH250147   5.204   8.268   5.541
16757TIP3    H150148   5.237   8.200   5.603
16757TIP3    H250149   5.283   8.321   5.527
16758TIP3   OH250150   6.143   8.674   4.853
16758TIP3    H150151   6.133   8.603   4.918
16758TIP3    H250152   6.173   8.748   4.909
16759TIP3   OH250153   5.174   8.674   5.269
16759TIP3    H150154   5.164   8.576   5.271
16759TIP3    H250155   5.270   8.681   5.260
16760TIP3   OH250156   4.881   7.881   5.053
16760TIP3    H150157   4.829   7.963   5.065
16760TIP3    H250158   4.812   7.822   5.018
16761TIP3   OH250159   4.942   8.167   5.221
16761TIP3    H150160   4.989   8.089   5.258
16761TIP3    H250161   4.996   8.188   5.144
16762TIP3   OH250162   5.793   9.130   4.869
16762TIP3    H150163   5.843   9.059   4.824
16762TIP3    H250164   5.791   9.098   4.960
16763TIP3   OH250165   5.702   8.593   5.223
16763TIP3    H150166   5.739   8.517   5.176
16763TIP3    H250167   5.786   8.638   5.247
16764TIP3   OH250168   6.712   7.914   5.219
16764TIP3    H150169   6.741   7.997   5.263
16764TIP3    H250170   6.741   7.930   5.128
16765TIP3   OH250171   6.113   8.097   5.258
16765TIP3    H150172   6.157   8.012   5.277
16765TIP3    H250173   6.083   8.083   5.166
16766TIP3   OH250174   5.450   7.756   5.222
16766TIP3    H150175   5.429   7.828   5.159
16766TIP3    H250176   5.402   7.682   5.178
16767TIP3   OH250177   6.143   7.847   4.845
16767TIP3    H150178   6.216   7.830   4.910
16767TIP3    H250179   6.195   7.882   4.770
16768TIP3   OH250180   5.085   7.959   5.328
16768TIP3    H150181   5.168   7.936   5.375
16768TIP3    H250182   5.095   7.902   5.249
16769TIP3   OH250183   5.526   8.156   5.120
16769TIP3    H150184   5.619   8.129   5.133
16769TIP3    H250185   5.486   8.072   5.088
16770TIP3   OH250186   6.785   8.118   5.393
16770TIP3    H150187   6.704   8.169   5.374
16770TIP3    H250188   6.807   8.152   5.481
16771TIP3   OH250189   5.449   7.740   5.656
16771TIP3    H150190   5.388   7.775   5.588
16771TIP3    H250191   5.396   7.757   5.737
16772TIP3   OH250192   5.812   8.603   4.652
16772TIP3    H150193   5.754   8.565   4.585
16772TIP3    H250194   5.758   8.680   4.681
16773TIP3   OH250195   5.555   8.513   5.454
16773TIP3    H150196   5.490   8.578   5.491
16773TIP3    H250197   5.597   8.566   5.383
16774TIP3   OH250198   6.355   7.849   5.014
16774TIP3    H150199   6.356   7.794   5.094
16774TIP3    H250200   6.414   7.922   5.039
16775TIP3   OH250201   5.319   7.854   5.441
16775TIP3    H150202   5.382   7.926   5.462
16775TIP3    H250203   5.366   7.812   5.365
16776TIP3   OH250204   5.381   8.706   5.549
16776TIP3    H150205   5.356   8.791   5.507
16776TIP3    H250206   5.302   8.692   5.605
16777TIP3   OH250207   4.780   8.397   4.785
16777TIP3    H150208   4.736   8.422   4.702
16777TIP3    H250209   4.807   8.484   4.821
16778TIP3   OH250210   6.215   8.910   5.021
16778TIP3    H150211   6.125   8.904   5.062
16778TIP3    H250212   6.210   8.999   4.980
16779TIP3   OH250213   6.507   7.814   5.387
16779TIP3    H150214   6.420   7.846   5.357
16779TIP3    H250215   6.566   7.846   5.316
16780TIP3   OH250216   5.808   7.460   5.370
16780TIP3    H150217   5.794   7.364   5.385
16780TIP3    H250218   5.729   7.496   5.415
16781TIP3   OH250219   5.925   8.957   4.698
16781TIP3    H150220   5.979   8.879   4.681
16781TIP3    H250221   5.981   9.027   4.658
16782TIP3   OH250222   6.069   8.715   4.590
16782TIP3    H150223   5.981   8.672   4.599
16782TIP3    H250224   6.104   8.703   4.682
16783TIP3   OH250225   6.442   8.828   5.369
16783TIP3    H150226   6.434   8.751   5.309
16783TIP3    H250227   6.427   8.903   5.308
16784TIP3   OH250228   5.735   8.222   4.623
16784TIP3    H150229   5.652   8.270   4.601
16784TIP3    H250230   5.778   8.215   4.537
16785TIP3   OH250231   5.693   8.004   4.344
16785TIP3    H150232   5.763   8.052   4.391
16785TIP3    H250233   5.748   7.939   4.296
16786TIP3   OH250234   6.637   8.460   5.211
16786TIP3    H150235   6.556   8.516   5.217
16786TIP3    H250236   6.668   8.483   5.121
16787TIP3   OH250237   6.081   8.302   4.599
16787TIP3    H150238   6.025   8.327   4.676
16787TIP3    H250239   6.163   8.274   4.645
16788TIP3   OH250240   6.317   8.343   5.507
16788TIP3    H150241   6.316   8.427   5.556
16788TIP3    H250242   6.231   8.349   5.461
16789TIP3   OH250243   5.314   8.302   5.012
16789TIP3    H150244   5.271   8.244   4.945
16789TIP3    H250245   5.391   8.248   5.040
16790TIP3   OH250246   5.443   8.712   5.163
16790TIP3    H150247   5.422   8.667   5.080
16790TIP3    H250248   5.534   8.679   5.181
16791TIP3   OH250249   5.452   8.271   5.369
16791TIP3    H150250   5.483   8.252   5.278
16791TIP3    H250251   5.494   8.358   5.388
16792TIP3   OH250252   5.974   8.908   5.143
16792TIP3    H150253   5.963   8.989   5.196
16792TIP3    H250254   5.962   8.837   5.208
16793TIP3   OH250255   5.587   8.827   5.694
16793TIP3    H150256   5.528   8.891   5.738
16793TIP3    H250257   5.522   8.775   5.643
16794TIP3   OH250258   5.924   8.160   4.422
16794TIP3    H150259   5.983   8.218   4.476
16794TIP3    H250260   5.949   8.186   4.330
16795TIP3   OH250261   5.342   8.385   5.794
16795TIP3    H150262   5.345   8.472   5.839
16795TIP3    H250263   5.246   8.367   5.795
16796TIP3   OH250264   5.665   8.840   4.699
16796TIP3    H150265   5.738   8.899   4.722
16796TIP3    H250266   5.601   8.901   4.659
16797TIP3   OH250267   5.383   8.999   5.777
16797TIP3    H150268   5.348   8.995   5.685
16797TIP3    H250269   5.304   8.975   5.830
16798TIP3   OH250270   6.438   7.404   4.470
16798TIP3    H150271   6.357   7.423   4.521
16798TIP3    H250272   6.451   7.487   4.420
16799TIP3   OH250273   5.180   8.144   4.819
16799TIP3    H150274   5.115   8.190   4.761
16799TIP3    H250275   5.137   8.059   4.831
16800TIP3   OH250276   6.233   8.773   4.020
16800TIP3    H150277   6.244   8.869   4.003
16800TIP3    H250278   6.326   8.742   4.008
16801TIP3   OH250279   4.961   8.529   5.727
16801TIP3    H150280   4.896   8.509   5.657
16801TIP3    H250281   4.996   8.440   5.749
16802TIP3   OH250282   4.815   8.719   5.363
16802TIP3    H150283   4.910   8.717   5.349
16802TIP3    H250284   4.803   8.803   5.410
16803TIP3   OH250285   6.681   9.170   5.412
16803TIP3    H150286   6.679   9.073   5.427
16803TIP3    H250287   6.598   9.196   5.458
16804TIP3   OH250288   5.786   8.959   5.547
16804TIP3    H150289   5.788   9.052   5.580
16804TIP3    H250290   5.716   8.921   5.604
16805TIP3   OH250291   5.547   9.089   4.499
16805TIP3    H150292   5.499   9.069   4.416
16805TIP3    H250293   5.514   9.177   4.522
16806TIP3   OH250294   4.985   8.937   4.881
16806TIP3    H150295   5.031   8.927   4.967
16806TIP3    H250296   4.921   8.863   4.887
16807TIP3   OH250297   5.748   8.989   4.141
16807TIP3    H150298   5.807   8.920   4.104
16807TIP3    H250299   5.781   8.997   4.233
16808TIP3   OH250300   5.798   9.033   4.412
16808TIP3    H150301   5.708   9.046   4.450
16808TIP3    H250302   5.846   8.998   4.489
16809TIP3   OH250303   6.569   8.302   5.690
16809TIP3    H150304   6.493   8.317   5.632
16809TIP3    H250305   6.585   8.206   5.676
16810TIP3   OH250306   5.167   8.710   5.716
16810TIP3    H150307   5.216   8.693   5.798
16810TIP3    H250308   5.093   8.646   5.722
16811TIP3   OH250309   5.566   7.535   5.495
16811TIP3    H150310   5.477   7.503   5.471
16811TIP3    H250311   5.541   7.618   5.540
16812TIP3   OH250312   6.098   7.651   5.692
16812TIP3    H150313   6.166   7.622   5.756
16812TIP3    H250314   6.014   7.629   5.737
16813TIP3   OH250315   6.339   8.077   5.606
16813TIP3    H150316   6.293   8.075   5.692
16813TIP3    H250317   6.318   8.166   5.572
16814TIP3   OH250318   5.999   8.213   4.167
16814TIP3    H150319   5.964   8.182   4.082
16814TIP3    H250320   6.078   8.262   4.137
16815TIP3   OH250321   5.712   7.585   4.468
16815TIP3    H150322   5.680   7.583   4.560
16815TIP3    H250323   5.674   7.501   4.435
16816TIP3   OH250324   5.499   8.049   5.517
16816TIP3    H150325   5.445   8.069   5.596
16816TIP3    H250326   5.483   8.130   5.462
16817TIP3   OH250327   5.381   7.936   5.030
16817TIP3    H150328   5.288   7.909   5.047
16817TIP3    H250329   5.395   7.896   4.942
16818TIP3   OH250330   5.873   8.023   4.757
16818TIP3    H150331   5.818   8.094   4.715
16818TIP3    H250332   5.926   7.992   4.682
16819TIP3   OH250333   6.049   8.306   5.842
16819TIP3    H150334   6.027   8.233   5.904
16819TIP3    H250335   6.143   8.319   5.861
16820TIP3   OH250336   6.030   8.051   4.998
16820TIP3    H150337   5.971   8.080   4.925
16820TIP3    H250338   6.063   7.969   4.957
16821TIP3   OH250339   5.318   8.079   5.725
16821TIP3    H150340   5.337   8.142   5.795
16821TIP3    H250341   5.303   7.997   5.774
16822TIP3   OH250342   5.367   7.556   4.435
16822TIP3    H150343   5.360   7.552   4.532
16822TIP3    H250344   5.287   7.606   4.412
16823TIP3   OH250345   4.909   7.604   5.305
16823TIP3    H150346   4.987   7.632   5.357
16823TIP3    H250347   4.948   7.567   5.224
16824TIP3   OH250348   4.887   7.583   4.825
16824TIP3    H150349   4.932   7.623   4.747
16824TIP3    H250350   4.825   7.655   4.847
16825TIP3   OH250351   6.038   8.298   5.421
16825TIP3    H150352   6.071   8.226   5.363
16825TIP3    H250353   6.010   8.246   5.499
16826TIP3   OH250354   5.707   7.760   5.092
16826TIP3    H150355   5.624   7.756   5.144
16826TIP3    H250356   5.774   7.759   5.163
16827TIP3   OH250357   5.143   7.813   5.101
16827TIP3    H150358   5.048   7.820   5.074
16827TIP3    H250359   5.166   7.721   5.077
16828TIP3   OH250360   5.415   7.812   4.788
16828TIP3    H150361   5.509   7.826   4.766
16828TIP3    H250362   5.368   7.834   4.704
16829TIP3   OH250363   6.200   7.834   5.296
16829TIP3    H150364   6.160   7.845   5.385
16829TIP3    H250365   6.137   7.772   5.255
16830TIP3   OH250366   5.251   7.843   4.568
16830TIP3    H150367   5.178   7.800   4.521
16830TIP3    H250368   5.303   7.878   4.492
16831TIP3   OH250369   6.368   9.521   5.511
16831TIP3    H150370   6.367   9.548   5.418
16831TIP3    H250371   6.445   9.571   5.545
16832TIP3   OH250372   5.325   8.632   5.937
16832TIP3    H150373   5.407   8.663   5.981
16832TIP3    H250374   5.263   8.635   6.012
16833TIP3   OH250375   5.793   8.086   5.189
16833TIP3    H150376   5.864   8.046   5.136
16833TIP3    H250377   5.806   8.044   5.276
16834TIP3   OH250378   5.319   7.574   5.066
16834TIP3    H150379   5.284   7.494   5.110
16834TIP3    H250380   5.369   7.537   4.992
16835TIP3   OH250381   5.769   7.978   5.482
16835TIP3    H150382   5.680   8.016   5.493
16835TIP3    H250383   5.826   8.040   5.531
16836TIP3   OH250384   5.506   8.374   4.575
16836TIP3    H150385   5.434   8.309   4.563
16836TIP3    H250386   5.487   8.407   4.666
16837TIP3   OH250387   6.407   8.610   5.204
16837TIP3    H150388   6.432   8.658   5.122
16837TIP3    H250389   6.321   8.570   5.179
16838TIP3   OH250390   5.964   7.687   4.434
16838TIP3    H150391   5.867   7.671   4.442
16838TIP3    H250392   5.974   7.781   4.458
16839TIP3   OH250393   5.901   8.689   5.572
16839TIP3    H150394   5.930   8.673   5.662
16839TIP3    H250395   5.868   8.781   5.576
16840TIP3   OH250396   6.034   7.932   4.539
16840TIP3    H150397   6.131   7.936   4.554
16840TIP3    H250398   6.017   8.010   4.483
16841TIP3   OH250399   5.199   8.396   5.251
16841TIP3    H150400   5.235   8.368   5.165
16841TIP3    H250401   5.234   8.328   5.310
16842TIP3   OH250402   5.652   8.524   4.396
16842TIP3    H150403   5.605   8.610   4.402
16842TIP3    H250404   5.595   8.468   4.454
16843TIP3   OH250405   5.074   8.316   5.864
16843TIP3    H150406   5.093   8.297   5.959
16843TIP3    H250407   5.006   8.249   5.843
16844TIP3   OH250408   5.802   8.421   5.897
16844TIP3    H150409   5.744   8.373   5.836
16844TIP3    H250410   5.890   8.397   5.861
16845TIP3   OH250411   6.065   8.946   5.468
16845TIP3    H150412   5.969   8.951   5.478
16845TIP3    H250413   6.095   9.001   5.544
16846TIP3   OH250414   6.472   8.020   4.381
16846TIP3    H150415   6.411   7.970   4.320
16846TIP3    H250416   6.493   8.095   4.323
16847TIP3   OH250417   6.692   8.877   5.458
16847TIP3    H150418   6.595   8.874   5.449
16847TIP3    H250419   6.719   8.849   5.368
16848TIP3   OH250420   6.201   8.822   4.294
16848TIP3    H150421   6.123   8.785   4.337
16848TIP3    H250422   6.191   8.796   4.201
16849TIP3   OH250423   6.171   8.471   5.123
16849TIP3    H150424   6.078   8.445   5.136
16849TIP3    H250425   6.206   8.392   5.079
16850TIP3   OH250426   5.297   8.698   4.874
16850TIP3    H150427   5.298   8.780   4.821
16850TIP3    H250428   5.202   8.683   4.882
16851TIP3   OH250429   4.861   8.004   4.576
16851TIP3    H150430   4.907   8.088   4.596
16851TIP3    H250431   4.783   8.010   4.637
16852TIP3   OH250432   5.442   8.468   4.822
16852TIP3    H150433   5.404   8.556   4.838
16852TIP3    H250434   5.403   8.416   4.895
16853TIP3   OH250435   5.567   9.043   5.348
16853TIP3    H150436   5.609   9.112   5.293
16853TIP3    H250437   5.644   9.008   5.396
16854TIP3   OH250438   5.220   8.936   4.729
16854TIP3    H150439   5.133   8.945   4.773
16854TIP3    H250440   5.251   9.029   4.731
16855TIP3   OH250441   5.958   8.677   5.302
16855TIP3    H150442   5.949   8.674   5.400
16855TIP3    H250443   6.039   8.626   5.289
16856TIP3   OH250444   5.926   8.571   4.184
16856TIP3    H150445   5.977   8.534   4.259
16856TIP3    H250446   5.836   8.545   4.209
16857TIP3   OH250447   6.205   9.211   5.352
16857TIP3    H150448   6.125   9.156   5.343
16857TIP3    H250449   6.191   9.277   5.282
16858TIP3   OH250450   6.268   9.046   4.007
16858TIP3    H150451   6.310   9.115   3.952
16858TIP3    H250452   6.189   9.096   4.035
16859TIP3   OH250453   5.290   7.823   5.874
16859TIP3    H150454   5.193   7.827   5.885
16859TIP3    H250455   5.314   7.757   5.941
16860TIP3   OH250456   6.097   8.488   4.396
16860TIP3    H150457   6.070   8.421   4.462
16860TIP3    H250458   6.129   8.558   4.455
16861TIP3   OH250459   5.006   8.908   5.505
16861TIP3    H150460   5.057   8.831   5.533
16861TIP3    H250461   5.039   8.976   5.565
16862TIP3   OH250462   5.300   8.550   4.183
16862TIP3    H150463   5.310   8.457   4.154
16862TIP3    H250464   5.279   8.537   4.278
16863TIP3   OH250465   5.245   8.555   4.455
16863TIP3    H150466   5.311   8.529   4.520
16863TIP3    H250467   5.247   8.653   4.462
16864TIP3   OH250468   4.980   8.250   4.659
16864TIP3    H150469   4.914   8.294   4.717
16864TIP3    H250470   4.993   8.320   4.592
16865TIP3   OH250471   6.121   7.890   5.555
16865TIP3    H150472   6.206   7.925   5.587
16865TIP3    H250473   6.110   7.808   5.607
16866TIP3   OH250474   6.002   7.640   4.715
16866TIP3    H150475   5.991   7.663   4.621
16866TIP3    H250476   6.044   7.722   4.751
16867TIP3   OH250477   5.509   8.754   4.407
16867TIP3    H150478   5.421   8.782   4.441
16867TIP3    H250479   5.523   8.824   4.341
16868TIP3   OH250480   5.698   7.816   4.818
16868TIP3    H150481   5.764   7.887   4.801
16868TIP3    H250482   5.701   7.809   4.916
16869TIP3   OH250483   5.963   8.135   5.628
16869TIP3    H150484   5.987   8.190   5.706
16869TIP3    H250485   6.022   8.059   5.637
16870TIP3   OH250486   5.843   7.547   4.924
16870TIP3    H150487   5.835   7.624   4.983
16870TIP3    H250488   5.901   7.583   4.853
16871TIP3   OH250489   5.250   8.828   4.472
16871TIP3    H150490   5.220   8.896   4.408
16871TIP3    H250491   5.233   8.872   4.558
16872TIP3   OH250492   5.352   7.540   4.712
16872TIP3    H150493   5.349   7.631   4.747
16872TIP3    H250494   5.448   7.522   4.720
16873TIP3   OH250495   6.606   8.035   5.610
16873TIP3    H150496   6.508   8.032   5.612
16873TIP3    H250497   6.623   8.003   5.520
16874TIP3   OH250498   6.258   8.231   4.991
16874TIP3    H150499   6.183   8.170   5.005
16874TIP3    H250500   6.330   8.186   5.040
16875TIP3   OH250501   4.968   8.461   4.468
16875TIP3    H150502   5.028   8.537   4.474
16875TIP3    H250503   5.015   8.409   4.399
16876TIP3   OH250504   4.915   7.735   4.597
16876TIP3    H150505   4.912   7.832   4.593
16876TIP3    H250506   4.830   7.710   4.561
16877TIP3   OH250507   6.225   9.182   4.945
16877TIP3    H150508   6.183   9.230   4.871
16877TIP3    H250509   6.319   9.203   4.926
16878TIP3   OH250510   5.302   7.455   5.474
16878TIP3    H150511   5.270   7.422   5.387
16878TIP3    H250512   5.291   7.376   5.531
16879TIP3   OH250513   4.842   8.673   4.857
16879TIP3    H150514   4.766   8.705   4.907
16879TIP3    H250515   4.823   8.712   4.769
16880TIP3   OH250516   4.996   9.211   5.927
16880TIP3    H150517   5.082   9.211   5.973
16880TIP3    H250518   4.976   9.116   5.922
16881TIP3   OH250519   5.478   9.182   5.969
16881TIP3    H150520   5.573   9.166   5.979
16881TIP3    H250521   5.457   9.122   5.895
16882TIP3   OH250522   5.461   8.756   4.100
16882TIP3    H150523   5.404   8.684   4.137
16882TIP3    H250524   5.534   8.702   4.064
16883TIP3   OH250525   6.118   9.084   5.701
16883TIP3    H150526   6.111   9.015   5.771
16883TIP3    H250527   6.195   9.136   5.731
16884TIP3   OH250528   5.898   8.799   4.010
16884TIP3    H150529   5.942   8.730   4.061
16884TIP3    H250530   5.949   8.801   3.926
16885TIP3   OH250531   5.120   8.614   6.131
16885TIP3    H150532   5.147   8.520   6.121
16885TIP3    H250533   5.041   8.617   6.072
16886TIP3   OH250534   5.104   8.274   4.316
16886TIP3    H150535   5.157   8.238   4.389
16886TIP3    H250536   5.172   8.277   4.245
16887TIP3   OH250537   5.734   8.702   5.899
16887TIP3    H150538   5.695   8.721   5.812
16887TIP3    H250539   5.767   8.610   5.889
16888TIP3   OH250540   5.616   8.470   4.125
16888TIP3    H150541   5.613   8.483   4.222
16888TIP3    H250542   5.613   8.372   4.120
16889TIP3   OH250543   6.227   8.711   5.503
16889TIP3    H150544   6.302   8.755   5.460
16889TIP3    H250545   6.158   8.779   5.491
16890TIP3   OH250546   5.242   8.361   6.108
16890TIP3    H150547   5.304   8.289   6.088
16890TIP3    H250548   5.271   8.388   6.197
16891TIP3   OH250549   5.317   8.174   4.543
16891TIP3    H150550   5.286   8.131   4.624
16891TIP3    H250551   5.349   8.097   4.491
16892TIP3   OH250552   5.584   8.241   5.775
16892TIP3    H150553   5.504   8.298   5.775
16892TIP3    H250554   5.629   8.271   5.693
16893TIP3   OH250555   5.412   7.967   4.382
16893TIP3    H150556   5.384   7.967   4.288
16893TIP3    H250557   5.509   7.974   4.373
16894TIP3   OH250558   6.095   8.639   5.903
16894TIP3    H150559   6.177   8.627   5.854
16894TIP3    H250560   6.101   8.571   5.971
16895TIP3   OH250561   6.240   8.301   4.046
16895TIP3    H150562   6.220   8.251   3.965
16895TIP3    H250563   6.205   8.389   4.018
16896TIP3   OH250564   5.709   8.022   5.898
16896TIP3    H150565   5.706   7.943   5.840
16896TIP3    H250566   5.667   8.090   5.840
16897TIP3   OH250567   5.707   7.814   5.704
16897TIP3    H150568   5.734   7.854   5.619
16897TIP3    H250569   5.613   7.790   5.685
16898TIP3   OH250570   5.738   8.352   5.578
16898TIP3    H150571   5.818   8.356   5.525
16898TIP3    H250572   5.681   8.418   5.534
16899TIP3   OH250573   6.318   8.319   5.960
16899TIP3    H150574   6.368   8.236   5.961
16899TIP3    H250575   6.385   8.381   5.925
16900TIP3   OH250576   6.358   8.568   5.691
16900TIP3    H150577   6.301   8.622   5.631
16900TIP3    H250578   6.446   8.588   5.652
16901TIP3   OH250579   5.621   8.132   6.137
16901TIP3    H150580   5.541   8.079   6.159
16901TIP3    H250581   5.634   8.101   6.044
16902TIP3   OH250582   5.839   7.579   5.770
16902TIP3    H150583   5.790   7.660   5.746
16902TIP3    H250584   5.770   7.510   5.757
16903TIP3   OH250585   5.968   8.092   5.989
16903TIP3    H150586   5.990   8.045   6.070
16903TIP3    H250587   5.881   8.054   5.962
16904TIP3   OH250588   6.208   8.034   5.837
16904TIP3    H150589   6.133   8.033   5.898
16904TIP3    H250590   6.282   8.002   5.894
16905TIP3   OH250591   6.427   7.969   5.994
16905TIP3    H150592   6.445   7.875   6.012
16905TIP3    H250593   6.428   8.010   6.084
16906TIP3   OH250594   5.430   7.928   6.174
16906TIP3    H150595   5.428   7.838   6.137
16906TIP3    H250596   5.459   7.908   6.266
16907TIP3   OH250597   5.942   7.589   6.024
16907TIP3    H150598   6.006   7.515   6.017
16907TIP3    H250599   5.897   7.582   5.937
16908TIP3   OH250600   5.979   7.811   6.174
16908TIP3    H150601   5.985   7.730   6.118
16908TIP3    H250602   5.884   7.826   6.171
16909TIP3   OH250603   5.219   9.028   4.284
16909TIP3    H150604   5.314   9.030   4.264
16909TIP3    H250605   5.185   9.077   4.207
16910TIP3   OH250606   4.700   8.412   4.503
16910TIP3    H150607   4.795   8.434   4.490
16910TIP3    H250608   4.695   8.323   4.461
16911TIP3   OH250609   4.614   9.024   4.913
16911TIP3    H150610   4.545   8.963   4.879
16911TIP3    H250611   4.657   8.968   4.980
16912TIP3   OH250612   4.751   8.879   5.100
16912TIP3    H150613   4.737   8.804   5.159
16912TIP3    H250614   4.800   8.940   5.159
16913TIP3   OH250615   6.475   9.278   4.901
16913TIP3    H150616   6.503   9.313   4.987
16913TIP3    H250617   6.536   9.323   4.840
16914TIP3   OH250618   6.506   9.298   5.183
16914TIP3    H150619   6.467   9.208   5.179
16914TIP3    H250620   6.583   9.280   5.239
16915TIP3   OH250621   6.553   8.974   5.755
16915TIP3    H150622   6.480   8.982   5.819
16915TIP3    H250623   6.594   9.062   5.759
16916TIP3   OH250624   6.482   8.400   4.549
16916TIP3    H150625   6.425   8.343   4.605
16916TIP3    H250626   6.559   8.409   4.611
16917TIP3   OH250627   6.545   8.742   5.009
16917TIP3    H150628   6.605   8.682   4.960
16917TIP3    H250629   6.543   8.821   4.950
16918TIP3   OH250630   6.384   9.044   5.208
16918TIP3    H150631   6.314   9.089   5.260
16918TIP3    H250632   6.332   8.997   5.140
16919TIP3   OH250633   6.433   8.297   4.240
16919TIP3    H150634   6.373   8.286   4.162
16919TIP3    H250635   6.374   8.265   4.311
16920TIP3   OH250636   6.303   7.942   4.181
16920TIP3    H150637   6.266   7.970   4.097
16920TIP3    H250638   6.280   7.846   4.179
16921TIP3   OH250639   6.318   8.214   4.719
16921TIP3    H150640   6.325   8.117   4.716
16921TIP3    H250641   6.305   8.229   4.815
16922TIP3   OH250642   4.939   8.282   5.474
16922TIP3    H150643   4.937   8.254   5.380
16922TIP3    H250644   5.036   8.286   5.489
16923TIP3   OH250645   6.599   8.634   5.582
16923TIP3    H150646   6.673   8.570   5.575
16923TIP3    H250647   6.628   8.706   5.524
16924TIP3   OH250648   6.784   8.442   5.607
16924TIP3    H150649   6.711   8.390   5.646
16924TIP3    H250650   6.859   8.379   5.618
16925TIP3   OH250651   6.249   7.676   4.176
16925TIP3    H150652   6.328   7.641   4.221
16925TIP3    H250653   6.180   7.610   4.196
16926TIP3   OH250654   6.308   7.928   4.621
16926TIP3    H150655   6.346   7.838   4.640
16926TIP3    H250656   6.369   7.956   4.551
16927TIP3   OH250657   6.470   8.106   5.116
16927TIP3    H150658   6.556   8.131   5.076
16927TIP3    H250659   6.484   8.140   5.207
16928TIP3   OH250660   6.537   8.245   5.352
16928TIP3    H150661   6.458   8.280   5.398
16928TIP3    H250662   6.570   8.324   5.305
16929TIP3   OH250663   5.160   7.979   6.157
16929TIP3    H150664   5.257   7.965   6.151
16929TIP3    H250665   5.131   7.891   6.189
16930TIP3   OH250666   6.988   7.832   5.907
16930TIP3    H150667   7.047   7.767   5.863
16930TIP3    H250668   6.962   7.890   5.832
16931TIP3   OH250669   6.412   7.678   4.663
16931TIP3    H150670   6.466   7.661   4.743
16931TIP3    H250671   6.356   7.598   4.660
16932TIP3   OH250672   5.117   7.663   5.479
16932TIP3    H150673   5.179   7.588   5.489
16932TIP3    H250674   5.179   7.737   5.474
16933TIP3   OH250675   4.922   7.938   5.555
16933TIP3    H150676   4.968   7.927   5.469
16933TIP3    H250677   4.951   8.027   5.579
16934TIP3   OH250678   6.862   7.977   5.715
16934TIP3    H150679   6.773   8.015   5.732
16934TIP3    H250680   6.837   7.906   5.653
16935TIP3   OH250681   6.497   7.614   4.288
16935TIP3    H150682   6.542   7.540   4.242
16935TIP3    H250683   6.566   7.683   4.288
16936TIP3   OH250684   4.902   7.444   5.056
16936TIP3    H150685   4.808   7.439   5.079
16936TIP3    H250686   4.901   7.500   4.975
16937TIP3   OH250687   6.063   9.140   4.560
16937TIP3    H150688   6.114   9.129   4.477
16937TIP3    H250689   6.113   9.210   4.605
16938TIP3   OH250690   5.124   7.524   5.869
16938TIP3    H150691   5.072   7.514   5.951
16938TIP3    H250692   5.056   7.560   5.809
16939TIP3   OH250693   5.165   8.941   5.945
16939TIP3    H150694   5.072   8.917   5.929
16939TIP3    H250695   5.170   8.936   6.041
16940TIP3   OH250696   5.339   8.977   5.493
16940TIP3    H150697   5.290   9.052   5.454
16940TIP3    H250698   5.425   8.992   5.448
16941TIP3   OH250699   5.786   9.226   5.629
16941TIP3    H150700   5.831   9.227   5.717
16941TIP3    H250701   5.853   9.274   5.575
16942TIP3   OH250702   5.969   9.367   5.485
16942TIP3    H150703   6.044   9.320   5.446
16942TIP3    H250704   6.016   9.427   5.547
16943TIP3   OH250705   6.758   7.739   5.590
16943TIP3    H150706   6.668   7.736   5.554
16943TIP3    H250707   6.788   7.646   5.576
16944TIP3   OH250708   5.020   9.235   5.516
16944TIP3    H150709   4.932   9.268   5.488
16944TIP3    H250710   5.025   9.274   5.605
16945TIP3   OH250711   5.258   9.217   5.374
16945TIP3    H150712   5.172   9.229   5.419
16945TIP3    H250713   5.236   9.251   5.284
16946TIP3   OH250714   5.680   9.248   5.173
16946TIP3    H150715   5.613   9.259   5.102
16946TIP3    H250716   5.664   9.328   5.225
16947TIP3   OH250717   5.949   9.180   5.217
16947TIP3    H150718   5.856   9.202   5.199
16947TIP3    H250719   5.995   9.258   5.181
16948TIP3   OH250720   6.152   9.375   5.137
16948TIP3    H150721   6.142   9.461   5.091
16948TIP3    H250722   6.182   9.317   5.064
16949TIP3   OH250723   4.929   9.031   5.261
16949TIP3    H150724   4.954   9.006   5.352
16949TIP3    H250725   5.001   8.987   5.210
16950TIP3   OH250726   5.121   8.902   5.116
16950TIP3    H150727   5.138   8.818   5.165
16950TIP3    H250728   5.211   8.939   5.111
16951TIP3   OH250729   5.387   8.998   5.118
16951TIP3    H150730   5.419   8.907   5.104
16951TIP3    H250731   5.428   9.018   5.204
16952TIP3   OH250732   5.964   7.654   5.207
16952TIP3    H150733   5.921   7.584   5.259
16952TIP3    H250734   6.035   7.605   5.161
16953TIP3   OH250735   6.490   7.536   5.116
16953TIP3    H150736   6.527   7.585   5.040
16953TIP3    H250737   6.394   7.551   5.106
16954TIP3   OH250738   6.583   7.635   4.878
16954TIP3    H150739   6.654   7.581   4.836
16954TIP3    H250740   6.619   7.725   4.861
16955TIP3   OH250741   5.213   7.363   5.226
16955TIP3    H150742   5.121   7.330   5.225
16955TIP3    H250743   5.263   7.278   5.222
16956TIP3   OH250744   5.000   7.231   4.871
16956TIP3    H150745   5.028   7.289   4.799
16956TIP3    H250746   4.968   7.295   4.938
16957TIP3   OH250747   5.655   7.396   5.103
16957TIP3    H150748   5.715   7.446   5.046
16957TIP3    H250749   5.675   7.433   5.190
16958TIP3   OH250750   6.206   7.541   5.089
16958TIP3    H150751   6.202   7.506   4.999
16958TIP3    H250752   6.191   7.459   5.142
16959TIP3   OH250753   6.234   7.462   4.650
16959TIP3    H150754   6.145   7.502   4.658
16959TIP3    H250755   6.219   7.377   4.697
16960TIP3   OH250756   4.717   8.800   4.654
16960TIP3    H150757   4.632   8.767   4.618
16960TIP3    H250758   4.705   8.895   4.638
16961TIP3   OH250759   5.115   7.393   4.635
16961TIP3    H150760   5.164   7.329   4.580
16961TIP3    H250761   5.188   7.446   4.673
16962TIP3   OH250762   5.629   7.565   4.734
16962TIP3    H150763   5.688   7.518   4.794
16962TIP3    H250764   5.651   7.658   4.760
16963TIP3   OH250765   5.488   8.993   4.234
16963TIP3    H150766   5.576   9.016   4.197
16963TIP3    H250767   5.466   8.918   4.175
16964TIP3   OH250768   6.205   9.105   4.327
16964TIP3    H150769   6.209   9.009   4.309
16964TIP3    H250770   6.163   9.139   4.245
16965TIP3   OH250771   5.421   7.649   6.120
16965TIP3    H150772   5.387   7.574   6.173
16965TIP3    H250773   5.516   7.645   6.145
16966TIP3   OH250774   5.676   7.643   6.236
16966TIP3    H150775   5.754   7.600   6.196
16966TIP3    H250776   5.653   7.576   6.304
16967TIP3   OH250777   4.792   8.828   4.292
16967TIP3    H150778   4.789   8.859   4.383
16967TIP3    H250779   4.882   8.789   4.285
16968TIP3   OH250780   6.494   7.701   6.023
16968TIP3    H150781   6.516   7.669   6.113
16968TIP3    H250782   6.582   7.697   5.979
16969TIP3   OH250783   6.435   9.254   5.515
16969TIP3    H150784   6.356   9.223   5.467
16969TIP3    H250785   6.417   9.350   5.517
16970TIP3   OH250786   7.700   8.624   4.283
16970TIP3    H150787   7.673   8.716   4.264
16970TIP3    H250788   7.623   8.576   4.251
16971TIP3   OH250789   7.698   8.626   4.660
16971TIP3    H150790   7.728   8.594   4.747
16971TIP3    H250791   7.655   8.546   4.624
16972TIP3   OH250792   6.997   8.525   5.031
16972TIP3    H150793   7.030   8.457   5.092
16972TIP3    H250794   7.078   8.574   5.012
16973TIP3   OH250795   7.941   8.924   4.343
16973TIP3    H150796   7.929   8.856   4.410
16973TIP3    H250797   7.970   9.001   4.396
16974TIP3   OH250798   6.968   8.927   4.754
16974TIP3    H150799   6.961   8.830   4.757
16974TIP3    H250800   7.065   8.938   4.748
16975TIP3   OH250801   6.670   8.156   4.548
16975TIP3    H150802   6.605   8.226   4.545
16975TIP3    H250803   6.620   8.078   4.522
16976TIP3   OH250804   6.731   8.419   4.693
16976TIP3    H150805   6.770   8.342   4.740
16976TIP3    H250806   6.807   8.444   4.638
16977TIP3   OH250807   7.590   9.391   4.358
16977TIP3    H150808   7.636   9.319   4.309
16977TIP3    H250809   7.586   9.354   4.447
16978TIP3   OH250810   7.497   8.851   4.710
16978TIP3    H150811   7.534   8.774   4.662
16978TIP3    H250812   7.582   8.895   4.733
16979TIP3   OH250813   8.510   8.172   4.708
16979TIP3    H150814   8.536   8.255   4.753
16979TIP3    H250815   8.528   8.195   4.615
16980TIP3   OH250816   7.912   8.354   4.744
16980TIP3    H150817   7.951   8.268   4.764
16980TIP3    H250818   7.879   8.340   4.653
16981TIP3   OH250819   7.941   8.101   4.334
16981TIP3    H150820   8.016   8.086   4.396
16981TIP3    H250821   7.990   8.139   4.258
16982TIP3   OH250822   6.877   8.212   4.809
16982TIP3    H150823   6.967   8.197   4.845
16982TIP3    H250824   6.882   8.161   4.727
16983TIP3   OH250825   7.326   8.423   4.607
16983TIP3    H150826   7.419   8.396   4.618
16983TIP3    H250827   7.283   8.333   4.610
16984TIP3   OH250828   8.579   8.377   4.880
16984TIP3    H150829   8.498   8.428   4.860
16984TIP3    H250830   8.595   8.405   4.972
16985TIP3   OH250831   7.245   7.995   5.142
16985TIP3    H150832   7.188   8.029   5.070
16985TIP3    H250833   7.190   8.018   5.220
16986TIP3   OH250834   7.589   8.844   4.155
16986TIP3    H150835   7.553   8.824   4.068
16986TIP3    H250836   7.548   8.931   4.175
16987TIP3   OH250837   7.351   8.770   4.940
16987TIP3    H150838   7.287   8.835   4.977
16987TIP3    H250839   7.394   8.822   4.869
16988TIP3   OH250840   8.157   8.101   4.502
16988TIP3    H150841   8.137   8.061   4.588
16988TIP3    H250842   8.208   8.180   4.528
16989TIP3   OH250843   7.116   8.107   4.925
16989TIP3    H150844   7.181   8.177   4.945
16989TIP3    H250845   7.143   8.092   4.830
16990TIP3   OH250846   7.177   8.963   5.034
16990TIP3    H150847   7.152   9.049   4.995
16990TIP3    H250848   7.098   8.949   5.092
16991TIP3   OH250849   8.012   9.166   4.514
16991TIP3    H150850   7.922   9.157   4.553
16991TIP3    H250851   8.002   9.251   4.467
16992TIP3   OH250852   8.302   8.066   4.870
16992TIP3    H150853   8.215   8.104   4.847
16992TIP3    H250854   8.360   8.103   4.800
16993TIP3   OH250855   7.606   7.719   4.859
16993TIP3    H150856   7.589   7.624   4.868
16993TIP3    H250857   7.526   7.756   4.902
16994TIP3   OH250858   7.714   9.217   4.188
16994TIP3    H150859   7.764   9.135   4.165
16994TIP3    H250860   7.773   9.284   4.147
16995TIP3   OH250861   7.854   9.003   4.092
16995TIP3    H150862   7.830   8.923   4.042
16995TIP3    H250863   7.889   8.965   4.175
16996TIP3   OH250864   8.237   9.086   4.854
16996TIP3    H150865   8.229   9.008   4.795
16996TIP3    H250866   8.223   9.160   4.791
16997TIP3   OH250867   7.530   8.477   4.110
16997TIP3    H150868   7.450   8.528   4.086
16997TIP3    H250869   7.578   8.475   4.025
16998TIP3   OH250870   7.489   8.262   3.829
16998TIP3    H150871   7.558   8.311   3.878
16998TIP3    H250872   7.545   8.197   3.782
16999TIP3   OH250873   8.435   8.719   4.698
16999TIP3    H150874   8.352   8.772   4.705
16999TIP3    H250875   8.463   8.743   4.607
17000TIP3   OH250876   7.877   8.558   4.085
17000TIP3    H150877   7.823   8.584   4.163
17000TIP3    H250878   7.961   8.533   4.129
17001TIP3   OH250879   8.112   8.599   4.994
17001TIP3    H150880   8.111   8.684   5.043
17001TIP3    H250881   8.026   8.605   4.948
17002TIP3   OH250882   7.111   8.560   4.501
17002TIP3    H150883   7.067   8.501   4.436
17002TIP3    H250884   7.188   8.507   4.529
17003TIP3   OH250885   7.239   8.967   4.650
17003TIP3    H150886   7.220   8.922   4.566
17003TIP3    H250887   7.330   8.937   4.669
17004TIP3   OH250888   7.241   8.530   4.854
17004TIP3    H150889   7.277   8.507   4.765
17004TIP3    H250890   7.290   8.613   4.874
17005TIP3   OH250891   7.769   9.167   4.631
17005TIP3    H150892   7.758   9.246   4.687
17005TIP3    H250893   7.757   9.093   4.695
17006TIP3   OH250894   7.383   9.086   5.178
17006TIP3    H150895   7.325   9.149   5.225
17006TIP3    H250896   7.317   9.032   5.129
17007TIP3   OH250897   7.720   8.417   3.910
17007TIP3    H150898   7.779   8.476   3.962
17007TIP3    H250899   7.746   8.441   3.818
17008TIP3   OH250900   7.139   8.644   5.280
17008TIP3    H150901   7.142   8.730   5.325
17008TIP3    H250902   7.043   8.626   5.282
17009TIP3   OH250903   7.458   9.101   4.186
17009TIP3    H150904   7.539   9.152   4.205
17009TIP3    H250905   7.399   9.167   4.147
17010TIP3   OH250906   7.179   9.255   5.264
17010TIP3    H150907   7.143   9.252   5.173
17010TIP3    H250908   7.099   9.234   5.318
17011TIP3   OH250909   8.235   7.660   3.959
17011TIP3    H150910   8.153   7.680   4.009
17011TIP3    H250911   8.247   7.743   3.908
17012TIP3   OH250912   6.968   8.405   4.313
17012TIP3    H150913   6.907   8.428   4.241
17012TIP3    H250914   6.954   8.310   4.324
17013TIP3   OH250915   7.969   9.033   3.478
17013TIP3    H150916   7.973   9.127   3.453
17013TIP3    H250917   8.066   9.017   3.490
17014TIP3   OH250918   6.757   8.784   5.212
17014TIP3    H150919   6.696   8.758   5.141
17014TIP3    H250920   6.795   8.699   5.241
17015TIP3   OH250921   6.612   8.974   4.847
17015TIP3    H150922   6.708   8.970   4.836
17015TIP3    H250923   6.603   9.055   4.899
17016TIP3   OH250924   8.467   9.419   4.893
17016TIP3    H150925   8.474   9.324   4.912
17016TIP3    H250926   8.385   9.443   4.941
17017TIP3   OH250927   7.583   9.216   5.034
17017TIP3    H150928   7.582   9.308   5.067
17017TIP3    H250929   7.512   9.176   5.089
17018TIP3   OH250930   7.338   9.342   3.988
17018TIP3    H150931   7.297   9.324   3.901
17018TIP3    H250932   7.308   9.433   4.008
17019TIP3   OH250933   6.779   9.194   4.370
17019TIP3    H150934   6.830   9.185   4.454
17019TIP3    H250935   6.721   9.117   4.376
17020TIP3   OH250936   7.544   9.244   3.628
17020TIP3    H150937   7.600   9.173   3.590
17020TIP3    H250938   7.581   9.251   3.718
17021TIP3   OH250939   7.592   9.293   3.900
17021TIP3    H150940   7.506   9.299   3.945
17021TIP3    H250941   7.646   9.249   3.968
17022TIP3   OH250942   8.374   8.563   5.152
17022TIP3    H150943   8.281   8.578   5.131
17022TIP3    H250944   8.373   8.472   5.184
17023TIP3   OH250945   6.963   8.967   5.203
17023TIP3    H150946   7.013   8.951   5.285
17023TIP3    H250947   6.889   8.903   5.211
17024TIP3   OH250948   7.362   7.790   4.983
17024TIP3    H150949   7.272   7.761   4.959
17024TIP3    H250950   7.340   7.875   5.026
17025TIP3   OH250951   7.895   7.905   5.176
17025TIP3    H150952   7.963   7.883   5.243
17025TIP3    H250953   7.811   7.887   5.223
17026TIP3   OH250954   8.139   8.334   5.097
17026TIP3    H150955   8.096   8.330   5.185
17026TIP3    H250956   8.114   8.422   5.064
17027TIP3   OH250957   7.794   8.464   3.653
17027TIP3    H150958   7.762   8.439   3.564
17027TIP3    H250959   7.870   8.521   3.630
17028TIP3   OH250960   7.509   7.841   3.953
17028TIP3    H150961   7.478   7.841   4.045
17028TIP3    H250962   7.470   7.757   3.923
17029TIP3   OH250963   7.295   8.306   5.005
17029TIP3    H150964   7.241   8.328   5.083
17029TIP3    H250965   7.277   8.383   4.946
17030TIP3   OH250966   7.670   8.281   4.244
17030TIP3    H150967   7.614   8.351   4.204
17030TIP3    H250968   7.722   8.251   4.167
17031TIP3   OH250969   7.838   8.558   5.328
17031TIP3    H150970   7.818   8.485   5.391
17031TIP3    H250971   7.932   8.571   5.343
17032TIP3   OH250972   7.828   8.309   4.484
17032TIP3    H150973   7.768   8.340   4.413
17032TIP3    H250974   7.858   8.225   4.442
17033TIP3   OH250975   7.109   8.338   5.212
17033TIP3    H150976   7.144   8.399   5.279
17033TIP3    H250977   7.103   8.255   5.263
17034TIP3   OH250978   7.163   7.813   3.919
17034TIP3    H150979   7.161   7.808   4.017
17034TIP3    H250980   7.082   7.862   3.901
17035TIP3   OH250981   6.709   7.859   4.792
17035TIP3    H150982   6.782   7.892   4.847
17035TIP3    H250983   6.754   7.832   4.710
17036TIP3   OH250984   6.677   7.832   4.311
17036TIP3    H150985   6.730   7.869   4.237
17036TIP3    H250986   6.628   7.911   4.337
17037TIP3   OH250987   7.835   8.555   4.908
17037TIP3    H150988   7.869   8.483   4.850
17037TIP3    H250989   7.808   8.503   4.986
17038TIP3   OH250990   7.497   8.007   4.576
17038TIP3    H150991   7.406   8.040   4.596
17038TIP3    H250992   7.542   8.027   4.659
17039TIP3   OH250993   7.225   8.037   4.242
17039TIP3    H150994   7.303   8.088   4.266
17039TIP3    H250995   7.167   8.101   4.196
17040TIP3   OH250996   7.995   8.087   4.777
17040TIP3    H150997   7.964   8.102   4.869
17040TIP3    H250998   7.926   8.027   4.745
17041TIP3   OH250999   7.025   8.124   4.049
17041TIP3    H151000   6.967   8.063   4.000
17041TIP3    H251001   7.092   8.143   3.981
17042TIP3   OH251002   8.162   9.775   4.991
17042TIP3    H151003   8.159   9.792   4.894
17042TIP3    H251004   8.222   9.844   5.020
17043TIP3   OH251005   7.123   8.889   5.422
17043TIP3    H151006   7.204   8.919   5.468
17043TIP3    H251007   7.059   8.891   5.496
17044TIP3   OH251008   7.593   8.346   4.677
17044TIP3    H151009   7.661   8.301   4.625
17044TIP3    H251010   7.601   8.301   4.763
17045TIP3   OH251011   7.088   7.788   4.508
17045TIP3    H151012   7.097   7.737   4.590
17045TIP3    H251013   7.172   7.835   4.500
17046TIP3   OH251014   7.566   8.234   4.970
17046TIP3    H151015   7.476   8.272   4.979
17046TIP3    H251016   7.622   8.297   5.018
17047TIP3   OH251017   7.300   8.631   4.058
17047TIP3    H151018   7.227   8.565   4.050
17047TIP3    H251019   7.285   8.664   4.150
17048TIP3   OH251020   8.204   8.866   4.692
17048TIP3    H151021   8.228   8.915   4.610
17048TIP3    H251022   8.118   8.826   4.668
17049TIP3   OH251023   7.760   7.944   3.919
17049TIP3    H151024   7.663   7.929   3.928
17049TIP3    H251025   7.770   8.038   3.944
17050TIP3   OH251026   7.701   8.948   5.058
17050TIP3    H151027   7.723   8.925   5.149
17050TIP3    H251028   7.663   9.036   5.066
17051TIP3   OH251029   7.831   8.189   4.024
17051TIP3    H151030   7.927   8.196   4.040
17051TIP3    H251031   7.811   8.269   3.971
17052TIP3   OH251032   6.988   8.645   4.736
17052TIP3    H151033   7.031   8.623   4.651
17052TIP3    H251034   7.037   8.587   4.797
17053TIP3   OH251035   7.447   8.779   3.879
17053TIP3    H151036   7.400   8.866   3.887
17053TIP3    H251037   7.394   8.724   3.940
17054TIP3   OH251038   6.870   8.576   5.352
17054TIP3    H151039   6.898   8.562   5.444
17054TIP3    H251040   6.806   8.505   5.338
17055TIP3   OH251041   7.597   8.685   5.372
17055TIP3    H151042   7.540   8.628   5.316
17055TIP3    H251043   7.686   8.654   5.344
17056TIP3   OH251044   7.862   9.208   4.951
17056TIP3    H151045   7.766   9.206   4.963
17056TIP3    H251046   7.889   9.260   5.030
17057TIP3   OH251047   8.274   8.278   3.862
17057TIP3    H151048   8.211   8.233   3.801
17057TIP3    H251049   8.270   8.367   3.821
17058TIP3   OH251050   8.486   9.133   4.945
17058TIP3    H151051   8.388   9.129   4.934
17058TIP3    H251052   8.514   9.106   4.855
17059TIP3   OH251053   7.959   9.098   3.763
17059TIP3    H151054   7.958   9.025   3.826
17059TIP3    H251055   7.996   9.057   3.683
17060TIP3   OH251056   7.967   8.728   4.612
17060TIP3    H151057   7.874   8.702   4.624
17060TIP3    H251058   8.003   8.649   4.566
17061TIP3   OH251059   7.093   8.954   4.362
17061TIP3    H151060   7.101   9.035   4.309
17061TIP3    H251061   6.997   8.945   4.369
17062TIP3   OH251062   6.656   8.260   4.060
17062TIP3    H151063   6.709   8.340   4.076
17062TIP3    H251064   6.582   8.274   4.121
17063TIP3   OH251065   7.235   8.722   4.306
17063TIP3    H151066   7.200   8.811   4.325
17063TIP3    H251067   7.201   8.671   4.382
17064TIP3   OH251068   7.362   9.299   4.832
17064TIP3    H151069   7.403   9.372   4.780
17064TIP3    H251070   7.440   9.266   4.881
17065TIP3   OH251071   7.015   9.194   4.214
17065TIP3    H151072   6.929   9.204   4.260
17065TIP3    H251073   7.047   9.287   4.217
17066TIP3   OH251074   7.754   8.934   4.789
17066TIP3    H151075   7.746   8.931   4.887
17066TIP3    H251076   7.834   8.880   4.774
17067TIP3   OH251077   7.718   8.813   3.676
17067TIP3    H151078   7.776   8.799   3.754
17067TIP3    H251079   7.631   8.798   3.715
17068TIP3   OH251080   8.002   9.471   4.842
17068TIP3    H151081   7.923   9.413   4.832
17068TIP3    H251082   7.987   9.535   4.768
17069TIP3   OH251083   8.018   9.313   3.436
17069TIP3    H151084   8.103   9.323   3.480
17069TIP3    H251085   7.959   9.359   3.501
17070TIP3   OH251086   7.088   8.080   5.360
17070TIP3    H151087   6.991   8.083   5.373
17070TIP3    H251088   7.115   8.017   5.429
17071TIP3   OH251089   7.884   8.764   3.894
17071TIP3    H151090   7.877   8.694   3.962
17071TIP3    H251091   7.980   8.761   3.876
17072TIP3   OH251092   6.801   9.163   4.992
17072TIP3    H151093   6.855   9.088   5.021
17072TIP3    H251094   6.831   9.232   5.052
17073TIP3   OH251095   7.090   8.808   3.672
17073TIP3    H151096   7.110   8.719   3.640
17073TIP3    H251097   7.074   8.793   3.767
17074TIP3   OH251098   7.037   8.811   3.948
17074TIP3    H151099   7.114   8.785   4.002
17074TIP3    H251100   7.043   8.909   3.952
17075TIP3   OH251101   6.767   8.509   4.143
17075TIP3    H151102   6.758   8.584   4.203
17075TIP3    H251103   6.792   8.557   4.061
17076TIP3   OH251104   7.925   8.142   5.036
17076TIP3    H151105   8.000   8.183   5.081
17076TIP3    H251106   7.908   8.062   5.091
17077TIP3   OH251107   7.806   7.894   4.200
17077TIP3    H151108   7.787   7.919   4.108
17077TIP3    H251109   7.841   7.977   4.237
17078TIP3   OH251110   7.302   9.008   3.893
17078TIP3    H151111   7.216   9.041   3.927
17078TIP3    H251112   7.323   9.077   3.829
17079TIP3   OH251113   7.502   8.070   4.306
17079TIP3    H151114   7.563   8.144   4.291
17079TIP3    H251115   7.498   8.065   4.404
17080TIP3   OH251116   7.760   8.392   5.115
17080TIP3    H151117   7.777   8.448   5.193
17080TIP3    H251118   7.818   8.316   5.132
17081TIP3   OH251119   7.642   7.805   4.415
17081TIP3    H151120   7.616   7.885   4.465
17081TIP3    H251121   7.697   7.844   4.344
17082TIP3   OH251122   7.043   9.085   3.958
17082TIP3    H151123   7.015   9.155   3.895
17082TIP3    H251124   7.030   9.130   4.044
17083TIP3   OH251125   7.148   7.784   4.187
17083TIP3    H151126   7.148   7.875   4.225
17083TIP3    H251127   7.242   7.763   4.206
17084TIP3   OH251128   8.405   8.276   5.096
17084TIP3    H151129   8.308   8.286   5.106
17084TIP3    H251130   8.411   8.261   5.001
17085TIP3   OH251131   8.054   8.487   4.483
17085TIP3    H151132   7.977   8.428   4.495
17085TIP3    H251133   8.125   8.439   4.531
17086TIP3   OH251134   6.762   8.720   3.952
17086TIP3    H151135   6.826   8.792   3.962
17086TIP3    H251136   6.809   8.667   3.883
17087TIP3   OH251137   6.709   7.989   4.089
17087TIP3    H151138   6.715   8.086   4.074
17087TIP3    H251139   6.630   7.964   4.040
17088TIP3   OH251140   7.995   9.433   4.434
17088TIP3    H151141   7.955   9.483   4.360
17088TIP3    H251142   8.089   9.453   4.414
17089TIP3   OH251143   7.097   7.714   4.967
17089TIP3    H151144   7.066   7.683   4.879
17089TIP3    H251145   7.085   7.633   5.021
17090TIP3   OH251146   6.643   8.939   4.354
17090TIP3    H151147   6.560   8.972   4.390
17090TIP3    H251148   6.631   8.961   4.260
17091TIP3   OH251149   6.792   9.468   5.411
17091TIP3    H151150   6.878   9.469   5.459
17091TIP3    H251151   6.772   9.373   5.410
17092TIP3   OH251152   7.277   9.440   5.453
17092TIP3    H151153   7.370   9.417   5.465
17092TIP3    H251154   7.253   9.381   5.379
17093TIP3   OH251155   7.257   9.012   3.586
17093TIP3    H151156   7.202   8.940   3.624
17093TIP3    H251157   7.333   8.962   3.551
17094TIP3   OH251158   7.915   9.342   5.185
17094TIP3    H151159   7.901   9.270   5.251
17094TIP3    H251160   7.990   9.391   5.222
17095TIP3   OH251161   7.686   9.053   3.493
17095TIP3    H151162   7.750   9.009   3.551
17095TIP3    H251163   7.740   9.058   3.411
17096TIP3   OH251164   6.923   8.875   5.613
17096TIP3    H151165   6.941   8.779   5.614
17096TIP3    H251166   6.835   8.878   5.569
17097TIP3   OH251167   6.900   8.528   3.807
17097TIP3    H151168   6.959   8.492   3.876
17097TIP3    H251169   6.964   8.534   3.733
17098TIP3   OH251170   7.532   8.960   5.385
17098TIP3    H151171   7.491   8.975   5.298
17098TIP3    H251172   7.564   8.867   5.379
17099TIP3   OH251173   7.399   8.724   3.611
17099TIP3    H151174   7.409   8.738   3.707
17099TIP3    H251175   7.404   8.626   3.607
17100TIP3   OH251176   8.024   8.968   4.990
17100TIP3    H151177   8.097   9.014   4.945
17100TIP3    H251178   7.952   9.032   4.977
17101TIP3   OH251179   7.040   8.606   5.594
17101TIP3    H151180   7.119   8.554   5.571
17101TIP3    H251181   7.065   8.641   5.682
17102TIP3   OH251182   7.105   8.429   4.027
17102TIP3    H151183   7.090   8.382   4.110
17102TIP3    H251184   7.142   8.357   3.972
17103TIP3   OH251185   7.375   8.494   5.256
17103TIP3    H151186   7.300   8.557   5.260
17103TIP3    H251187   7.424   8.526   5.176
17104TIP3   OH251188   7.209   8.225   3.869
17104TIP3    H151189   7.183   8.224   3.775
17104TIP3    H251190   7.306   8.230   3.862
17105TIP3   OH251191   7.893   8.895   5.388
17105TIP3    H151192   7.976   8.877   5.341
17105TIP3    H251193   7.896   8.828   5.460
17106TIP3   OH251194   8.038   8.551   3.526
17106TIP3    H151195   8.010   8.506   3.445
17106TIP3    H251196   8.004   8.641   3.506
17107TIP3   OH251197   7.496   8.281   5.385
17107TIP3    H151198   7.501   8.202   5.328
17107TIP3    H251199   7.456   8.348   5.325
17108TIP3   OH251200   7.503   8.068   5.189
17108TIP3    H151201   7.531   8.111   5.105
17108TIP3    H251202   7.409   8.046   5.170
17109TIP3   OH251203   7.533   8.606   5.063
17109TIP3    H151204   7.615   8.611   5.011
17109TIP3    H251205   7.478   8.674   5.019
17110TIP3   OH251206   8.153   8.826   5.180
17110TIP3    H151207   8.097   8.879   5.119
17110TIP3    H251208   8.242   8.843   5.140
17111TIP3   OH251209   7.375   8.400   5.611
17111TIP3    H151210   7.307   8.330   5.623
17111TIP3    H251211   7.413   8.374   5.524
17112TIP3   OH251212   7.635   7.834   5.254
17112TIP3    H151213   7.588   7.918   5.231
17112TIP3    H251214   7.564   7.768   5.241
17113TIP3   OH251215   7.762   8.341   5.470
17113TIP3    H151216   7.769   8.329   5.567
17113TIP3    H251217   7.670   8.313   5.454
17114TIP3   OH251218   8.005   8.286   5.329
17114TIP3    H151219   7.927   8.288   5.388
17114TIP3    H251220   8.078   8.297   5.393
17115TIP3   OH251221   7.215   8.179   5.664
17115TIP3    H151222   7.227   8.091   5.624
17115TIP3    H251223   7.252   8.164   5.753
17116TIP3   OH251224   7.728   7.839   5.511
17116TIP3    H151225   7.799   7.772   5.504
17116TIP3    H251226   7.690   7.835   5.421
17117TIP3   OH251227   7.788   8.049   5.677
17117TIP3    H151228   7.767   7.984   5.607
17117TIP3    H251229   7.717   8.116   5.666
17118TIP3   OH251230   7.015   9.287   3.770
17118TIP3    H151231   7.111   9.284   3.752
17118TIP3    H251232   6.985   9.335   3.691
17119TIP3   OH251233   6.492   8.657   3.999
17119TIP3    H151234   6.585   8.687   3.987
17119TIP3    H251235   6.492   8.573   3.948
17120TIP3   OH251236   6.407   9.281   4.402
17120TIP3    H151237   6.341   9.218   4.367
17120TIP3    H251238   6.453   9.226   4.469
17121TIP3   OH251239   6.543   9.137   4.590
17121TIP3    H151240   6.539   9.061   4.650
17121TIP3    H251241   6.597   9.199   4.644
17122TIP3   OH251242   8.235   9.536   4.384
17122TIP3    H151243   8.278   9.558   4.468
17122TIP3    H251244   8.292   9.585   4.324
17123TIP3   OH251245   8.312   9.551   4.669
17123TIP3    H151246   8.266   9.465   4.665
17123TIP3    H251247   8.389   9.526   4.722
17124TIP3   OH251248   8.351   9.236   5.243
17124TIP3    H151249   8.275   9.237   5.304
17124TIP3    H251250   8.382   9.327   5.243
17125TIP3   OH251251   8.163   8.742   3.866
17125TIP3    H151252   8.232   8.805   3.838
17125TIP3    H251253   8.207   8.701   3.943
17126TIP3   OH251254   8.294   8.608   4.066
17126TIP3    H151255   8.228   8.568   4.126
17126TIP3    H251256   8.355   8.652   4.128
17127TIP3   OH251257   8.344   9.000   4.498
17127TIP3    H151258   8.398   8.939   4.445
17127TIP3    H251259   8.337   9.078   4.439
17128TIP3   OH251260   8.179   9.304   4.693
17128TIP3    H151261   8.108   9.345   4.745
17128TIP3    H251262   8.129   9.253   4.625
17129TIP3   OH251263   8.232   8.516   3.716
17129TIP3    H151264   8.162   8.521   3.647
17129TIP3    H251265   8.207   8.595   3.769
17130TIP3   OH251266   8.105   8.190   3.670
17130TIP3    H151267   8.061   8.236   3.597
17130TIP3    H251268   8.076   8.098   3.655
17131TIP3   OH251269   8.108   8.466   4.215
17131TIP3    H151270   8.115   8.370   4.211
17131TIP3    H251271   8.094   8.482   4.311
17132TIP3   OH251272   6.735   8.542   4.957
17132TIP3    H151273   6.738   8.514   4.863
17132TIP3    H251274   6.831   8.545   4.978
17133TIP3   OH251275   8.395   8.890   5.068
17133TIP3    H151276   8.469   8.825   5.061
17133TIP3    H251277   8.425   8.961   5.010
17134TIP3   OH251278   8.591   8.705   5.091
17134TIP3    H151279   8.512   8.654   5.122
17134TIP3    H251280   8.659   8.636   5.102
17135TIP3   OH251281   8.047   7.924   3.655
17135TIP3    H151282   8.121   7.895   3.711
17135TIP3    H251283   7.973   7.867   3.682
17136TIP3   OH251284   8.103   8.183   4.111
17136TIP3    H151285   8.144   8.095   4.124
17136TIP3    H251286   8.161   8.218   4.040
17137TIP3   OH251287   8.267   8.356   4.603
17137TIP3    H151288   8.352   8.384   4.563
17137TIP3    H251289   8.277   8.395   4.692
17138TIP3   OH251290   8.331   8.499   4.833
17138TIP3    H151291   8.257   8.533   4.888
17138TIP3    H251292   8.364   8.581   4.792
17139TIP3   OH251293   6.948   8.227   5.633
17139TIP3    H151294   7.046   8.223   5.634
17139TIP3    H251295   6.926   8.143   5.678
17140TIP3   OH251296   8.791   8.091   5.391
17140TIP3    H151297   8.845   8.023   5.345
17140TIP3    H251298   8.759   8.146   5.316
17141TIP3   OH251299   8.214   7.933   4.146
17141TIP3    H151300   8.259   7.918   4.231
17141TIP3    H251301   8.152   7.857   4.144
17142TIP3   OH251302   6.912   7.922   4.975
17142TIP3    H151303   6.973   7.846   4.980
17142TIP3    H251304   6.975   7.994   4.960
17143TIP3   OH251305   6.716   8.196   5.038
17143TIP3    H151306   6.767   8.181   4.956
17143TIP3    H251307   6.752   8.280   5.068
17144TIP3   OH251308   8.658   8.232   5.202
17144TIP3    H151309   8.569   8.268   5.218
17144TIP3    H251310   8.634   8.161   5.139
17145TIP3   OH251311   8.296   7.868   3.780
17145TIP3    H151312   8.335   7.797   3.725
17145TIP3    H251313   8.361   7.940   3.770
17146TIP3   OH251314   6.695   7.688   4.538
17146TIP3    H151315   6.601   7.697   4.561
17146TIP3    H251316   6.704   7.749   4.462
17147TIP3   OH251317   7.851   9.406   4.053
17147TIP3    H151318   7.894   9.382   3.967
17147TIP3    H251319   7.920   9.463   4.091
17148TIP3   OH251320   6.918   7.776   5.356
17148TIP3    H151321   6.866   7.774   5.438
17148TIP3    H251322   6.853   7.815   5.294
17149TIP3   OH251323   6.959   9.201   5.432
17149TIP3    H151324   6.867   9.174   5.416
17149TIP3    H251325   6.968   9.187   5.527
17150TIP3   OH251326   7.135   9.233   4.979
17150TIP3    H151327   7.088   9.310   4.940
17150TIP3    H251328   7.221   9.247   4.935
17151TIP3   OH251329   7.583   9.481   5.117
17151TIP3    H151330   7.625   9.481   5.206
17151TIP3    H251331   7.649   9.531   5.065
17152TIP3   OH251332   7.761   9.632   4.974
17152TIP3    H151333   7.832   9.581   4.932
17152TIP3    H251334   7.813   9.690   5.034
17153TIP3   OH251335   8.560   7.996   5.073
17153TIP3    H151336   8.467   8.001   5.046
17153TIP3    H251337   8.580   7.902   5.059
17154TIP3   OH251338   6.813   9.491   5.002
17154TIP3    H151339   6.725   9.528   4.978
17154TIP3    H251340   6.823   9.526   5.092
17155TIP3   OH251341   7.050   9.471   4.859
17155TIP3    H151342   6.964   9.485   4.905
17155TIP3    H251343   7.030   9.506   4.770
17156TIP3   OH251344   7.476   9.502   4.657
17156TIP3    H151345   7.408   9.523   4.591
17156TIP3    H251346   7.489   9.589   4.700
17157TIP3   OH251347   7.744   9.442   4.711
17157TIP3    H151348   7.650   9.457   4.689
17157TIP3    H251349   7.787   9.516   4.665
17158TIP3   OH251350   7.952   9.635   4.624
17158TIP3    H151351   7.941   9.720   4.576
17158TIP3    H251352   7.972   9.573   4.551
17159TIP3   OH251353   6.724   9.286   4.747
17159TIP3    H151354   6.751   9.263   4.839
17159TIP3    H251355   6.797   9.244   4.697
17160TIP3   OH251356   6.918   9.158   4.603
17160TIP3    H151357   6.935   9.074   4.650
17160TIP3    H251358   7.008   9.196   4.598
17161TIP3   OH251359   7.182   9.254   4.605
17161TIP3    H151360   7.216   9.164   4.592
17161TIP3    H251361   7.225   9.276   4.690
17162TIP3   OH251362   7.775   7.912   4.708
17162TIP3    H151363   7.716   7.849   4.752
17162TIP3    H251364   7.821   7.857   4.643
17163TIP3   OH251365   8.292   7.794   4.609
17163TIP3    H151366   8.324   7.846   4.532
17163TIP3    H251367   8.195   7.805   4.599
17164TIP3   OH251368   8.378   7.890   4.366
17164TIP3    H151369   8.452   7.842   4.324
17164TIP3    H251370   8.408   7.983   4.352
17165TIP3   OH251371   7.010   7.613   4.732
17165TIP3    H151372   6.918   7.587   4.713
17165TIP3    H251373   7.057   7.529   4.713
17166TIP3   OH251374   6.790   7.487   4.356
17166TIP3    H151375   6.828   7.546   4.288
17166TIP3    H251376   6.766   7.551   4.426
17167TIP3   OH251377   7.457   7.646   4.593
17167TIP3    H151378   7.509   7.702   4.534
17167TIP3    H251379   7.461   7.695   4.676
17168TIP3   OH251380   8.020   7.790   4.571
17168TIP3    H151381   7.983   7.769   4.485
17168TIP3    H251382   7.991   7.714   4.626
17169TIP3   OH251383   8.030   7.720   4.140
17169TIP3    H151384   7.944   7.765   4.148
17169TIP3    H251385   8.010   7.634   4.184
17170TIP3   OH251386   6.509   9.055   4.145
17170TIP3    H151387   6.426   9.026   4.104
17170TIP3    H251388   6.503   9.150   4.128
17171TIP3   OH251389   6.910   7.650   4.121
17171TIP3    H151390   6.962   7.588   4.067
17171TIP3    H251391   6.982   7.703   4.163
17172TIP3   OH251392   7.432   7.814   4.217
17172TIP3    H151393   7.490   7.781   4.287
17172TIP3    H251394   7.431   7.910   4.240
17173TIP3   OH251395   7.285   9.251   3.720
17173TIP3    H151396   7.374   9.270   3.686
17173TIP3    H251397   7.263   9.175   3.662
17174TIP3   OH251398   7.983   9.361   3.823
17174TIP3    H151399   7.983   9.264   3.801
17174TIP3    H251400   7.964   9.398   3.735
17175TIP3   OH251401   7.216   7.897   5.601
17175TIP3    H151402   7.185   7.827   5.661
17175TIP3    H251403   7.311   7.901   5.626
17176TIP3   OH251404   7.464   7.897   5.721
17176TIP3    H151405   7.550   7.879   5.680
17176TIP3    H251406   7.457   7.824   5.785
17177TIP3   OH251407   6.589   9.083   3.780
17177TIP3    H151408   6.592   9.116   3.870
17177TIP3    H251409   6.678   9.043   3.768
17178TIP3   OH251410   8.285   7.935   5.504
17178TIP3    H151411   8.305   7.931   5.599
17178TIP3    H251412   8.370   7.963   5.466
17179TIP3   OH251413   8.225   9.507   5.012
17179TIP3    H151414   8.151   9.474   4.957
17179TIP3    H251415   8.211   9.603   5.002
17180TIP3   OH251416   8.798   8.772   4.508
17180TIP3    H151417   8.827   8.710   4.579
17180TIP3    H251418   8.859   8.845   4.522
17181TIP3   OH251419   8.751   9.159   4.231
17181TIP3    H151420   8.765   9.062   4.236
17181TIP3    H251421   8.835   9.194   4.263
17182TIP3   OH251422   8.472   8.390   4.028
17182TIP3    H151423   8.424   8.475   4.040
17182TIP3    H251424   8.402   8.337   3.987
17183TIP3   OH251425   8.534   8.681   4.195
17183TIP3    H151426   8.583   8.603   4.230
17183TIP3    H251427   8.587   8.704   4.117
17184TIP3   OH251428   9.038   8.270   4.197
17184TIP3    H151429   9.022   8.342   4.133
17184TIP3    H251430   8.993   8.196   4.150
17185TIP3   OH251431   8.678   8.472   4.302
17185TIP3    H151432   8.760   8.449   4.349
17185TIP3    H251433   8.689   8.416   4.222
17186TIP3   OH251434   9.114   8.679   4.095
17186TIP3    H151435   9.210   8.659   4.085
17186TIP3    H251436   9.074   8.596   4.064
17187TIP3   OH251437   9.037   8.250   4.629
17187TIP3    H151438   8.978   8.288   4.561
17187TIP3    H251439   8.987   8.271   4.710
17188TIP3   OH251440   8.910   8.367   4.415
17188TIP3    H151441   8.974   8.439   4.436
17188TIP3    H251442   8.957   8.325   4.339
17189TIP3   OH251443   8.385   8.895   3.789
17189TIP3    H151444   8.339   8.934   3.711
17189TIP3    H251445   8.410   8.978   3.835
17190TIP3   OH251446   9.392   7.962   4.347
17190TIP3    H151447   9.379   7.867   4.368
17190TIP3    H251448   9.315   8.001   4.393
17191TIP3   OH251449   8.881   8.794   4.000
17191TIP3    H151450   8.850   8.755   3.916
17191TIP3    H251451   8.973   8.761   4.002
17192TIP3   OH251452   9.056   8.797   4.339
17192TIP3    H151453   9.052   8.761   4.248
17192TIP3    H251454   9.036   8.891   4.324
17193TIP3   OH251455   8.932   8.898   4.757
17193TIP3    H151456   8.937   8.982   4.807
17193TIP3    H251457   8.837   8.878   4.771
17194TIP3   OH251458   8.784   8.655   3.783
17194TIP3    H151459   8.715   8.704   3.732
17194TIP3    H251460   8.736   8.575   3.804
17195TIP3   OH251461   8.546   9.035   4.699
17195TIP3    H151462   8.482   9.013   4.629
17195TIP3    H251463   8.584   8.948   4.723
17196TIP3   OH251464   8.411   9.230   4.338
17196TIP3    H151465   8.504   9.221   4.311
17196TIP3    H251466   8.412   9.308   4.394
17197TIP3   OH251467   8.752   9.212   4.686
17197TIP3    H151468   8.790   9.202   4.775
17197TIP3    H251469   8.683   9.143   4.687
17198TIP3   OH251470   9.158   8.046   4.472
17198TIP3    H151471   9.067   8.018   4.448
17198TIP3    H251472   9.138   8.132   4.513
17199TIP3   OH251473   9.694   8.150   4.658
17199TIP3    H151474   9.760   8.146   4.729
17199TIP3    H251475   9.609   8.147   4.706
17200TIP3   OH251476   9.289   8.085   3.439
17200TIP3    H151477   9.258   8.093   3.531
17200TIP3    H251478   9.246   8.001   3.413
17201TIP3   OH251479   9.084   8.567   4.488
17201TIP3    H151480   9.032   8.581   4.570
17201TIP3    H251481   9.065   8.649   4.438
17202TIP3   OH251482   8.975   8.452   4.006
17202TIP3    H151483   8.882   8.426   4.019
17202TIP3    H251484   8.992   8.415   3.917
17203TIP3   OH251485   8.909   8.592   4.701
17203TIP3    H151486   8.930   8.654   4.772
17203TIP3    H251487   8.898   8.509   4.750
17204TIP3   OH251488   8.949   8.059   3.414
17204TIP3    H151489   8.946   8.061   3.512
17204TIP3    H251490   8.874   8.117   3.391
17205TIP3   OH251491   8.501   8.113   4.281
17205TIP3    H151492   8.577   8.147   4.333
17205TIP3    H251493   8.542   8.088   4.197
17206TIP3   OH251494   8.479   8.097   3.799
17206TIP3    H151495   8.525   8.136   3.722
17206TIP3    H251496   8.417   8.169   3.821
17207TIP3   OH251497   9.289   8.274   4.065
17207TIP3    H151498   9.212   8.272   4.124
17207TIP3    H251499   9.363   8.261   4.129
17208TIP3   OH251500   8.735   8.327   4.075
17208TIP3    H151501   8.641   8.334   4.047
17208TIP3    H251502   8.760   8.236   4.048
17209TIP3   OH251503   9.006   8.321   3.763
17209TIP3    H151504   9.099   8.347   3.746
17209TIP3    H251505   8.961   8.346   3.680
17210TIP3   OH251506   8.842   8.343   3.541
17210TIP3    H151507   8.758   8.306   3.509
17210TIP3    H251508   8.872   8.388   3.461
17211TIP3   OH251509   8.915   9.130   4.908
17211TIP3    H151510   8.981   9.198   4.929
17211TIP3    H251511   8.852   9.142   4.981
17212TIP3   OH251512   8.910   8.090   4.037
17212TIP3    H151513   8.882   8.006   4.080
17212TIP3    H251514   8.960   8.058   3.961
17213TIP3   OH251515   9.357   8.474   4.472
17213TIP3    H151516   9.273   8.523   4.460
17213TIP3    H251517   9.423   8.544   4.477
17214TIP3   OH251518   8.801   8.894   4.236
17214TIP3    H151519   8.820   8.859   4.146
17214TIP3    H251520   8.810   8.815   4.292
17215TIP3   OH251521   8.671   8.825   4.833
17215TIP3    H151522   8.691   8.813   4.928
17215TIP3    H251523   8.599   8.761   4.820
17216TIP3   OH251524   8.452   8.517   3.547
17216TIP3    H151525   8.500   8.601   3.567
17216TIP3    H251526   8.376   8.526   3.609
17217TIP3   OH251527   8.882   8.334   4.845
17217TIP3    H151528   8.787   8.343   4.864
17217TIP3    H251529   8.912   8.276   4.917
17218TIP3   OH251530   8.589   9.409   4.546
17218TIP3    H151531   8.612   9.324   4.588
17218TIP3    H251532   8.651   9.466   4.595
17219TIP3   OH251533   8.577   8.754   3.644
17219TIP3    H151534   8.514   8.806   3.698
17219TIP3    H251535   8.584   8.811   3.565
17220TIP3   OH251536   9.290   8.321   3.795
17220TIP3    H151537   9.370   8.372   3.778
17220TIP3    H251538   9.288   8.321   3.894
17221TIP3   OH251539   9.429   8.067   3.906
17221TIP3    H151540   9.400   8.137   3.968
17221TIP3    H251541   9.496   8.118   3.856
17222TIP3   OH251542   8.943   8.053   3.691
17222TIP3    H151543   8.944   8.146   3.721
17222TIP3    H251544   9.039   8.033   3.696
17223TIP3   OH251545   8.509   8.250   3.571
17223TIP3    H151546   8.505   8.348   3.568
17223TIP3    H251547   8.423   8.225   3.536
17224TIP3   OH251548   8.893   7.969   4.450
17224TIP3    H151549   8.863   7.937   4.362
17224TIP3    H251550   8.883   7.889   4.505
17225TIP3   OH251551   8.404   9.174   3.847
17225TIP3    H151552   8.318   9.219   3.849
17225TIP3    H251553   8.425   9.180   3.752
17226TIP3   OH251554   8.719   9.120   5.097
17226TIP3    H151555   8.732   9.025   5.084
17226TIP3    H251556   8.631   9.135   5.057
17227TIP3   OH251557   8.841   8.860   5.076
17227TIP3    H151558   8.921   8.807   5.065
17227TIP3    H251559   8.838   8.877   5.170
17228TIP3   OH251560   8.882   8.644   3.478
17228TIP3    H151561   8.855   8.635   3.571
17228TIP3    H251562   8.960   8.585   3.471
17229TIP3   OH251563   9.169   8.748   4.738
17229TIP3    H151564   9.096   8.810   4.758
17229TIP3    H251565   9.179   8.759   4.643
17230TIP3   OH251566   9.288   8.534   4.874
17230TIP3    H151567   9.295   8.456   4.816
17230TIP3    H251568   9.257   8.603   4.812
17231TIP3   OH251569   9.295   8.319   4.685
17231TIP3    H151570   9.325   8.365   4.603
17231TIP3    H251571   9.202   8.299   4.662
17232TIP3   OH251572   9.166   8.656   5.091
17232TIP3    H151573   9.100   8.586   5.106
17232TIP3    H251574   9.207   8.628   5.006
17233TIP3   OH251575   9.430   8.088   4.739
17233TIP3    H151576   9.383   8.173   4.721
17233TIP3    H251577   9.359   8.023   4.728
17234TIP3   OH251578   9.550   8.609   4.950
17234TIP3    H151579   9.542   8.602   5.046
17234TIP3    H251580   9.461   8.581   4.923
17235TIP3   OH251581   9.012   8.433   5.146
17235TIP3    H151582   9.023   8.344   5.109
17235TIP3    H251583   9.046   8.419   5.237
17236TIP3   OH251584   9.525   8.093   4.994
17236TIP3    H151585   9.596   8.027   4.989
17236TIP3    H251586   9.488   8.089   4.903
17237TIP3   OH251587   9.560   8.298   5.170
17237TIP3    H151588   9.555   8.237   5.093
17237TIP3    H251589   9.524   8.381   5.135
17238TIP3   OH251590   8.440   8.852   3.410
17238TIP3    H151591   8.389   8.920   3.460
17238TIP3    H251592   8.367   8.791   3.388
17239TIP3   OH251593   8.187   9.537   3.892
17239TIP3    H151594   8.136   9.465   3.850
17239TIP3    H251595   8.245   9.485   3.953
17240TIP3   OH251596   8.332   9.395   4.073
17240TIP3    H151597   8.337   9.311   4.121
17240TIP3    H251598   8.380   9.454   4.131
17241TIP3   OH251599   8.531   8.795   4.447
17241TIP3    H151600   8.527   8.767   4.353
17241TIP3    H251601   8.628   8.796   4.462
17242TIP3   OH251602   8.747   8.484   5.117
17242TIP3    H151603   8.845   8.477   5.121
17242TIP3    H251604   8.721   8.403   5.165
17243TIP3   OH251605   8.709   8.176   4.453
17243TIP3    H151606   8.773   8.102   4.464
17243TIP3    H251607   8.770   8.252   4.448
17244TIP3   OH251608   8.514   8.450   4.527
17244TIP3    H151609   8.562   8.444   4.442
17244TIP3    H251610   8.538   8.538   4.556
17245TIP3   OH251611   8.494   7.952   4.027
17245TIP3    H151612   8.400   7.952   4.051
17245TIP3    H251613   8.495   8.011   3.949
17246TIP3   OH251614   8.712   8.026   4.837
17246TIP3    H151615   8.666   8.029   4.923
17246TIP3    H251616   8.647   8.073   4.780
17247TIP3   OH251617   8.747   9.418   4.931
17247TIP3    H151618   8.656   9.436   4.902
17247TIP3    H251619   8.746   9.444   5.023
17248TIP3   OH251620   9.501   8.165   4.190
17248TIP3    H151621   9.480   8.089   4.247
17248TIP3    H251622   9.577   8.136   4.139
17249TIP3   OH251623   8.808   7.879   4.200
17249TIP3    H151624   8.715   7.851   4.191
17249TIP3    H251625   8.855   7.793   4.195
17250TIP3   OH251626   8.598   7.743   3.849
17250TIP3    H151627   8.625   7.798   3.774
17250TIP3    H251628   8.561   7.809   3.911
17251TIP3   OH251629   9.246   7.907   4.080
17251TIP3    H151630   9.305   7.957   4.022
17251TIP3    H251631   9.269   7.944   4.167
17252TIP3   OH251632   9.869   7.945   4.013
17252TIP3    H151633   9.823   8.024   3.983
17252TIP3    H251634   9.809   7.913   4.085
17253TIP3   OH251635   8.231   9.336   3.652
17253TIP3    H151636   8.238   9.243   3.622
17253TIP3    H251637   8.275   9.386   3.581
17254TIP3   OH251638   8.707   7.903   3.611
17254TIP3    H151639   8.757   7.842   3.553
17254TIP3    H251640   8.780   7.958   3.648
17255TIP3   OH251641   9.218   8.075   3.710
17255TIP3    H151642   9.280   8.031   3.770
17255TIP3    H251643   9.237   8.168   3.734
17256TIP3   OH251644   9.014   8.153   5.086
17256TIP3    H151645   8.981   8.085   5.147
17256TIP3    H251646   9.109   8.156   5.113
17257TIP3   OH251647   9.261   8.156   5.211
17257TIP3    H151648   9.348   8.138   5.172
17257TIP3    H251649   9.253   8.082   5.274
17258TIP3   OH251650   0.985   8.978   6.403
17258TIP3    H151651   0.957   9.070   6.414
17258TIP3    H251652   0.993   8.975   6.306
17259TIP3   OH251653   1.244   8.881   7.088
17259TIP3    H151654   1.297   8.812   7.043
17259TIP3    H251655   1.208   8.931   7.012
17260TIP3   OH251656   1.108   9.019   6.892
17260TIP3    H151657   1.018   9.048   6.907
17260TIP3    H251658   1.093   8.942   6.834
17261TIP3   OH251659   0.746   8.665   5.473
17261TIP3    H151660   0.781   8.587   5.425
17261TIP3    H251661   0.815   8.731   5.458
17262TIP3   OH251662   1.012   8.790   6.760
17262TIP3    H151663   0.919   8.779   6.735
17262TIP3    H251664   1.044   8.697   6.754
17263TIP3   OH251665   0.825   8.673   6.031
17263TIP3    H151666   0.908   8.630   6.005
17263TIP3    H251667   0.852   8.767   6.035
17264TIP3   OH251668   0.910   9.182   5.706
17264TIP3    H151669   0.892   9.270   5.742
17264TIP3    H251670   0.854   9.127   5.762
17265TIP3   OH251671   2.756   9.213   5.881
17265TIP3    H151672   2.786   9.292   5.931
17265TIP3    H251673   2.780   9.239   5.790
17266TIP3   OH251674   2.157   9.402   5.915
17266TIP3    H151675   2.199   9.316   5.938
17266TIP3    H251676   2.122   9.381   5.827
17267TIP3   OH251677   1.496   9.056   5.885
17267TIP3    H151678   1.476   9.130   5.823
17267TIP3    H251679   1.447   8.983   5.840
17268TIP3   OH251680   2.189   9.143   5.509
17268TIP3    H151681   2.262   9.128   5.574
17268TIP3    H251682   2.240   9.182   5.436
17269TIP3   OH251683   1.117   9.241   5.998
17269TIP3    H151684   1.202   9.236   6.045
17269TIP3    H251685   1.141   9.204   5.911
17270TIP3   OH251686   1.586   9.461   5.764
17270TIP3    H151687   1.669   9.423   5.799
17270TIP3    H251688   1.534   9.382   5.741
17271TIP3   OH251689   2.827   9.408   6.062
17271TIP3    H151690   2.754   9.465   6.030
17271TIP3    H251691   2.860   9.460   6.137
17272TIP3   OH251692   1.493   9.041   6.318
17272TIP3    H151693   1.431   9.073   6.250
17272TIP3    H251694   1.441   9.058   6.400
17273TIP3   OH251695   2.401   9.150   5.677
17273TIP3    H151696   2.398   9.099   5.759
17273TIP3    H251697   2.454   9.228   5.703
17274TIP3   OH251698   1.361   9.149   6.104
17274TIP3    H151699   1.418   9.227   6.120
17274TIP3    H251700   1.410   9.108   6.029
17275TIP3   OH251701   2.551   9.115   6.049
17275TIP3    H151702   2.465   9.149   6.020
17275TIP3    H251703   2.612   9.148   5.979
17276TIP3   OH251704   1.852   8.761   6.031
17276TIP3    H151705   1.840   8.666   6.049
17276TIP3    H251706   1.773   8.798   6.078
17277TIP3   OH251707   1.782   9.313   5.004
17277TIP3    H151708   1.816   9.350   5.088
17277TIP3    H251709   1.772   9.220   5.026
17278TIP3   OH251710   2.382   9.636   6.163
17278TIP3    H151711   2.395   9.723   6.122
17278TIP3    H251712   2.290   9.615   6.132
17279TIP3   OH251713   2.483   8.705   5.133
17279TIP3    H151714   2.402   8.722   5.185
17279TIP3    H251715   2.493   8.789   5.085
17280TIP3   OH251716   2.608   9.605   6.344
17280TIP3    H151717   2.533   9.598   6.283
17280TIP3    H251718   2.635   9.511   6.350
17281TIP3   OH251719   1.612   8.836   6.159
17281TIP3    H151720   1.522   8.805   6.135
17281TIP3    H251721   1.588   8.920   6.203
17282TIP3   OH251722   2.144   8.954   6.355
17282TIP3    H151723   2.212   8.923   6.418
17282TIP3    H251724   2.060   8.930   6.400
17283TIP3   OH251725   2.385   9.365   6.275
17283TIP3    H151726   2.339   9.364   6.362
17283TIP3    H251727   2.361   9.452   6.239
17284TIP3   OH251728   1.759   8.890   5.132
17284TIP3    H151729   1.727   8.886   5.224
17284TIP3    H251730   1.722   8.807   5.099
17285TIP3   OH251731   1.535   9.355   6.152
17285TIP3    H151732   1.504   9.366   6.244
17285TIP3    H251733   1.515   9.441   6.114
17286TIP3   OH251734   1.427   9.236   5.694
17286TIP3    H151735   1.334   9.210   5.709
17286TIP3    H251736   1.441   9.199   5.605
17287TIP3   OH251737   1.929   9.325   5.424
17287TIP3    H151738   1.849   9.377   5.401
17287TIP3    H251739   1.972   9.312   5.337
17288TIP3   OH251740   2.099   9.595   6.507
17288TIP3    H151741   2.078   9.516   6.562
17288TIP3    H251742   2.195   9.604   6.524
17289TIP3   OH251743   2.067   9.342   5.663
17289TIP3    H151744   2.009   9.360   5.587
17289TIP3    H251745   2.110   9.261   5.627
17290TIP3   OH251746   1.322   9.373   6.403
17290TIP3    H151747   1.376   9.419   6.467
17290TIP3    H251748   1.326   9.282   6.436
17291TIP3   OH251749   1.412   8.858   5.100
17291TIP3    H151750   1.408   8.854   5.197
17291TIP3    H251751   1.331   8.908   5.081
17292TIP3   OH251752   0.957   8.910   5.951
17292TIP3    H151753   1.022   8.940   6.019
17292TIP3    H251754   1.011   8.857   5.892
17293TIP3   OH251755   0.928   8.897   5.494
17293TIP3    H151756   0.971   8.920   5.408
17293TIP3    H251757   0.895   8.984   5.517
17294TIP3   OH251758   2.124   9.589   6.106
17294TIP3    H151759   2.127   9.522   6.033
17294TIP3    H251760   2.055   9.547   6.162
17295TIP3   OH251761   1.750   9.055   5.754
17295TIP3    H151762   1.667   9.057   5.805
17295TIP3    H251763   1.816   9.067   5.824
17296TIP3   OH251764   1.186   9.118   5.756
17296TIP3    H151765   1.092   9.114   5.729
17296TIP3    H251766   1.217   9.026   5.741
17297TIP3   OH251767   1.463   9.110   5.452
17297TIP3    H151768   1.554   9.134   5.428
17297TIP3    H251769   1.410   9.137   5.374
17298TIP3   OH251770   2.241   9.138   5.958
17298TIP3    H151771   2.205   9.147   6.049
17298TIP3    H251772   2.179   9.073   5.920
17299TIP3   OH251773   1.287   9.122   5.236
17299TIP3    H151774   1.220   9.099   5.169
17299TIP3    H251775   1.347   9.178   5.184
17300TIP3   OH251776   1.832   9.367   5.847
17300TIP3    H151777   1.915   9.345   5.802
17300TIP3    H251778   1.853   9.353   5.941
17301TIP3   OH251779   1.358   8.877   5.729
17301TIP3    H151780   1.328   8.795   5.774
17301TIP3    H251781   1.413   8.843   5.657
17302TIP3   OH251782   1.811   9.272   6.150
17302TIP3    H151783   1.725   9.315   6.140
17302TIP3    H251784   1.867   9.340   6.193
17303TIP3   OH251785   2.004   9.004   5.084
17303TIP3    H151786   1.912   8.978   5.107
17303TIP3    H251787   2.013   9.095   5.119
17304TIP3   OH251788   2.076   9.256   5.186
17304TIP3    H151789   2.167   9.238   5.218
17304TIP3    H251790   2.089   9.341   5.140
17305TIP3   OH251791   1.803   9.649   6.616
17305TIP3    H151792   1.792   9.739   6.581
17305TIP3    H251793   1.874   9.614   6.561
17306TIP3   OH251794   2.516   9.313   5.044
17306TIP3    H151795   2.451   9.275   4.980
17306TIP3    H251796   2.524   9.403   5.008
17307TIP3   OH251797   1.344   9.118   6.541
17307TIP3    H151798   1.254   9.138   6.573
17307TIP3    H251799   1.374   9.053   6.608
17308TIP3   OH251800   2.164   9.193   6.220
17308TIP3    H151801   2.251   9.223   6.251
17308TIP3    H251802   2.151   9.109   6.269
17309TIP3   OH251803   2.050   8.942   5.376
17309TIP3    H151804   2.041   8.970   5.284
17309TIP3    H251805   2.092   9.020   5.418
17310TIP3   OH251806   1.749   9.117   5.482
17310TIP3    H151807   1.818   9.186   5.472
17310TIP3    H251808   1.745   9.108   5.580
17311TIP3   OH251809   1.997   9.431   6.290
17311TIP3    H151810   2.032   9.482   6.366
17311TIP3    H251811   2.053   9.351   6.290
17312TIP3   OH251812   1.887   8.848   5.587
17312TIP3    H151813   1.878   8.923   5.649
17312TIP3    H251814   1.946   8.886   5.519
17313TIP3   OH251815   1.398   8.841   5.375
17313TIP3    H151816   1.393   8.933   5.406
17313TIP3    H251817   1.494   8.824   5.385
17314TIP3   OH251818   2.654   9.338   6.282
17314TIP3    H151819   2.557   9.325   6.280
17314TIP3    H251820   2.677   9.315   6.190
17315TIP3   OH251821   2.292   9.518   5.643
17315TIP3    H151822   2.224   9.457   5.675
17315TIP3    H251823   2.370   9.493   5.698
17316TIP3   OH251824   0.953   9.038   5.261
17316TIP3    H151825   0.966   9.132   5.248
17316TIP3    H251826   0.878   9.015   5.205
17317TIP3   OH251827   1.349   8.755   6.136
17317TIP3    H151828   1.315   8.723   6.050
17317TIP3    H251829   1.339   8.676   6.193
17318TIP3   OH251830   1.315   9.650   6.766
17318TIP3    H151831   1.333   9.556   6.762
17318TIP3    H251832   1.296   9.664   6.859
17319TIP3   OH251833   1.602   9.444   6.402
17319TIP3    H151834   1.570   9.532   6.436
17319TIP3    H251835   1.642   9.472   6.319
17320TIP3   OH251836   1.485   9.244   5.092
17320TIP3    H151837   1.430   9.229   5.012
17320TIP3    H251838   1.559   9.294   5.057
17321TIP3   OH251839   1.758   9.307   6.571
17321TIP3    H151840   1.764   9.222   6.524
17321TIP3    H251841   1.700   9.356   6.508
17322TIP3   OH251842   1.753   9.109   6.368
17322TIP3    H151843   1.779   9.154   6.285
17322TIP3    H251844   1.658   9.089   6.349
17323TIP3   OH251845   2.372   9.625   6.614
17323TIP3    H151846   2.393   9.533   6.637
17323TIP3    H251847   2.459   9.658   6.590
17324TIP3   OH251848   1.613   9.445   6.781
17324TIP3    H151849   1.555   9.368   6.793
17324TIP3    H251850   1.664   9.419   6.702
17325TIP3   OH251851   1.886   8.877   6.430
17325TIP3    H151852   1.836   8.959   6.408
17325TIP3    H251853   1.816   8.810   6.419
17326TIP3   OH251854   2.009   9.388   6.651
17326TIP3    H151855   2.001   9.375   6.747
17326TIP3    H251856   1.919   9.357   6.625
17327TIP3   OH251857   2.254   9.336   6.510
17327TIP3    H151858   2.176   9.324   6.568
17327TIP3    H251859   2.326   9.297   6.564
17328TIP3   OH251860   2.484   9.272   6.656
17328TIP3    H151861   2.494   9.176   6.675
17328TIP3    H251862   2.477   9.311   6.746
17329TIP3   OH251863   1.469   9.222   6.844
17329TIP3    H151864   1.474   9.133   6.804
17329TIP3    H251865   1.505   9.203   6.933
17330TIP3   OH251866   1.979   8.889   6.688
17330TIP3    H151867   2.047   8.819   6.685
17330TIP3    H251868   1.940   8.880   6.598
17331TIP3   OH251869   2.045   9.104   6.846
17331TIP3    H151870   2.023   9.031   6.783
17331TIP3    H251871   1.967   9.162   6.838
17332TIP3   OH251872   2.339   9.245   4.843
17332TIP3    H151873   2.331   9.264   4.750
17332TIP3    H251874   2.320   9.148   4.844
17333TIP3   OH251875   2.383   9.491   5.390
17333TIP3    H151876   2.388   9.396   5.405
17333TIP3    H251877   2.361   9.522   5.481
17334TIP3   OH251878   2.818   9.769   6.293
17334TIP3    H151879   2.745   9.706   6.307
17334TIP3    H251880   2.893   9.707   6.281
17335TIP3   OH251881   2.293   8.978   4.838
17335TIP3    H151882   2.373   8.944   4.883
17335TIP3    H251883   2.225   8.912   4.859
17336TIP3   OH251884   2.340   9.216   5.283
17336TIP3    H151885   2.385   9.129   5.297
17336TIP3    H251886   2.403   9.257   5.221
17337TIP3   OH251887   2.512   9.400   5.770
17337TIP3    H151888   2.597   9.429   5.729
17337TIP3    H251889   2.528   9.435   5.860
17338TIP3   OH251890   2.583   9.528   6.002
17338TIP3    H151891   2.507   9.560   6.053
17338TIP3    H251892   2.634   9.612   5.989
17339TIP3   OH251893   1.203   9.274   6.803
17339TIP3    H151894   1.300   9.268   6.815
17339TIP3    H251895   1.174   9.191   6.845
17340TIP3   OH251896   3.044   9.142   6.570
17340TIP3    H151897   3.092   9.069   6.524
17340TIP3    H251898   3.009   9.194   6.495
17341TIP3   OH251899   2.461   8.975   5.323
17341TIP3    H151900   2.511   8.961   5.407
17341TIP3    H251901   2.402   8.897   5.324
17342TIP3   OH251902   1.156   8.956   6.137
17342TIP3    H151903   1.225   8.888   6.151
17342TIP3    H251904   1.211   9.036   6.135
17343TIP3   OH251905   0.978   9.238   6.239
17343TIP3    H151906   1.015   9.226   6.150
17343TIP3    H251907   0.976   9.334   6.244
17344TIP3   OH251908   2.906   9.276   6.380
17344TIP3    H151909   2.817   9.315   6.392
17344TIP3    H251910   2.883   9.207   6.315
17345TIP3   OH251911   2.542   8.916   4.950
17345TIP3    H151912   2.585   8.841   4.904
17345TIP3    H251913   2.613   8.984   4.948
17346TIP3   OH251914   0.955   8.735   5.707
17346TIP3    H151915   0.869   8.754   5.747
17346TIP3    H251916   0.955   8.797   5.630
17347TIP3   OH251917   1.171   8.819   6.530
17347TIP3    H151918   1.117   8.815   6.611
17347TIP3    H251919   1.110   8.869   6.471
17348TIP3   OH251920   2.804   9.039   6.254
17348TIP3    H151921   2.713   9.036   6.220
17348TIP3    H251922   2.832   8.946   6.239
17349TIP3   OH251923   2.012   8.955   5.871
17349TIP3    H151924   1.965   8.888   5.923
17349TIP3    H251925   2.081   8.903   5.826
17350TIP3   OH251926   2.535   8.833   5.775
17350TIP3    H151927   2.570   8.887   5.701
17350TIP3    H251928   2.439   8.852   5.770
17351TIP3   OH251929   2.628   8.937   5.540
17351TIP3    H151930   2.701   8.885   5.500
17351TIP3    H251931   2.662   9.029   5.525
17352TIP3   OH251932   1.258   8.663   5.888
17352TIP3    H151933   1.167   8.626   5.888
17352TIP3    H251934   1.310   8.580   5.886
17353TIP3   OH251935   1.045   8.529   5.535
17353TIP3    H151936   1.074   8.585   5.462
17353TIP3    H251937   1.016   8.596   5.601
17354TIP3   OH251938   1.699   8.697   5.767
17354TIP3    H151939   1.760   8.749   5.712
17354TIP3    H251940   1.718   8.733   5.855
17355TIP3   OH251941   2.252   8.841   5.752
17355TIP3    H151942   2.247   8.803   5.664
17355TIP3    H251943   2.237   8.761   5.808
17356TIP3   OH251944   2.278   8.762   5.314
17356TIP3    H151945   2.190   8.803   5.326
17356TIP3    H251946   2.265   8.677   5.362
17357TIP3   OH251947   1.160   8.694   5.302
17357TIP3    H151948   1.208   8.631   5.245
17357TIP3    H251949   1.233   8.748   5.337
17358TIP3   OH251950   1.675   8.868   5.396
17358TIP3    H151951   1.733   8.821   5.459
17358TIP3    H251952   1.694   8.960   5.424
17359TIP3   OH251953   1.464   8.946   6.779
17359TIP3    H151954   1.432   8.875   6.837
17359TIP3    H251955   1.560   8.946   6.803
17360TIP3   OH251956   1.712   8.941   6.897
17360TIP3    H151957   1.798   8.918   6.858
17360TIP3    H251958   1.703   8.870   6.964
17361TIP3   OH251959   2.537   9.002   6.687
17361TIP3    H151960   2.558   8.968   6.777
17361TIP3    H251961   2.625   8.995   6.644
17362TIP3   OH251962   2.721   9.449   5.200
17362TIP3    H151963   2.679   9.525   5.244
17362TIP3    H251964   2.647   9.389   5.187
17363TIP3   OH251965   4.555   9.470   5.370
17363TIP3    H151966   4.583   9.553   5.413
17363TIP3    H251967   4.572   9.492   5.277
17364TIP3   OH251968   3.955   9.658   5.402
17364TIP3    H151969   3.996   9.571   5.423
17364TIP3    H251970   3.918   9.639   5.313
17365TIP3   OH251971   3.294   9.313   5.371
17365TIP3    H151972   3.272   9.387   5.310
17365TIP3    H251973   3.243   9.241   5.328
17366TIP3   OH251974   3.986   9.400   4.997
17366TIP3    H151975   4.061   9.386   5.060
17366TIP3    H251976   4.033   9.439   4.922
17367TIP3   OH251977   2.917   9.499   5.488
17367TIP3    H151978   3.005   9.489   5.529
17367TIP3    H251979   2.934   9.464   5.399
17368TIP3   OH251980   3.384   9.719   5.245
17368TIP3    H151981   3.465   9.680   5.284
17368TIP3    H251982   3.330   9.640   5.226
17369TIP3   OH251983   4.637   9.671   5.546
17369TIP3    H151984   4.561   9.722   5.511
17369TIP3    H251985   4.647   9.711   5.633
17370TIP3   OH251986   3.292   9.294   5.803
17370TIP3    H151987   3.230   9.336   5.741
17370TIP3    H251988   3.243   9.307   5.887
17371TIP3   OH251989   4.200   9.404   5.163
17371TIP3    H151990   4.191   9.357   5.247
17371TIP3    H251991   4.250   9.484   5.190
17372TIP3   OH251992   3.160   9.412   5.591
17372TIP3    H151993   3.219   9.487   5.615
17372TIP3    H251994   3.212   9.372   5.517
17373TIP3   OH251995   4.348   9.373   5.538
17373TIP3    H151996   4.260   9.402   5.508
17373TIP3    H251997   4.406   9.405   5.465
17374TIP3   OH251998   3.650   9.018   5.522
17374TIP3    H151999   3.633   8.923   5.535
17374TIP3    H252000   3.571   9.057   5.565
17375TIP3   OH252001   3.543   9.531   4.524
17375TIP3    H152002   3.592   9.607   4.558
17375TIP3    H252003   3.603   9.500   4.453
17376TIP3   OH252004   4.181   9.893   5.647
17376TIP3    H152005   4.189   9.982   5.609
17376TIP3    H252006   4.089   9.870   5.617
17377TIP3   OH252007   4.279   8.961   4.621
17377TIP3    H152008   4.198   8.980   4.672
17377TIP3    H252009   4.291   9.045   4.572
17378TIP3   OH252010   4.406   9.863   5.829
17378TIP3    H152011   4.328   9.858   5.771
17378TIP3    H252012   4.431   9.768   5.834
17379TIP3   OH252013   3.409   9.093   5.647
17379TIP3    H152014   3.319   9.062   5.622
17379TIP3    H252015   3.384   9.176   5.691
17380TIP3   OH252016   3.938   9.210   5.842
17380TIP3    H152017   4.004   9.180   5.907
17380TIP3    H252018   3.853   9.188   5.884
17381TIP3   OH252019   4.185   9.625   5.765
17381TIP3    H152020   4.134   9.621   5.849
17381TIP3    H252021   4.155   9.708   5.725
17382TIP3   OH252022   3.556   9.139   4.617
17382TIP3    H152023   3.523   9.142   4.709
17382TIP3    H252024   3.515   9.056   4.587
17383TIP3   OH252025   3.335   9.613   5.660
17383TIP3    H152026   3.308   9.622   5.755
17383TIP3    H252027   3.322   9.704   5.629
17384TIP3   OH252028   3.224   9.492   5.181
17384TIP3    H152029   3.131   9.466   5.196
17384TIP3    H252030   3.238   9.456   5.091
17385TIP3   OH252031   3.724   9.581   4.909
17385TIP3    H152032   3.643   9.632   4.887
17385TIP3    H252033   3.764   9.565   4.822
17386TIP3   OH252034   3.897   9.847   5.985
17386TIP3    H152035   3.874   9.774   6.046
17386TIP3    H252036   3.988   9.867   6.015
17387TIP3   OH252037   3.863   9.599   5.149
17387TIP3    H152038   3.804   9.618   5.074
17387TIP3    H252039   3.905   9.519   5.112
17388TIP3   OH252040   3.207   9.112   4.588
17388TIP3    H152041   3.203   9.110   4.686
17388TIP3    H252042   3.128   9.165   4.568
17389TIP3   OH252043   2.750   9.162   5.451
17389TIP3    H152044   2.823   9.194   5.509
17389TIP3    H252045   2.797   9.124   5.376
17390TIP3   OH252046   2.728   9.137   4.975
17390TIP3    H152047   2.774   9.177   4.898
17390TIP3    H252048   2.669   9.211   4.999
17391TIP3   OH252049   3.924   9.845   5.594
17391TIP3    H152050   3.925   9.779   5.520
17391TIP3    H252051   3.852   9.807   5.647
17392TIP3   OH252052   3.548   9.307   5.243
17392TIP3    H152053   3.463   9.312   5.290
17392TIP3    H252054   3.610   9.330   5.314
17393TIP3   OH252055   2.984   9.375   5.246
17393TIP3    H152056   2.889   9.379   5.222
17393TIP3    H252057   3.008   9.283   5.227
17394TIP3   OH252058   3.260   9.368   4.937
17394TIP3    H152059   3.351   9.392   4.912
17394TIP3    H252060   3.207   9.395   4.859
17395TIP3   OH252061   4.040   9.391   5.444
17395TIP3    H152062   4.003   9.403   5.534
17395TIP3    H252063   3.975   9.329   5.406
17396TIP3   OH252064   3.081   9.380   4.721
17396TIP3    H152065   3.018   9.353   4.653
17396TIP3    H252066   3.138   9.442   4.671
17397TIP3   OH252067   3.627   9.620   5.334
17397TIP3    H152068   3.712   9.601   5.290
17397TIP3    H252069   3.648   9.610   5.428
17398TIP3   OH252070   3.156   9.133   5.217
17398TIP3    H152071   3.125   9.051   5.260
17398TIP3    H252072   3.207   9.099   5.142
17399TIP3   OH252073   3.606   9.531   5.637
17399TIP3    H152074   3.516   9.572   5.637
17399TIP3    H252075   3.660   9.599   5.682
17400TIP3   OH252076   3.804   9.253   4.584
17400TIP3    H152077   3.707   9.233   4.593
17400TIP3    H252078   3.809   9.349   4.605
17401TIP3   OH252079   3.874   9.510   4.672
17401TIP3    H152080   3.966   9.498   4.704
17401TIP3    H252081   3.881   9.594   4.625
17402TIP3   OH252082   3.614   9.906   6.114
17402TIP3    H152083   3.530   9.924   6.065
17402TIP3    H252084   3.659   9.856   6.044
17403TIP3   OH252085   4.315   9.570   4.530
17403TIP3    H152086   4.251   9.531   4.466
17403TIP3    H252087   4.320   9.660   4.494
17404TIP3   OH252088   3.145   9.329   6.028
17404TIP3    H152089   3.087   9.407   6.027
17404TIP3    H252090   3.134   9.294   6.117
17405TIP3   OH252091   3.963   9.448   5.704
17405TIP3    H152092   4.047   9.479   5.742
17405TIP3    H252093   3.947   9.365   5.754
17406TIP3   OH252094   3.849   9.195   4.863
17406TIP3    H152095   3.832   9.221   4.771
17406TIP3    H252096   3.886   9.277   4.902
17407TIP3   OH252097   3.547   9.370   4.969
17407TIP3    H152098   3.612   9.442   4.954
17407TIP3    H252099   3.543   9.367   5.067
17408TIP3   OH252100   3.794   9.687   5.774
17408TIP3    H152101   3.825   9.740   5.850
17408TIP3    H252102   3.850   9.608   5.777
17409TIP3   OH252103   3.685   9.105   5.076
17409TIP3    H152104   3.667   9.184   5.131
17409TIP3    H252105   3.743   9.143   5.006
17410TIP3   OH252106   3.194   9.098   4.863
17410TIP3    H152107   3.189   9.191   4.893
17410TIP3    H252108   3.290   9.082   4.873
17411TIP3   OH252109   4.453   9.594   5.762
17411TIP3    H152110   4.355   9.588   5.768
17411TIP3    H252111   4.466   9.564   5.671
17412TIP3   OH252112   4.090   9.772   5.129
17412TIP3    H152113   4.019   9.714   5.160
17412TIP3    H252114   4.165   9.746   5.186
17413TIP3   OH252115   2.752   9.293   4.750
17413TIP3    H152116   2.766   9.388   4.740
17413TIP3    H252117   2.667   9.277   4.707
17414TIP3   OH252118   3.145   9.011   5.623
17414TIP3    H152119   3.111   8.980   5.537
17414TIP3    H252120   3.132   8.933   5.680
17415TIP3   OH252121   3.103   9.914   6.224
17415TIP3    H152122   3.142   9.826   6.217
17415TIP3    H252123   3.122   9.944   6.315
17416TIP3   OH252124   3.265   9.516   4.575
17416TIP3    H152125   3.227   9.482   4.492
17416TIP3    H252126   3.362   9.515   4.560
17417TIP3   OH252127   3.548   9.583   6.036
17417TIP3    H152128   3.552   9.499   5.985
17417TIP3    H252129   3.461   9.616   6.005
17418TIP3   OH252130   3.550   9.364   5.853
17418TIP3    H152131   3.573   9.412   5.771
17418TIP3    H252132   3.454   9.347   5.837
17419TIP3   OH252133   4.168   9.883   6.100
17419TIP3    H152134   4.192   9.791   6.121
17419TIP3    H252135   4.255   9.919   6.076
17420TIP3   OH252136   3.426   9.695   6.279
17420TIP3    H152137   3.350   9.633   6.278
17420TIP3    H252138   3.448   9.697   6.184
17421TIP3   OH252139   3.681   9.135   5.922
17421TIP3    H152140   3.633   9.217   5.894
17421TIP3    H252141   3.612   9.067   5.905
17422TIP3   OH252142   3.805   9.638   6.134
17422TIP3    H152143   3.786   9.639   6.229
17422TIP3    H252144   3.715   9.618   6.099
17423TIP3   OH252145   4.049   9.584   5.994
17423TIP3    H152146   3.969   9.584   6.051
17423TIP3    H252147   4.119   9.552   6.054
17424TIP3   OH252148   4.282   9.531   6.147
17424TIP3    H152149   4.289   9.435   6.166
17424TIP3    H252150   4.274   9.571   6.236
17425TIP3   OH252151   3.250   9.485   6.331
17425TIP3    H152152   3.256   9.398   6.287
17425TIP3    H252153   3.287   9.464   6.418
17426TIP3   OH252154   3.768   9.142   6.180
17426TIP3    H152155   3.838   9.073   6.171
17426TIP3    H252156   3.732   9.139   6.089
17427TIP3   OH252157   3.836   9.362   6.332
17427TIP3    H152158   3.815   9.295   6.263
17427TIP3    H252159   3.762   9.426   6.325
17428TIP3   OH252160   4.144   9.498   4.328
17428TIP3    H152161   4.121   9.520   4.237
17428TIP3    H252162   4.121   9.402   4.329
17429TIP3   OH252163   4.183   9.747   4.877
17429TIP3    H152164   4.180   9.651   4.888
17429TIP3    H252165   4.159   9.776   4.968
17430TIP3   OH252166   4.619  10.022   5.771
17430TIP3    H152167   4.543   9.964   5.790
17430TIP3    H252168   4.691   9.957   5.766
17431TIP3   OH252169   4.090   9.232   4.325
17431TIP3    H152170   4.167   9.197   4.376
17431TIP3    H252171   4.018   9.171   4.347
17432TIP3   OH252172   4.139   9.475   4.772
17432TIP3    H152173   4.184   9.387   4.786
17432TIP3    H252174   4.200   9.514   4.707
17433TIP3   OH252175   4.310   9.654   5.260
17433TIP3    H152176   4.393   9.686   5.217
17433TIP3    H252177   4.326   9.692   5.348
17434TIP3   OH252178   4.386   9.785   5.490
17434TIP3    H152179   4.307   9.817   5.538
17434TIP3    H252180   4.434   9.869   5.473
17435TIP3   OH252181   2.982   9.537   6.297
17435TIP3    H152182   3.080   9.533   6.292
17435TIP3    H252183   2.964   9.452   6.342
17436TIP3   OH252184   4.829   9.388   6.057
17436TIP3    H152185   4.888   9.325   6.011
17436TIP3    H252186   4.801   9.448   5.984
17437TIP3   OH252187   4.260   9.231   4.810
17437TIP3    H152188   4.306   9.217   4.895
17437TIP3    H252189   4.197   9.155   4.809
17438TIP3   OH252190   2.956   9.216   5.629
17438TIP3    H152191   3.024   9.147   5.641
17438TIP3    H252192   3.012   9.296   5.624
17439TIP3   OH252193   2.758   9.501   5.708
17439TIP3    H152194   2.807   9.492   5.623
17439TIP3    H252195   2.786   9.590   5.734
17440TIP3   OH252196   4.704   9.535   5.866
17440TIP3    H152197   4.614   9.573   5.879
17440TIP3    H252198   4.681   9.465   5.803
17441TIP3   OH252199   4.341   9.170   4.441
17441TIP3    H152200   4.380   9.097   4.390
17441TIP3    H252201   4.408   9.240   4.434
17442TIP3   OH252202   2.743   8.994   5.202
17442TIP3    H152203   2.650   8.996   5.230
17442TIP3    H252204   2.743   9.053   5.124
17443TIP3   OH252205   2.960   9.066   6.018
17443TIP3    H152206   2.908   9.070   6.099
17443TIP3    H252207   2.902   9.115   5.957
17444TIP3   OH252208   4.599   9.297   5.741
17444TIP3    H152209   4.509   9.297   5.704
17444TIP3    H252210   4.627   9.204   5.725
17445TIP3   OH252211   3.815   9.214   5.366
17445TIP3    H152212   3.761   9.147   5.412
17445TIP3    H252213   3.873   9.159   5.311
17446TIP3   OH252214   4.332   9.092   5.266
17446TIP3    H152215   4.367   9.144   5.191
17446TIP3    H252216   4.236   9.107   5.258
17447TIP3   OH252217   4.425   9.191   5.028
17447TIP3    H152218   4.498   9.141   4.985
17447TIP3    H252219   4.456   9.283   5.013
17448TIP3   OH252220   3.054   8.920   5.375
17448TIP3    H152221   2.962   8.886   5.376
17448TIP3    H252222   3.104   8.835   5.372
17449TIP3   OH252223   2.836   8.789   5.019
17449TIP3    H152224   2.869   8.848   4.949
17449TIP3    H252225   2.809   8.853   5.089
17450TIP3   OH252226   3.498   8.951   5.254
17450TIP3    H152227   3.556   9.005   5.198
17450TIP3    H252228   3.508   8.993   5.340
17451TIP3   OH252229   4.054   9.097   5.238
17451TIP3    H152230   4.038   9.065   5.148
17451TIP3    H252231   4.034   9.017   5.292
17452TIP3   OH252232   4.074   9.020   4.801
17452TIP3    H152233   3.988   9.064   4.811
17452TIP3    H252234   4.058   8.935   4.848
17453TIP3   OH252235   2.956   8.951   4.786
17453TIP3    H152236   3.006   8.889   4.730
17453TIP3    H252237   3.028   9.006   4.823
17454TIP3   OH252238   3.471   9.123   4.884
17454TIP3    H152239   3.530   9.078   4.946
17454TIP3    H252240   3.490   9.216   4.909
17455TIP3   OH252241   3.256   9.207   6.287
17455TIP3    H152242   3.231   9.123   6.330
17455TIP3    H252243   3.344   9.191   6.252
17456TIP3   OH252244   3.568   9.149   6.435
17456TIP3    H152245   3.602   9.175   6.347
17456TIP3    H252246   3.483   9.108   6.411
17457TIP3   OH252247   4.334   9.258   6.174
17457TIP3    H152248   4.356   9.228   6.264
17457TIP3    H252249   4.422   9.257   6.129
17458TIP3   OH252250   4.518   9.704   4.689
17458TIP3    H152251   4.473   9.780   4.729
17458TIP3    H252252   4.443   9.645   4.670
17459TIP3   OH252253   6.348   9.729   4.856
17459TIP3    H152254   6.379   9.810   4.901
17459TIP3    H252255   6.372   9.749   4.764
17460TIP3   OH252256   5.745   9.908   4.890
17460TIP3    H152257   5.794   9.825   4.906
17460TIP3    H252258   5.713   9.892   4.799
17461TIP3   OH252259   5.090   9.569   4.858
17461TIP3    H152260   5.068   9.643   4.797
17461TIP3    H252261   5.040   9.497   4.813
17462TIP3   OH252262   5.781   9.657   4.484
17462TIP3    H152263   5.856   9.644   4.547
17462TIP3    H252264   5.830   9.695   4.409
17463TIP3   OH252265   4.711   9.754   4.976
17463TIP3    H152266   4.800   9.747   5.015
17463TIP3    H252267   4.728   9.721   4.886
17464TIP3   OH252268   5.177   9.973   4.743
17464TIP3    H152269   5.260   9.932   4.773
17464TIP3    H252270   5.124   9.897   4.715
17465TIP3   OH252271   6.433   9.927   5.030
17465TIP3    H152272   6.356   9.980   5.000
17465TIP3    H252273   6.443   9.961   5.120
17466TIP3   OH252274   5.088   9.555   5.296
17466TIP3    H152275   5.028   9.588   5.226
17466TIP3    H252276   5.034   9.575   5.375
17467TIP3   OH252277   5.994   9.663   4.652
17467TIP3    H152278   6.002   9.610   4.732
17467TIP3    H252279   6.047   9.742   4.676
17468TIP3   OH252280   4.956   9.659   5.078
17468TIP3    H152281   5.010   9.740   5.094
17468TIP3    H252282   5.005   9.621   5.002
17469TIP3   OH252283   6.145   9.625   5.020
17469TIP3    H152284   6.061   9.667   4.997
17469TIP3    H252285   6.206   9.660   4.952
17470TIP3   OH252286   5.447   9.274   5.012
17470TIP3    H152287   5.429   9.179   5.021
17470TIP3    H252288   5.366   9.312   5.053
17471TIP3   OH252289   5.341   9.789   4.011
17471TIP3    H152290   5.391   9.863   4.047
17471TIP3    H252291   5.400   9.757   3.940
17472TIP3   OH252292   5.976  10.153   5.133
17472TIP3    H152293   5.986  10.241   5.093
17472TIP3    H252294   5.884  10.132   5.105
17473TIP3   OH252295   6.075   9.217   4.108
17473TIP3    H152296   5.994   9.238   4.159
17473TIP3    H252297   6.088   9.301   4.058
17474TIP3   OH252298   6.203  10.121   5.316
17474TIP3    H152299   6.126  10.108   5.256
17474TIP3    H252300   6.230  10.028   5.328
17475TIP3   OH252301   5.205   9.349   5.134
17475TIP3    H152302   5.115   9.318   5.109
17475TIP3    H252303   5.180   9.434   5.176
17476TIP3   OH252304   5.991   9.886   5.246
17476TIP3    H152305   5.931   9.860   5.319
17476TIP3    H252306   5.952   9.968   5.214
17477TIP3   OH252307   5.354   9.396   4.104
17477TIP3    H152308   5.318   9.399   4.195
17477TIP3    H252309   5.311   9.313   4.073
17478TIP3   OH252310   5.129   9.865   5.122
17478TIP3    H152311   5.102   9.878   5.216
17478TIP3    H252312   5.108   9.951   5.084
17479TIP3   OH252313   5.021   9.749   4.668
17479TIP3    H152314   4.927   9.724   4.683
17479TIP3    H252315   5.034   9.713   4.577
17480TIP3   OH252316   5.522   9.838   4.396
17480TIP3    H152317   5.440   9.889   4.374
17480TIP3    H252318   5.561   9.821   4.309
17481TIP3   OH252319   5.668  10.096   5.509
17481TIP3    H152320   5.682  10.000   5.528
17481TIP3    H252321   5.761  10.122   5.498
17482TIP3   OH252322   5.659   9.856   4.636
17482TIP3    H152323   5.601   9.875   4.559
17482TIP3    H252324   5.701   9.776   4.598
17483TIP3   OH252325   4.918   9.882   5.372
17483TIP3    H152326   4.954   9.936   5.442
17483TIP3    H252327   4.918   9.794   5.412
17484TIP3   OH252328   5.004   9.370   4.075
17484TIP3    H152329   4.997   9.368   4.173
17484TIP3    H252330   4.925   9.422   4.052
17485TIP3   OH252331   4.545   9.416   4.941
17485TIP3    H152332   4.619   9.450   4.996
17485TIP3    H252333   4.589   9.383   4.861
17486TIP3   OH252334   4.526   9.395   4.462
17486TIP3    H152335   4.569   9.436   4.384
17486TIP3    H252336   4.464   9.467   4.486
17487TIP3   OH252337   5.720  10.102   5.072
17487TIP3    H152338   5.720  10.032   5.002
17487TIP3    H252339   5.652  10.064   5.132
17488TIP3   OH252340   5.345   9.561   4.730
17488TIP3    H152341   5.258   9.567   4.775
17488TIP3    H252342   5.404   9.591   4.801
17489TIP3   OH252343   4.780   9.632   4.733
17489TIP3    H152344   4.685   9.638   4.709
17489TIP3    H252345   4.802   9.539   4.712
17490TIP3   OH252346   5.057   9.625   4.424
17490TIP3    H152347   5.146   9.650   4.396
17490TIP3    H252348   5.001   9.650   4.347
17491TIP3   OH252349   5.833   9.648   4.934
17491TIP3    H152350   5.788   9.640   5.019
17491TIP3    H252351   5.781   9.584   4.881
17492TIP3   OH252352   4.879   9.636   4.211
17492TIP3    H152353   4.815   9.607   4.143
17492TIP3    H252354   4.935   9.697   4.159
17493TIP3   OH252355   5.424   9.871   4.818
17493TIP3    H152356   5.508   9.862   4.771
17493TIP3    H252357   5.451   9.874   4.911
17494TIP3   OH252358   4.956   9.389   4.704
17494TIP3    H152359   4.922   9.307   4.746
17494TIP3    H252360   5.000   9.355   4.624
17495TIP3   OH252361   5.407   9.788   5.131
17495TIP3    H152362   5.321   9.829   5.111
17495TIP3    H252363   5.460   9.862   5.166
17496TIP3   OH252364   5.600   9.510   4.071
17496TIP3    H152365   5.504   9.490   4.080
17496TIP3    H252366   5.605   9.606   4.092
17497TIP3   OH252367   5.671   9.767   4.159
17497TIP3    H152368   5.762   9.754   4.191
17497TIP3    H252369   5.678   9.852   4.113
17498TIP3   OH252370   5.383  10.168   5.562
17498TIP3    H152371   5.406  10.263   5.562
17498TIP3    H252372   5.469  10.129   5.539
17499TIP3   OH252373   6.110   9.827   4.018
17499TIP3    H152374   6.046   9.788   3.954
17499TIP3    H252375   6.117   9.916   3.981
17500TIP3   OH252376   4.926   9.631   5.511
17500TIP3    H152377   4.830   9.637   5.522
17500TIP3    H252378   4.951   9.571   5.583
17501TIP3   OH252379   5.645   9.451   4.350
17501TIP3    H152380   5.627   9.477   4.258
17501TIP3    H252381   5.682   9.534   4.389
17502TIP3   OH252382   5.346   9.626   4.456
17502TIP3    H152383   5.409   9.699   4.440
17502TIP3    H252384   5.340   9.625   4.554
17503TIP3   OH252385   5.592   9.956   5.263
17503TIP3    H152386   5.581  10.020   5.335
17503TIP3    H252387   5.660   9.898   5.304
17504TIP3   OH252388   5.481   9.362   4.563
17504TIP3    H152389   5.459   9.442   4.616
17504TIP3    H252390   5.539   9.400   4.494
17505TIP3   OH252391   4.989   9.354   4.351
17505TIP3    H152392   4.984   9.448   4.378
17505TIP3    H252393   5.086   9.340   4.359
17506TIP3   OH252394   6.255   9.851   5.247
17506TIP3    H152395   6.157   9.847   5.255
17506TIP3    H252396   6.266   9.819   5.157
17507TIP3   OH252397   5.885  10.030   4.617
17507TIP3    H152398   5.816   9.968   4.646
17507TIP3    H252399   5.961  10.005   4.672
17508TIP3   OH252400   4.546   9.550   4.237
17508TIP3    H152401   4.561   9.645   4.225
17508TIP3    H252402   4.461   9.533   4.195
17509TIP3   OH252403   4.943   9.268   5.110
17509TIP3    H152404   4.907   9.238   5.024
17509TIP3    H252405   4.928   9.190   5.167
17510TIP3   OH252406   4.920  10.154   5.716
17510TIP3    H152407   4.959  10.073   5.749
17510TIP3    H252408   4.909  10.209   5.797
17511TIP3   OH252409   5.201   9.953   5.371
17511TIP3    H152410   5.160  10.035   5.409
17511TIP3    H252411   5.238   9.994   5.291
17512TIP3   OH252412   5.062   9.771   4.063
17512TIP3    H152413   5.022   9.740   3.979
17512TIP3    H252414   5.158   9.772   4.044
17513TIP3   OH252415   5.340   9.817   5.551
17513TIP3    H152416   5.346   9.735   5.500
17513TIP3    H252417   5.293   9.873   5.486
17514TIP3   OH252418   5.349   9.621   5.340
17514TIP3    H152419   5.368   9.676   5.260
17514TIP3    H252420   5.253   9.603   5.327
17515TIP3   OH252421   5.967  10.140   5.589
17515TIP3    H152422   5.977  10.045   5.608
17515TIP3    H252423   6.058  10.164   5.566
17516TIP3   OH252424   5.204   9.963   5.754
17516TIP3    H152425   5.146   9.886   5.769
17516TIP3    H252426   5.255   9.932   5.676
17517TIP3   OH252427   5.488   9.396   5.388
17517TIP3    H152428   5.429   9.472   5.367
17517TIP3    H252429   5.424   9.322   5.383
17518TIP3   OH252430   6.127   9.784   5.646
17518TIP3    H152431   6.092   9.694   5.651
17518TIP3    H252432   6.085   9.828   5.722
17519TIP3   OH252433   5.055   9.737   5.814
17519TIP3    H152434   5.067   9.648   5.775
17519TIP3    H252435   5.093   9.724   5.903
17520TIP3   OH252436   5.586   9.417   5.639
17520TIP3    H152437   5.645   9.340   5.653
17520TIP3    H252438   5.535   9.385   5.562
17521TIP3   OH252439   5.636   9.616   5.822
17521TIP3    H152440   5.608   9.546   5.759
17521TIP3    H252441   5.560   9.679   5.820
17522TIP3   OH252442   5.938   9.756   3.817
17522TIP3    H152443   5.918   9.778   3.725
17522TIP3    H252444   5.916   9.660   3.817
17523TIP3   OH252445   5.977  10.005   4.364
17523TIP3    H152446   5.977   9.909   4.376
17523TIP3    H252447   5.954  10.034   4.455
17524TIP3   OH252448   6.414  10.279   5.253
17524TIP3    H152449   6.340  10.219   5.275
17524TIP3    H252450   6.488  10.215   5.252
17525TIP3   OH252451   5.886   9.490   3.811
17525TIP3    H152452   5.963   9.455   3.859
17525TIP3    H252453   5.815   9.428   3.833
17526TIP3   OH252454   5.935   9.731   4.259
17526TIP3    H152455   5.980   9.644   4.272
17526TIP3    H252456   5.996   9.771   4.194
17527TIP3   OH252457   6.104   9.913   4.745
17527TIP3    H152458   6.188   9.943   4.703
17527TIP3    H252459   6.122   9.950   4.834
17528TIP3   OH252460   6.181  10.042   4.975
17528TIP3    H152461   6.104  10.073   5.026
17528TIP3    H252462   6.230  10.126   4.960
17529TIP3   OH252463   4.786   9.794   5.789
17529TIP3    H152464   4.883   9.785   5.785
17529TIP3    H252465   4.763   9.708   5.830
17530TIP3   OH252466   6.623   9.645   5.543
17530TIP3    H152467   6.683   9.581   5.500
17530TIP3    H252468   6.599   9.705   5.469
17531TIP3   OH252469   6.055   9.488   4.297
17531TIP3    H152470   6.103   9.474   4.380
17531TIP3    H252471   5.994   9.412   4.297
17532TIP3   OH252472   4.751   9.471   5.119
17532TIP3    H152473   4.820   9.402   5.127
17532TIP3    H252474   4.806   9.551   5.110
17533TIP3   OH252475   4.556   9.758   5.199
17533TIP3    H152476   4.603   9.747   5.113
17533TIP3    H252477   4.581   9.848   5.221
17534TIP3   OH252478   6.504   9.793   5.350
17534TIP3    H152479   6.415   9.829   5.370
17534TIP3    H252480   6.478   9.721   5.290
17535TIP3   OH252481   6.136   9.427   3.926
17535TIP3    H152482   6.177   9.354   3.877
17535TIP3    H252483   6.204   9.497   3.922
17536TIP3   OH252484   4.540   9.253   4.691
17536TIP3    H152485   4.446   9.253   4.717
17536TIP3    H252486   4.539   9.311   4.612
17537TIP3   OH252487   4.759   9.331   5.506
17537TIP3    H152488   4.707   9.331   5.587
17537TIP3    H252489   4.696   9.373   5.444
17538TIP3   OH252490   6.397   9.554   5.226
17538TIP3    H152491   6.305   9.551   5.194
17538TIP3    H252492   6.426   9.461   5.213
17539TIP3   OH252493   5.614   9.470   4.859
17539TIP3    H152494   5.557   9.401   4.899
17539TIP3    H252495   5.669   9.419   4.798
17540TIP3   OH252496   6.127   9.345   4.750
17540TIP3    H152497   6.164   9.399   4.677
17540TIP3    H252498   6.032   9.365   4.744
17541TIP3   OH252499   6.220   9.449   4.515
17541TIP3    H152500   6.293   9.398   4.474
17541TIP3    H252501   6.254   9.541   4.500
17542TIP3   OH252502   4.851   9.177   4.863
17542TIP3    H152503   4.758   9.144   4.862
17542TIP3    H252504   4.899   9.092   4.859
17543TIP3   OH252505   4.638   9.045   4.508
17543TIP3    H152506   4.666   9.104   4.436
17543TIP3    H252507   4.606   9.109   4.575
17544TIP3   OH252508   5.296   9.206   4.740
17544TIP3    H152509   5.352   9.261   4.684
17544TIP3    H252510   5.302   9.251   4.825
17545TIP3   OH252511   5.846   9.355   4.726
17545TIP3    H152512   5.835   9.323   4.636
17545TIP3    H252513   5.828   9.274   4.779
17546TIP3   OH252514   5.870   9.276   4.288
17546TIP3    H152515   5.784   9.320   4.297
17546TIP3    H252516   5.853   9.191   4.335
17547TIP3   OH252517   4.752   9.205   4.274
17547TIP3    H152518   4.802   9.145   4.217
17547TIP3    H252519   4.823   9.262   4.310
17548TIP3   OH252520   5.267   9.379   4.371
17548TIP3    H152521   5.326   9.334   4.433
17548TIP3    H252522   5.286   9.473   4.395
17549TIP3   OH252523   5.057   9.455   5.751
17549TIP3    H152524   5.024   9.387   5.811
17549TIP3    H252525   5.151   9.459   5.778
17550TIP3   OH252526   5.303   9.451   5.871
17550TIP3    H152527   5.392   9.435   5.837
17550TIP3    H252528   5.294   9.380   5.938
17551TIP3   OH252529   6.126   9.503   5.658
17551TIP3    H152530   6.149   9.481   5.751
17551TIP3    H252531   6.214   9.512   5.617
17552TIP3   OH252532   6.313   9.961   4.175
17552TIP3    H152533   6.270  10.037   4.217
17552TIP3    H252534   6.238   9.902   4.158
17553TIP3   OH252535   7.545  10.179   4.380
17553TIP3    H152536   7.586  10.093   4.400
17553TIP3    H252537   7.521  10.166   4.286
17554TIP3   OH252538   6.883   9.826   4.345
17554TIP3    H152539   6.865   9.900   4.283
17554TIP3    H252540   6.835   9.753   4.300
17555TIP3   OH252541   7.577   9.911   3.975
17555TIP3    H152542   7.647   9.894   4.043
17555TIP3    H252543   7.633   9.948   3.907
17556TIP3   OH252544   6.509  10.012   4.461
17556TIP3    H152545   6.596  10.001   4.502
17556TIP3    H252546   6.525   9.977   4.372
17557TIP3   OH252547   6.972  10.229   4.230
17557TIP3    H152548   7.057  10.191   4.260
17557TIP3    H252549   6.921  10.151   4.202
17558TIP3   OH252550   6.881   9.811   4.780
17558TIP3    H152551   6.820   9.844   4.712
17558TIP3    H252552   6.829   9.829   4.861
17559TIP3   OH252553   7.796   9.919   4.140
17559TIP3    H152554   7.783   9.858   4.214
17559TIP3    H252555   7.878   9.965   4.165
17560TIP3   OH252556   6.750   9.918   4.564
17560TIP3    H152557   6.807   9.996   4.581
17560TIP3    H252558   6.799   9.877   4.489
17561TIP3   OH252559   7.940   9.893   4.505
17561TIP3    H152560   7.846   9.915   4.492
17561TIP3    H252561   7.977   9.912   4.417
17562TIP3   OH252562   7.240   9.531   4.492
17562TIP3    H152563   7.228   9.436   4.509
17562TIP3    H252564   7.162   9.568   4.538
17563TIP3   OH252565   7.130  10.045   3.491
17563TIP3    H152566   7.187  10.104   3.541
17563TIP3    H252567   7.191  10.008   3.425
17564TIP3   OH252568   7.867   9.478   3.595
17564TIP3    H152569   7.792   9.491   3.657
17564TIP3    H252570   7.861   9.557   3.541
17565TIP3   OH252571   7.000   9.605   4.620
17565TIP3    H152572   6.910   9.575   4.597
17565TIP3    H252573   6.978   9.690   4.663
17566TIP3   OH252574   7.532   9.723   4.815
17566TIP3    H152575   7.599   9.694   4.879
17566TIP3    H252576   7.448   9.700   4.860
17567TIP3   OH252577   7.781  10.148   4.735
17567TIP3    H152578   7.736  10.139   4.822
17567TIP3    H252579   7.738  10.225   4.697
17568TIP3   OH252580   7.148   9.656   3.591
17568TIP3    H152581   7.115   9.655   3.683
17568TIP3    H252582   7.110   9.572   3.559
17569TIP3   OH252583   6.923  10.124   4.615
17569TIP3    H152584   6.886  10.135   4.705
17569TIP3    H252585   6.905  10.210   4.574
17570TIP3   OH252586   6.816  10.006   4.154
17570TIP3    H152587   6.723   9.979   4.170
17570TIP3    H252588   6.830   9.968   4.065
17571TIP3   OH252589   7.319  10.097   3.883
17571TIP3    H152590   7.236  10.144   3.861
17571TIP3    H252591   7.357  10.075   3.796
17572TIP3   OH252592   7.483  10.368   4.966
17572TIP3    H152593   7.459  10.290   5.021
17572TIP3    H252594   7.580  10.365   4.973
17573TIP3   OH252595   7.450  10.117   4.125
17573TIP3    H152596   7.396  10.130   4.045
17573TIP3    H252597   7.500  10.038   4.094
17574TIP3   OH252598   6.719  10.142   4.859
17574TIP3    H152599   6.753  10.190   4.934
17574TIP3    H252600   6.713  10.052   4.896
17575TIP3   OH252601   6.799   9.626   3.561
17575TIP3    H152602   6.796   9.624   3.659
17575TIP3    H252603   6.719   9.678   3.541
17576TIP3   OH252604   6.342   9.673   4.427
17576TIP3    H152605   6.415   9.707   4.484
17576TIP3    H252606   6.388   9.639   4.349
17577TIP3   OH252607   6.320   9.651   3.949
17577TIP3    H152608   6.366   9.690   3.871
17577TIP3    H252609   6.261   9.724   3.973
17578TIP3   OH252610   7.487  10.371   4.571
17578TIP3    H152611   7.515  10.309   4.501
17578TIP3    H252612   7.436  10.310   4.627
17579TIP3   OH252613   7.139   9.823   4.214
17579TIP3    H152614   7.056   9.826   4.267
17579TIP3    H252615   7.205   9.841   4.283
17580TIP3   OH252616   6.576   9.888   4.220
17580TIP3    H152617   6.481   9.892   4.195
17580TIP3    H252618   6.601   9.796   4.199
17581TIP3   OH252619   6.851   9.880   3.912
17581TIP3    H152620   6.943   9.903   3.889
17581TIP3    H252621   6.800   9.908   3.833
17582TIP3   OH252622   7.633   9.906   4.421
17582TIP3    H152623   7.594   9.918   4.510
17582TIP3    H252624   7.569   9.845   4.381
17583TIP3   OH252625   6.674   9.895   3.695
17583TIP3    H152626   6.611   9.866   3.626
17583TIP3    H252627   6.729   9.957   3.644
17584TIP3   OH252628   7.220  10.133   4.305
17584TIP3    H152629   7.305  10.123   4.259
17584TIP3    H252630   7.246  10.125   4.398
17585TIP3   OH252631   6.748   9.647   4.189
17585TIP3    H152632   6.719   9.564   4.233
17585TIP3    H252633   6.803   9.614   4.116
17586TIP3   OH252634   7.199  10.039   4.614
17586TIP3    H152635   7.114  10.085   4.600
17586TIP3    H252636   7.256  10.108   4.654
17587TIP3   OH252637   7.395   9.765   3.564
17587TIP3    H152638   7.300   9.738   3.569
17587TIP3    H252639   7.391   9.861   3.581
17588TIP3   OH252640   7.467  10.028   3.644
17588TIP3    H152641   7.555   9.991   3.658
17588TIP3    H252642   7.481  10.084   3.567
17589TIP3   OH252643   7.210  10.449   5.080
17589TIP3    H152644   7.135  10.479   5.026
17589TIP3    H252645   7.246  10.377   5.025
17590TIP3   OH252646   6.723   9.889   4.997
17590TIP3    H152647   6.626   9.894   5.011
17590TIP3    H252648   6.751   9.830   5.068
17591TIP3   OH252649   7.554   9.964   4.681
17591TIP3    H152650   7.639   9.992   4.718
17591TIP3    H252651   7.539   9.879   4.729
17592TIP3   OH252652   7.434   9.709   3.840
17592TIP3    H152653   7.425   9.732   3.746
17592TIP3    H252654   7.478   9.787   3.879
17593TIP3   OH252655   7.137   9.887   3.944
17593TIP3    H152656   7.206   9.954   3.934
17593TIP3    H252657   7.133   9.877   4.042
17594TIP3   OH252658   7.385  10.196   4.753
17594TIP3    H152659   7.420  10.249   4.826
17594TIP3    H252660   7.443  10.118   4.753
17595TIP3   OH252661   7.274   9.616   4.049
17595TIP3    H152662   7.265   9.692   4.109
17595TIP3    H252663   7.332   9.654   3.980
17596TIP3   OH252664   6.786   9.611   3.836
17596TIP3    H152665   6.782   9.704   3.867
17596TIP3    H252666   6.882   9.594   3.846
17597TIP3   OH252667   8.059  10.115   4.710
17597TIP3    H152668   7.965  10.128   4.735
17597TIP3    H252669   8.049  10.057   4.634
17598TIP3   OH252670   6.343   9.806   3.725
17598TIP3    H152671   6.358   9.901   3.713
17598TIP3    H252672   6.259   9.790   3.680
17599TIP3   OH252673   6.735   9.525   4.598
17599TIP3    H152674   6.703   9.493   4.511
17599TIP3    H252675   6.724   9.446   4.655
17600TIP3   OH252676   6.716  10.410   5.202
17600TIP3    H152677   6.752  10.328   5.238
17600TIP3    H252678   6.703  10.465   5.282
17601TIP3   OH252679   6.998  10.219   4.863
17601TIP3    H152680   6.960  10.302   4.897
17601TIP3    H252681   7.027  10.245   4.774
17602TIP3   OH252682   6.856  10.033   3.546
17602TIP3    H152683   6.817   9.993   3.465
17602TIP3    H252684   6.952  10.028   3.531
17603TIP3   OH252685   7.145  10.076   5.032
17603TIP3    H152686   7.153   9.991   4.984
17603TIP3    H252687   7.089  10.124   4.966
17604TIP3   OH252688   7.141   9.877   4.830
17604TIP3    H152689   7.167   9.924   4.748
17604TIP3    H252690   7.046   9.858   4.811
17605TIP3   OH252691   7.002  10.218   5.233
17605TIP3    H152692   6.940  10.146   5.257
17605TIP3    H252693   7.049  10.177   5.158
17606TIP3   OH252694   7.274   9.646   4.891
17606TIP3    H152695   7.225   9.729   4.869
17606TIP3    H252696   7.204   9.579   4.879
17607TIP3   OH252697   7.395  10.159   5.109
17607TIP3    H152698   7.392  10.146   5.205
17607TIP3    H252699   7.306  10.124   5.086
17608TIP3   OH252700   7.641  10.106   4.965
17608TIP3    H152701   7.565  10.093   5.025
17608TIP3    H252702   7.715  10.079   5.023
17609TIP3   OH252703   7.850  10.042   5.130
17609TIP3    H152704   7.874   9.948   5.135
17609TIP3    H252705   7.833  10.065   5.222
17610TIP3   OH252706   6.853   9.993   5.298
17610TIP3    H152707   6.861   9.902   5.263
17610TIP3    H252708   6.888   9.980   5.388
17611TIP3   OH252709   7.369   9.659   5.148
17611TIP3    H152710   7.436   9.588   5.144
17611TIP3    H252711   7.329   9.651   5.059
17612TIP3   OH252712   7.431   9.872   5.309
17612TIP3    H152713   7.410   9.801   5.244
17612TIP3    H252714   7.352   9.931   5.300
17613TIP3   OH252715   7.665   9.772   3.316
17613TIP3    H152716   7.757   9.743   3.335
17613TIP3    H252717   7.616   9.689   3.314
17614TIP3   OH252718   6.583  10.052   5.275
17614TIP3    H152719   6.680  10.044   5.273
17614TIP3    H252720   6.560   9.966   5.315
17615TIP3   OH252721   7.822   9.757   3.800
17615TIP3    H152722   7.884   9.737   3.873
17615TIP3    H252723   7.772   9.673   3.794
17616TIP3   OH252724   6.546   9.729   4.607
17616TIP3    H152725   6.613   9.659   4.615
17616TIP3    H252726   6.603   9.807   4.597
17617TIP3   OH252727   6.350  10.014   4.683
17617TIP3    H152728   6.399  10.004   4.598
17617TIP3    H252729   6.378  10.103   4.708
17618TIP3   OH252730   6.335   9.508   4.176
17618TIP3    H152731   6.241   9.510   4.203
17618TIP3    H252732   6.336   9.567   4.098
17619TIP3   OH252733   6.555   9.590   4.991
17619TIP3    H152734   6.505   9.588   5.075
17619TIP3    H252735   6.489   9.630   4.931
17620TIP3   OH252736   8.195   9.807   4.717
17620TIP3    H152737   8.109   9.811   4.674
17620TIP3    H252738   8.227   9.718   4.691
17621TIP3   OH252739   7.403   9.725   4.332
17621TIP3    H152740   7.354   9.658   4.382
17621TIP3    H252741   7.470   9.673   4.285
17622TIP3   OH252742   7.921   9.618   4.242
17622TIP3    H152743   7.959   9.660   4.162
17622TIP3    H252744   7.825   9.622   4.225
17623TIP3   OH252745   8.020   9.718   3.999
17623TIP3    H152746   8.082   9.650   3.961
17623TIP3    H252747   8.073   9.797   3.989
17624TIP3   OH252748   6.647   9.433   4.350
17624TIP3    H152749   6.555   9.400   4.349
17624TIP3    H252750   6.697   9.349   4.347
17625TIP3   OH252751   6.430   9.301   3.994
17625TIP3    H152752   6.463   9.359   3.923
17625TIP3    H252753   6.402   9.366   4.062
17626TIP3   OH252754   7.088   9.466   4.229
17626TIP3    H152755   7.147   9.517   4.170
17626TIP3    H252756   7.109   9.504   4.315
17627TIP3   OH252757   7.641   9.611   4.209
17627TIP3    H152758   7.638   9.571   4.121
17627TIP3    H252759   7.626   9.532   4.266
17628TIP3   OH252760   7.661   9.530   3.774
17628TIP3    H152761   7.572   9.568   3.785
17628TIP3    H252762   7.650   9.444   3.821
17629TIP3   OH252763   6.548   9.462   3.760
17629TIP3    H152764   6.599   9.401   3.704
17629TIP3    H252765   6.620   9.518   3.797
17630TIP3   OH252766   7.063   9.637   3.857
17630TIP3    H152767   7.123   9.591   3.919
17630TIP3    H252768   7.082   9.730   3.884
17631TIP3   OH252769   6.854   9.714   5.239
17631TIP3    H152770   6.821   9.644   5.298
17631TIP3    H252771   6.949   9.715   5.265
17632TIP3   OH252772   7.102   9.710   5.358
17632TIP3    H152773   7.188   9.685   5.320
17632TIP3    H252774   7.090   9.640   5.425
17633TIP3   OH252775   7.927   9.775   5.146
17633TIP3    H152776   7.947   9.744   5.237
17633TIP3    H252777   8.013   9.765   5.101
17634TIP3   OH252778   2.738   1.190   8.793
17634TIP3    H152779   2.747   1.284   8.772
17634TIP3    H252780   2.827   1.156   8.772
17635TIP3   OH252781   2.762   1.470   8.770
17635TIP3    H152782   2.807   1.540   8.719
17635TIP3    H252783   2.680   1.516   8.791
17636TIP3   OH252784   2.421   1.244   8.772
17636TIP3    H152785   2.472   1.183   8.826
17636TIP3    H252786   2.462   1.230   8.685
17637TIP3   OH252787   4.079   1.013   9.079
17637TIP3    H152788   4.075   1.102   9.037
17637TIP3    H252789   4.065   0.960   8.996
17638TIP3   OH252790   4.421   1.327   9.123
17638TIP3    H152791   4.443   1.277   9.204
17638TIP3    H252792   4.475   1.406   9.131
17639TIP3   OH252793   4.088   1.792   9.132
17639TIP3    H152794   4.144   1.731   9.078
17639TIP3    H252795   4.144   1.806   9.210
17640TIP3   OH252796   4.064   1.245   8.941
17640TIP3    H152797   4.068   1.232   8.845
17640TIP3    H252798   4.061   1.343   8.944
17641TIP3   OH252799   4.226   1.635   8.961
17641TIP3    H152800   4.267   1.550   8.932
17641TIP3    H252801   4.285   1.698   8.914
17642TIP3   OH252802   4.334   1.406   8.856
17642TIP3    H152803   4.351   1.342   8.785
17642TIP3    H252804   4.407   1.388   8.917
17643TIP3   OH252805   4.034   0.888   8.847
17643TIP3    H152806   3.946   0.922   8.821
17643TIP3    H252807   4.080   0.884   8.762
17644TIP3   OH252808   3.994   0.680   8.601
17644TIP3    H152809   4.074   0.721   8.639
17644TIP3    H252810   4.037   0.608   8.551
17645TIP3   OH252811   4.383   0.969   8.853
17645TIP3    H152812   4.353   0.995   8.942
17645TIP3    H252813   4.473   0.940   8.877
17646TIP3   OH252814   4.236   0.821   8.673
17646TIP3    H152815   4.292   0.881   8.727
17646TIP3    H252816   4.260   0.850   8.581
17647TIP3   OH252817   3.975   1.516   8.970
17647TIP3    H152818   4.051   1.576   8.964
17647TIP3    H252819   3.908   1.562   8.918
17648TIP3   OH252820   4.540   1.444   8.274
17648TIP3    H152821   4.548   1.541   8.261
17648TIP3    H252822   4.633   1.415   8.259
17649TIP3   OH252823   3.851   1.761   8.757
17649TIP3    H152824   3.804   1.740   8.675
17649TIP3    H252825   3.818   1.850   8.779
17650TIP3   OH252826   4.052   1.661   8.395
17650TIP3    H152827   4.111   1.591   8.359
17650TIP3    H252828   4.087   1.671   8.486
17651TIP3   OH252829   4.101   1.710   8.663
17651TIP3    H152830   4.014   1.720   8.708
17651TIP3    H252831   4.156   1.671   8.733
17652TIP3   OH252832   4.306   0.882   8.420
17652TIP3    H152833   4.269   0.858   8.333
17652TIP3    H252834   4.382   0.937   8.394
17653TIP3   OH252835   4.195   0.698   8.973
17653TIP3    H152836   4.145   0.761   8.917
17653TIP3    H252837   4.245   0.649   8.904
17654TIP3   OH252838   3.527   0.525   8.813
17654TIP3    H152839   3.480   0.472   8.747
17654TIP3    H252840   3.605   0.553   8.763
17655TIP3   OH252841   3.799   1.044   8.823
17655TIP3    H152842   3.731   0.979   8.796
17655TIP3    H252843   3.787   1.042   8.919
17656TIP3   OH252844   4.336   0.575   8.771
17656TIP3    H152845   4.432   0.589   8.790
17656TIP3    H252846   4.316   0.652   8.715
17657TIP3   OH252847   3.957   1.198   8.654
17657TIP3    H152848   3.912   1.285   8.659
17657TIP3    H252849   3.898   1.144   8.710
17658TIP3   OH252850   4.781   0.691   8.633
17658TIP3    H152851   4.722   0.643   8.570
17658TIP3    H252852   4.780   0.779   8.589
17659TIP3   OH252853   4.459   1.516   8.533
17659TIP3    H152854   4.491   1.459   8.604
17659TIP3    H252855   4.489   1.471   8.452
17660TIP3   OH252856   3.506   1.611   8.966
17660TIP3    H152857   3.434   1.621   9.030
17660TIP3    H252858   3.550   1.697   8.977
17661TIP3   OH252859   4.233   1.236   8.441
17661TIP3    H152860   4.284   1.221   8.523
17661TIP3    H252861   4.143   1.215   8.470
17662TIP3   OH252862   4.573   1.719   8.260
17662TIP3    H152863   4.614   1.792   8.211
17662TIP3    H252864   4.493   1.765   8.293
17663TIP3   OH252865   4.393   1.187   8.670
17663TIP3    H152866   4.386   1.111   8.731
17663TIP3    H252867   4.489   1.183   8.649
17664TIP3   OH252868   3.603   1.223   8.438
17664TIP3    H152869   3.614   1.130   8.408
17664TIP3    H252870   3.580   1.210   8.532
17665TIP3   OH252871   3.546   1.229   8.708
17665TIP3    H152872   3.613   1.201   8.771
17665TIP3    H252873   3.550   1.327   8.715
17666TIP3   OH252874   3.815   1.430   8.667
17666TIP3    H152875   3.725   1.455   8.696
17666TIP3    H252876   3.829   1.495   8.596
17667TIP3   OH252877   3.555   1.500   8.722
17667TIP3    H152878   3.524   1.570   8.659
17667TIP3    H252879   3.533   1.542   8.808
17668TIP3   OH252880   3.265   1.147   8.713
17668TIP3    H152881   3.335   1.213   8.725
17668TIP3    H252882   3.314   1.080   8.662
17669TIP3   OH252883   4.524   1.867   9.191
17669TIP3    H152884   4.477   1.922   9.125
17669TIP3    H252885   4.616   1.894   9.174
17670TIP3   OH252886   3.765   1.429   8.356
17670TIP3    H152887   3.708   1.357   8.391
17670TIP3    H252888   3.839   1.376   8.321
17671TIP3   OH252889   4.200   1.469   8.263
17671TIP3    H152890   4.252   1.414   8.323
17671TIP3    H252891   4.257   1.473   8.183
17672TIP3   OH252892   3.408   0.945   8.574
17672TIP3    H152893   3.462   0.912   8.649
17672TIP3    H252894   3.477   0.949   8.504
17673TIP3   OH252895   3.916   1.145   8.381
17673TIP3    H152896   3.916   1.158   8.478
17673TIP3    H252897   3.916   1.047   8.376
17674TIP3   OH252898   3.606   0.852   8.768
17674TIP3    H152899   3.619   0.826   8.861
17674TIP3    H252900   3.635   0.770   8.723
17675TIP3   OH252901   3.717   0.634   8.638
17675TIP3    H152902   3.691   0.642   8.544
17675TIP3    H252903   3.814   0.645   8.632
17676TIP3   OH252904   4.541   0.973   8.296
17676TIP3    H152905   4.518   0.928   8.213
17676TIP3    H252906   4.511   1.064   8.274
17677TIP3   OH252907   3.523   1.704   8.538
17677TIP3    H152908   3.618   1.704   8.520
17677TIP3    H252909   3.491   1.752   8.460
17678TIP3   OH252910   2.994   1.092   8.730
17678TIP3    H152911   3.089   1.116   8.742
17678TIP3    H252912   3.001   0.997   8.707
17679TIP3   OH252913   4.785   1.952   9.162
17679TIP3    H152914   4.822   2.023   9.216
17679TIP3    H252915   4.820   1.977   9.075
17680TIP3   OH252916   4.670   1.158   8.631
17680TIP3    H152917   4.726   1.238   8.622
17680TIP3    H252918   4.713   1.119   8.711
17681TIP3   OH252919   4.801   1.021   8.830
17681TIP3    H152920   4.736   0.986   8.894
17681TIP3    H252921   4.859   1.076   8.885
17682TIP3   OH252922   4.849   1.411   9.217
17682TIP3    H152923   4.926   1.353   9.193
17682TIP3    H252924   4.869   1.491   9.164
17683TIP3   OH252925   4.738   0.930   8.483
17683TIP3    H152926   4.667   0.942   8.416
17683TIP3    H252927   4.719   1.009   8.539
17684TIP3   OH252928   4.616   0.600   8.434
17684TIP3    H152929   4.577   0.672   8.383
17684TIP3    H252930   4.577   0.523   8.391
17685TIP3   OH252931   4.614   0.881   8.984
17685TIP3    H152932   4.615   0.784   8.977
17685TIP3    H252933   4.589   0.898   9.075
17686TIP3   OH252934   4.599   0.606   8.834
17686TIP3    H152935   4.644   0.564   8.910
17686TIP3    H252936   4.673   0.635   8.777
17687TIP3   OH252937   4.360   1.811   8.811
17687TIP3    H152938   4.419   1.799   8.733
17687TIP3    H252939   4.408   1.879   8.862
17688TIP3   OH252940   2.980   1.438   8.927
17688TIP3    H152941   2.908   1.411   8.867
17688TIP3    H252942   3.006   1.523   8.889
17689TIP3   OH252943   3.793   1.667   8.490
17689TIP3    H152944   3.881   1.689   8.454
17689TIP3    H252945   3.770   1.592   8.431
17690TIP3   OH252946   4.508   1.782   8.580
17690TIP3    H152947   4.496   1.685   8.569
17690TIP3    H252948   4.465   1.815   8.499
17691TIP3   OH252949   3.096   1.503   8.547
17691TIP3    H152950   3.097   1.540   8.636
17691TIP3    H252951   3.185   1.461   8.539
17692TIP3   OH252952   6.002   1.301   8.540
17692TIP3    H152953   5.974   1.391   8.515
17692TIP3    H252954   5.928   1.250   8.503
17693TIP3   OH252955   6.009   1.313   8.925
17693TIP3    H152956   6.034   1.262   9.003
17693TIP3    H252957   5.960   1.247   8.874
17694TIP3   OH252958   5.310   1.209   9.281
17694TIP3    H152959   5.319   1.164   9.367
17694TIP3    H252960   5.402   1.226   9.254
17695TIP3   OH252961   6.235   1.598   8.604
17695TIP3    H152962   6.244   1.522   8.663
17695TIP3    H252963   6.284   1.668   8.650
17696TIP3   OH252964   5.275   1.609   9.025
17696TIP3    H152965   5.260   1.512   9.021
17696TIP3    H252966   5.369   1.611   9.001
17697TIP3   OH252967   4.975   0.796   8.804
17697TIP3    H152968   4.931   0.882   8.818
17697TIP3    H252969   4.910   0.753   8.744
17698TIP3   OH252970   5.043   1.089   8.957
17698TIP3    H152971   5.093   1.016   9.000
17698TIP3    H252972   5.098   1.111   8.881
17699TIP3   OH252973   6.215   1.040   8.997
17699TIP3    H152974   6.248   0.954   9.028
17699TIP3    H252975   6.184   1.018   8.907
17700TIP3   OH252976   5.190   0.892   9.074
17700TIP3    H152977   5.257   0.859   9.135
17700TIP3    H252978   5.200   0.831   8.999
17701TIP3   OH252979   5.627   1.087   8.867
17701TIP3    H152980   5.718   1.054   8.880
17701TIP3    H252981   5.582   1.005   8.835
17702TIP3   OH252982   6.867   1.037   9.141
17702TIP3    H152983   6.794   1.100   9.126
17702TIP3    H252984   6.893   1.055   9.233
17703TIP3   OH252985   5.898   1.522   8.410
17703TIP3    H152986   5.854   1.498   8.327
17703TIP3    H252987   5.855   1.607   8.431
17704TIP3   OH252988   5.655   1.451   9.204
17704TIP3    H152989   5.578   1.496   9.245
17704TIP3    H252990   5.694   1.526   9.158
17705TIP3   OH252991   5.440   0.800   9.182
17705TIP3    H152992   5.509   0.856   9.140
17705TIP3    H252993   5.427   0.732   9.115
17706TIP3   OH252994   5.473   1.638   9.302
17706TIP3    H152995   5.453   1.717   9.247
17706TIP3    H252996   5.395   1.638   9.359
17707TIP3   OH252997   4.889   1.323   8.524
17707TIP3    H152998   4.835   1.362   8.453
17707TIP3    H252999   4.890   1.393   8.591
17708TIP3   OH253000   6.302   1.849   8.778
17708TIP3    H153001   6.207   1.862   8.776
17708TIP3    H253002   6.328   1.926   8.723
17709TIP3   OH253003   6.017   1.883   8.449
17709TIP3    H153004   6.074   1.812   8.414
17709TIP3    H253005   6.066   1.962   8.419
17710TIP3   OH253006   6.165   1.674   8.344
17710TIP3    H153007   6.123   1.599   8.301
17710TIP3    H253008   6.187   1.638   8.432
17711TIP3   OH253009   6.540   1.758   9.112
17711TIP3    H153010   6.534   1.681   9.052
17711TIP3    H253011   6.527   1.833   9.050
17712TIP3   OH253012   5.837   1.153   8.367
17712TIP3    H153013   5.753   1.200   8.346
17712TIP3    H253014   5.878   1.146   8.280
17713TIP3   OH253015   5.788   0.939   8.089
17713TIP3    H153016   5.865   0.982   8.130
17713TIP3    H253017   5.833   0.865   8.042
17714TIP3   OH253018   6.740   1.396   8.958
17714TIP3    H153019   6.656   1.445   8.962
17714TIP3    H253020   6.766   1.412   8.865
17715TIP3   OH253021   6.181   1.234   8.341
17715TIP3    H153022   6.126   1.259   8.419
17715TIP3    H253023   6.263   1.205   8.385
17716TIP3   OH253024   6.418   1.276   9.251
17716TIP3    H153025   6.418   1.361   9.301
17716TIP3    H253026   6.332   1.283   9.204
17717TIP3   OH253027   5.416   1.231   8.753
17717TIP3    H153028   5.369   1.175   8.687
17717TIP3    H253029   5.489   1.172   8.779
17718TIP3   OH253030   5.531   1.634   8.902
17718TIP3    H153031   5.492   1.604   8.817
17718TIP3    H253032   5.623   1.608   8.890
17719TIP3   OH253033   5.552   1.214   9.103
17719TIP3    H153034   5.575   1.194   9.010
17719TIP3    H253035   5.592   1.302   9.117
17720TIP3   OH253036   5.691   1.773   9.439
17720TIP3    H153037   5.624   1.834   9.477
17720TIP3    H253038   5.632   1.708   9.397
17721TIP3   OH253039   6.028   1.081   8.168
17721TIP3    H153040   6.085   1.142   8.220
17721TIP3    H253041   6.051   1.108   8.076
17722TIP3   OH253042   5.765   1.777   8.453
17722TIP3    H153043   5.848   1.829   8.464
17722TIP3    H253044   5.708   1.839   8.406
17723TIP3   OH253045   5.473   1.920   9.513
17723TIP3    H153046   5.446   1.925   9.419
17723TIP3    H253047   5.396   1.878   9.554
17724TIP3   OH253048   5.278   1.080   8.564
17724TIP3    H153049   5.211   1.120   8.504
17724TIP3    H253050   5.245   0.990   8.572
17725TIP3   OH253051   6.335   1.700   7.760
17725TIP3    H153052   6.342   1.798   7.747
17725TIP3    H253053   6.428   1.673   7.748
17726TIP3   OH253054   4.931   1.661   9.136
17726TIP3    H153055   4.992   1.654   9.062
17726TIP3    H253056   4.908   1.755   9.140
17727TIP3   OH253057   6.785   2.101   9.155
17727TIP3    H153058   6.782   2.005   9.167
17727TIP3    H253059   6.699   2.127   9.196
17728TIP3   OH253060   5.888   1.887   9.286
17728TIP3    H153061   5.885   1.982   9.311
17728TIP3    H253062   5.814   1.852   9.340
17729TIP3   OH253063   5.644   2.015   8.242
17729TIP3    H153064   5.599   1.999   8.157
17729TIP3    H253065   5.616   2.105   8.265
17730TIP3   OH253066   5.085   1.872   8.623
17730TIP3    H153067   5.127   1.858   8.710
17730TIP3    H253068   5.032   1.789   8.617
17731TIP3   OH253069   5.848   1.918   7.883
17731TIP3    H153070   5.907   1.849   7.847
17731TIP3    H253071   5.881   1.927   7.975
17732TIP3   OH253072   5.898   1.965   8.153
17732TIP3    H153073   5.810   1.977   8.197
17732TIP3    H253074   5.952   1.937   8.228
17733TIP3   OH253075   6.682   1.247   9.415
17733TIP3    H153076   6.592   1.263   9.384
17733TIP3    H253077   6.681   1.154   9.440
17734TIP3   OH253078   6.335   1.074   9.419
17734TIP3    H153079   6.398   1.075   9.494
17734TIP3    H253080   6.362   1.152   9.367
17735TIP3   OH253081   6.102   1.135   7.910
17735TIP3    H153082   6.065   1.112   7.823
17735TIP3    H253083   6.174   1.195   7.885
17736TIP3   OH253084   5.645   0.987   9.209
17736TIP3    H153085   5.581   0.995   9.282
17736TIP3    H253086   5.618   1.065   9.155
17737TIP3   OH253087   5.471   0.886   8.769
17737TIP3    H153088   5.392   0.837   8.797
17737TIP3    H253089   5.492   0.841   8.684
17738TIP3   OH253090   5.977   0.957   8.498
17738TIP3    H153091   5.922   1.028   8.458
17738TIP3    H253092   6.023   0.922   8.418
17739TIP3   OH253093   6.135   0.983   8.736
17739TIP3    H153094   6.075   1.014   8.665
17739TIP3    H253095   6.165   0.900   8.698
17740TIP3   OH253096   6.146   1.236   9.165
17740TIP3    H153097   6.177   1.165   9.104
17740TIP3    H253098   6.110   1.181   9.238
17741TIP3   OH253099   5.239   0.741   8.846
17741TIP3    H153100   5.145   0.761   8.823
17741TIP3    H253101   5.246   0.649   8.819
17742TIP3   OH253102   5.528   0.761   8.530
17742TIP3    H153103   5.612   0.738   8.488
17742TIP3    H253104   5.466   0.756   8.454
17743TIP3   OH253105   5.344   0.774   8.310
17743TIP3    H153106   5.283   0.723   8.255
17743TIP3    H253107   5.403   0.809   8.240
17744TIP3   OH253108   6.472   2.451   9.252
17744TIP3    H153109   6.465   2.475   9.158
17744TIP3    H253110   6.548   2.506   9.280
17745TIP3   OH253111   5.898   1.025   8.933
17745TIP3    H153112   5.955   0.969   8.878
17745TIP3    H253113   5.899   0.974   9.018
17746TIP3   OH253114   5.903   0.901   9.181
17746TIP3    H153115   5.809   0.924   9.193
17746TIP3    H253116   5.947   0.951   9.252
17747TIP3   OH253117   5.606   1.304   8.319
17747TIP3    H153118   5.534   1.238   8.307
17747TIP3    H253119   5.588   1.337   8.410
17748TIP3   OH253120   6.506   1.541   8.948
17748TIP3    H153121   6.533   1.587   8.865
17748TIP3    H253122   6.423   1.497   8.921
17749TIP3   OH253123   5.994   1.626   9.282
17749TIP3    H153124   6.010   1.577   9.365
17749TIP3    H253125   5.963   1.711   9.318
17750TIP3   OH253126   6.124   0.838   8.276
17750TIP3    H153127   6.221   0.850   8.285
17750TIP3    H253128   6.100   0.914   8.220
17751TIP3   OH253129   5.309   1.338   8.987
17751TIP3    H153130   5.339   1.302   8.902
17751TIP3    H253131   5.321   1.263   9.047
17752TIP3   OH253132   5.752   1.454   8.139
17752TIP3    H153133   5.704   1.540   8.145
17752TIP3    H253134   5.696   1.398   8.197
17753TIP3   OH253135   6.147   1.854   9.190
17753TIP3    H153136   6.059   1.884   9.221
17753TIP3    H253137   6.200   1.911   9.252
17754TIP3   OH253138   6.579   0.948   8.117
17754TIP3    H153139   6.519   0.900   8.055
17754TIP3    H253140   6.576   1.036   8.073
17755TIP3   OH253141   6.792   1.809   9.198
17755TIP3    H153142   6.694   1.804   9.190
17755TIP3    H253143   6.818   1.781   9.108
17756TIP3   OH253144   6.280   1.772   8.026
17756TIP3    H153145   6.248   1.703   8.086
17756TIP3    H253146   6.288   1.726   7.941
17757TIP3   OH253147   6.271   1.406   8.860
17757TIP3    H153148   6.182   1.373   8.881
17757TIP3    H253149   6.308   1.326   8.816
17758TIP3   OH253150   5.396   1.631   8.627
17758TIP3    H153151   5.398   1.710   8.569
17758TIP3    H253152   5.302   1.610   8.623
17759TIP3   OH253153   4.963   0.930   8.320
17759TIP3    H153154   5.009   1.015   8.337
17759TIP3    H253155   4.885   0.940   8.380
17760TIP3   OH253156   5.544   1.400   8.568
17760TIP3    H153157   5.503   1.487   8.584
17760TIP3    H253158   5.501   1.345   8.637
17761TIP3   OH253159   5.669   1.970   9.084
17761TIP3    H153160   5.696   2.045   9.026
17761TIP3    H253161   5.746   1.962   9.141
17762TIP3   OH253162   5.320   1.867   8.473
17762TIP3    H153163   5.233   1.875   8.516
17762TIP3    H253164   5.351   1.960   8.476
17763TIP3   OH253165   6.028   1.495   7.927
17763TIP3    H153166   6.079   1.473   8.008
17763TIP3    H253167   5.938   1.474   7.955
17764TIP3   OH253168   6.301   2.141   9.090
17764TIP3    H153169   6.216   2.097   9.072
17764TIP3    H253170   6.297   2.211   9.021
17765TIP3   OH253171   6.370   1.975   7.748
17765TIP3    H153172   6.403   2.045   7.689
17765TIP3    H253173   6.290   2.022   7.782
17766TIP3   OH253174   6.188   1.434   8.146
17766TIP3    H153175   6.179   1.367   8.216
17766TIP3    H253176   6.285   1.433   8.132
17767TIP3   OH253177   5.112   1.865   9.236
17767TIP3    H153178   5.128   1.770   9.229
17767TIP3    H253179   5.164   1.886   9.315
17768TIP3   OH253180   5.398   1.480   7.925
17768TIP3    H153181   5.411   1.388   7.896
17768TIP3    H253182   5.379   1.467   8.021
17769TIP3   OH253183   5.344   1.485   8.197
17769TIP3    H153184   5.411   1.458   8.261
17769TIP3    H253185   5.347   1.583   8.204
17770TIP3   OH253186   5.081   1.178   8.397
17770TIP3    H153187   5.015   1.222   8.456
17770TIP3    H253188   5.094   1.249   8.332
17771TIP3   OH253189   5.608   1.684   8.150
17771TIP3    H153190   5.521   1.713   8.184
17771TIP3    H253191   5.626   1.755   8.087
17772TIP3   OH253192   5.825   0.737   8.565
17772TIP3    H153193   5.862   0.825   8.541
17772TIP3    H253194   5.774   0.758   8.644
17773TIP3   OH253195   6.057   1.067   9.361
17773TIP3    H153196   6.070   1.109   9.447
17773TIP3    H253197   6.143   1.021   9.350
17774TIP3   OH253198   5.349   1.758   8.215
17774TIP3    H153199   5.320   1.827   8.151
17774TIP3    H253200   5.333   1.803   8.301
17775TIP3   OH253201   6.356   1.167   8.739
17775TIP3    H153202   6.284   1.102   8.750
17775TIP3    H253203   6.431   1.122   8.785
17776TIP3   OH253204   5.067   1.391   8.208
17776TIP3    H153205   5.127   1.467   8.218
17776TIP3    H253206   5.116   1.340   8.141
17777TIP3   OH253207   5.003   0.645   8.337
17777TIP3    H153208   5.034   0.737   8.339
17777TIP3    H253209   4.909   0.659   8.350
17778TIP3   OH253210   6.329   2.106   8.688
17778TIP3    H153211   6.277   2.151   8.617
17778TIP3    H253212   6.419   2.135   8.662
17779TIP3   OH253213   4.956   1.628   8.605
17779TIP3    H153214   4.883   1.604   8.666
17779TIP3    H253215   4.908   1.651   8.523
17780TIP3   OH253216   5.560   1.686   7.842
17780TIP3    H153217   5.504   1.614   7.879
17780TIP3    H253218   5.635   1.633   7.808
17781TIP3   OH253219   6.235   1.999   9.412
17781TIP3    H153220   6.223   1.965   9.502
17781TIP3    H253221   6.300   2.070   9.431
17782TIP3   OH253222   5.996   1.727   7.750
17782TIP3    H153223   6.046   1.665   7.806
17782TIP3    H253224   6.051   1.731   7.669
17783TIP3   OH253225   5.203   1.203   8.057
17783TIP3    H153226   5.256   1.167   8.131
17783TIP3    H253227   5.272   1.207   7.988
17784TIP3   OH253228   5.713   1.402   7.868
17784TIP3    H153229   5.713   1.414   7.965
17784TIP3    H253230   5.711   1.303   7.863
17785TIP3   OH253231   6.324   1.640   9.241
17785TIP3    H153232   6.401   1.687   9.200
17785TIP3    H253233   6.257   1.710   9.240
17786TIP3   OH253234   5.418   1.103   8.286
17786TIP3    H153235   5.387   1.060   8.368
17786TIP3    H253236   5.449   1.026   8.234
17787TIP3   OH253237   5.510   0.895   8.124
17787TIP3    H153238   5.484   0.900   8.030
17787TIP3    H253239   5.608   0.904   8.117
17788TIP3   OH253240   6.340   1.229   7.783
17788TIP3    H153241   6.314   1.185   7.700
17788TIP3    H253242   6.308   1.321   7.761
17789TIP3   OH253243   5.847   1.285   9.329
17789TIP3    H153244   5.913   1.279   9.260
17789TIP3    H253245   5.778   1.340   9.287
17790TIP3   OH253246   6.468   1.494   9.420
17790TIP3    H153247   6.407   1.550   9.368
17790TIP3    H253248   6.556   1.519   9.383
17791TIP3   OH253249   5.318   1.959   8.027
17791TIP3    H153250   5.414   1.959   8.008
17791TIP3    H253251   5.287   2.007   7.948
17792TIP3   OH253252   4.796   1.345   8.236
17792TIP3    H153253   4.892   1.366   8.232
17792TIP3    H253254   4.796   1.254   8.200
17793TIP3   OH253255   4.710   1.956   8.653
17793TIP3    H153256   4.643   1.891   8.622
17793TIP3    H253257   4.757   1.900   8.720
17794TIP3   OH253258   4.839   1.815   8.842
17794TIP3    H153259   4.822   1.723   8.870
17794TIP3    H253260   4.900   1.850   8.908
17795TIP3   OH253261   6.579   2.202   8.644
17795TIP3    H153262   6.603   2.245   8.728
17795TIP3    H253263   6.629   2.254   8.579
17796TIP3   OH253264   6.608   2.230   8.928
17796TIP3    H153265   6.566   2.143   8.917
17796TIP3    H253266   6.684   2.205   8.982
17797TIP3   OH253267   6.658   1.907   9.491
17797TIP3    H153268   6.569   1.915   9.526
17797TIP3    H253269   6.692   1.999   9.495
17798TIP3   OH253270   6.470   1.416   8.118
17798TIP3    H153271   6.537   1.481   8.091
17798TIP3    H253272   6.512   1.377   8.198
17799TIP3   OH253273   6.598   1.284   8.322
17799TIP3    H153274   6.532   1.241   8.382
17799TIP3    H253275   6.662   1.323   8.385
17800TIP3   OH253276   6.645   1.673   8.752
17800TIP3    H153277   6.701   1.610   8.704
17800TIP3    H253278   6.647   1.751   8.693
17801TIP3   OH253279   6.484   1.976   8.955
17801TIP3    H153280   6.415   2.027   9.001
17801TIP3    H253281   6.433   1.932   8.884
17802TIP3   OH253282   6.534   1.188   7.970
17802TIP3    H153283   6.464   1.198   7.901
17802TIP3    H253284   6.510   1.265   8.026
17803TIP3   OH253285   6.416   0.857   7.916
17803TIP3    H153286   6.372   0.931   7.873
17803TIP3    H253287   6.367   0.782   7.879
17804TIP3   OH253288   6.413   1.140   8.473
17804TIP3    H153289   6.420   1.044   8.473
17804TIP3    H253290   6.398   1.159   8.568
17805TIP3   OH253291   5.060   1.251   9.179
17805TIP3    H153292   5.048   1.201   9.095
17805TIP3    H253293   5.149   1.221   9.207
17806TIP3   OH253294   6.713   1.563   9.320
17806TIP3    H153295   6.785   1.497   9.308
17806TIP3    H253296   6.740   1.635   9.261
17807TIP3   OH253297   6.912   1.366   9.346
17807TIP3    H153298   6.824   1.332   9.377
17807TIP3    H253299   6.966   1.294   9.381
17808TIP3   OH253300   6.394   0.856   8.317
17808TIP3    H153301   6.440   0.820   8.396
17808TIP3    H253302   6.468   0.893   8.265
17809TIP3   OH253303   6.573   1.061   8.861
17809TIP3    H153304   6.663   1.072   8.823
17809TIP3    H253305   6.592   1.081   8.954
17810TIP3   OH253306   6.636   1.180   9.104
17810TIP3    H153307   6.556   1.218   9.144
17810TIP3    H253308   6.670   1.255   9.050
17811TIP3   OH253309   6.165   2.059   8.305
17811TIP3    H153310   6.215   2.051   8.222
17811TIP3    H253311   6.204   2.138   8.346
17812TIP3   OH253312   5.443   1.907   9.235
17812TIP3    H153313   5.389   1.980   9.195
17812TIP3    H253314   5.525   1.923   9.184
17813TIP3   OH253315   5.882   2.148   9.350
17813TIP3    H153316   5.928   2.144   9.437
17813TIP3    H253317   5.946   2.202   9.299
17814TIP3   OH253318   6.063   2.300   9.225
17814TIP3    H153319   6.134   2.258   9.175
17814TIP3    H253320   6.114   2.363   9.281
17815TIP3   OH253321   5.128   2.180   9.257
17815TIP3    H153322   5.040   2.208   9.225
17815TIP3    H253323   5.113   2.176   9.352
17816TIP3   OH253324   5.357   2.141   9.115
17816TIP3    H153325   5.272   2.158   9.161
17816TIP3    H253326   5.337   2.176   9.026
17817TIP3   OH253327   5.769   2.171   8.922
17817TIP3    H153328   5.753   2.186   8.826
17817TIP3    H253329   5.792   2.261   8.949
17818TIP3   OH253330   6.047   2.120   8.959
17818TIP3    H153331   5.952   2.121   8.935
17818TIP3    H253332   6.078   2.188   8.896
17819TIP3   OH253333   6.272   2.312   8.880
17819TIP3    H153334   6.238   2.393   8.836
17819TIP3    H253335   6.277   2.251   8.804
17820TIP3   OH253336   5.023   1.962   8.999
17820TIP3    H153337   5.056   1.945   9.090
17820TIP3    H253338   5.096   1.921   8.947
17821TIP3   OH253339   5.217   1.833   8.861
17821TIP3    H153340   5.237   1.748   8.907
17821TIP3    H253341   5.307   1.872   8.853
17822TIP3   OH253342   5.480   1.929   8.862
17822TIP3    H153343   5.515   1.841   8.841
17822TIP3    H253344   5.528   1.950   8.944
17823TIP3   OH253345   4.817   1.724   8.392
17823TIP3    H153346   4.731   1.695   8.357
17823TIP3    H253347   4.806   1.820   8.386
17824TIP3   OH253348   5.587   1.924   7.976
17824TIP3    H153349   5.676   1.946   7.940
17824TIP3    H253350   5.566   1.848   7.917
17825TIP3   OH253351   6.309   2.039   8.068
17825TIP3    H153352   6.299   1.942   8.055
17825TIP3    H253353   6.262   2.073   7.989
17826TIP3   OH253354   4.893   1.761   8.035
17826TIP3    H153355   4.890   1.784   8.129
17826TIP3    H253356   4.981   1.719   8.026
17827TIP3   OH253357   6.539   2.185   9.249
17827TIP3    H153358   6.459   2.152   9.203
17827TIP3    H253359   6.519   2.281   9.250
17828TIP3   OH253360   7.798   1.555   8.028
17828TIP3    H153361   7.773   1.647   8.005
17828TIP3    H253362   7.722   1.508   7.990
17829TIP3   OH253363   7.795   1.548   8.409
17829TIP3    H153364   7.805   1.486   8.483
17829TIP3    H253365   7.755   1.489   8.344
17830TIP3   OH253366   7.097   1.463   8.770
17830TIP3    H153367   7.129   1.388   8.824
17830TIP3    H253368   7.181   1.503   8.743
17831TIP3   OH253369   8.038   1.856   8.086
17831TIP3    H153370   8.030   1.787   8.153
17831TIP3    H253371   8.071   1.931   8.139
17832TIP3   OH253372   7.071   1.860   8.501
17832TIP3    H153373   7.061   1.762   8.501
17832TIP3    H253374   7.167   1.866   8.486
17833TIP3   OH253375   6.769   1.055   8.289
17833TIP3    H153376   6.723   1.140   8.301
17833TIP3    H253377   6.705   1.009   8.231
17834TIP3   OH253378   6.838   1.351   8.450
17834TIP3    H153379   6.887   1.274   8.488
17834TIP3    H253380   6.896   1.376   8.377
17835TIP3   OH253381   7.689   2.319   8.101
17835TIP3    H153382   7.737   2.249   8.051
17835TIP3    H253383   7.685   2.279   8.189
17836TIP3   OH253384   7.596   1.782   8.454
17836TIP3    H153385   7.627   1.704   8.405
17836TIP3    H253386   7.683   1.824   8.472
17837TIP3   OH253387   6.981   1.143   8.558
17837TIP3    H153388   7.062   1.117   8.608
17837TIP3    H253389   6.997   1.089   8.477
17838TIP3   OH253390   7.423   1.344   8.357
17838TIP3    H153391   7.514   1.309   8.369
17838TIP3    H253392   7.377   1.263   8.324
17839TIP3   OH253393   7.694   1.777   7.894
17839TIP3    H153394   7.649   1.752   7.812
17839TIP3    H253395   7.650   1.862   7.915
17840TIP3   OH253396   7.456   1.702   8.685
17840TIP3    H153397   7.388   1.764   8.720
17840TIP3    H253398   7.491   1.750   8.608
17841TIP3   OH253399   7.215   1.051   8.656
17841TIP3    H153400   7.286   1.114   8.682
17841TIP3    H253401   7.259   0.998   8.590
17842TIP3   OH253402   7.278   1.896   8.781
17842TIP3    H153403   7.248   1.977   8.735
17842TIP3    H253404   7.198   1.878   8.836
17843TIP3   OH253405   6.674   1.584   8.015
17843TIP3    H153406   6.632   1.608   7.930
17843TIP3    H253407   6.702   1.671   8.050
17844TIP3   OH253408   8.109   2.094   8.247
17844TIP3    H153409   8.020   2.087   8.287
17844TIP3    H253410   8.106   2.185   8.212
17845TIP3   OH253411   7.816   2.148   7.930
17845TIP3    H153412   7.866   2.066   7.909
17845TIP3    H253413   7.876   2.213   7.887
17846TIP3   OH253414   7.958   1.933   7.833
17846TIP3    H153415   7.919   1.854   7.793
17846TIP3    H253416   7.992   1.897   7.918
17847TIP3   OH253417   7.631   1.409   7.853
17847TIP3    H153418   7.549   1.457   7.831
17847TIP3    H253419   7.676   1.404   7.767
17848TIP3   OH253420   7.585   1.192   7.575
17848TIP3    H153421   7.659   1.238   7.618
17848TIP3    H253422   7.633   1.124   7.525
17849TIP3   OH253423   7.975   1.491   7.827
17849TIP3    H153424   7.923   1.516   7.906
17849TIP3    H253425   8.059   1.462   7.870
17850TIP3   OH253426   7.212   1.489   8.242
17850TIP3    H153427   7.167   1.432   8.176
17850TIP3    H253428   7.286   1.432   8.271
17851TIP3   OH253429   7.338   1.896   8.393
17851TIP3    H153430   7.316   1.856   8.308
17851TIP3    H253431   7.429   1.864   8.408
17852TIP3   OH253432   7.342   1.459   8.601
17852TIP3    H153433   7.375   1.433   8.512
17852TIP3    H253434   7.392   1.541   8.618
17853TIP3   OH253435   7.867   2.100   8.371
17853TIP3    H153436   7.860   2.176   8.430
17853TIP3    H253437   7.860   2.023   8.431
17854TIP3   OH253438   7.480   2.020   8.915
17854TIP3    H153439   7.421   2.085   8.959
17854TIP3    H253440   7.415   1.972   8.859
17855TIP3   OH253441   7.823   1.339   7.654
17855TIP3    H153442   7.881   1.398   7.708
17855TIP3    H253443   7.848   1.367   7.563
17856TIP3   OH253444   7.234   1.576   9.020
17856TIP3    H153445   7.233   1.661   9.068
17856TIP3    H253446   7.138   1.556   9.018
17857TIP3   OH253447   7.559   2.030   7.930
17857TIP3    H153448   7.637   2.085   7.948
17857TIP3    H253449   7.498   2.092   7.887
17858TIP3   OH253450   7.278   2.186   9.009
17858TIP3    H153451   7.244   2.185   8.917
17858TIP3    H253452   7.198   2.162   9.060
17859TIP3   OH253453   7.074   1.339   8.050
17859TIP3    H153454   7.006   1.374   7.989
17859TIP3    H253455   7.047   1.246   8.060
17860TIP3   OH253456   8.131   1.957   7.247
17860TIP3    H153457   8.140   2.054   7.234
17860TIP3    H253458   8.224   1.928   7.235
17861TIP3   OH253459   6.856   1.714   8.953
17861TIP3    H153460   6.795   1.691   8.881
17861TIP3    H253461   6.894   1.627   8.977
17862TIP3   OH253462   6.710   1.902   8.600
17862TIP3    H153463   6.804   1.902   8.576
17862TIP3    H253464   6.699   1.990   8.639
17863TIP3   OH253465   7.689   2.142   8.789
17863TIP3    H153466   7.676   2.238   8.804
17863TIP3    H253467   7.608   2.106   8.832
17864TIP3   OH253468   7.441   2.274   7.729
17864TIP3    H153469   7.396   2.254   7.645
17864TIP3    H253470   7.409   2.364   7.750
17865TIP3   OH253471   6.880   2.125   8.111
17865TIP3    H153472   6.926   2.113   8.197
17865TIP3    H253473   6.818   2.050   8.114
17866TIP3   OH253474   7.645   2.175   7.370
17866TIP3    H153475   7.703   2.105   7.334
17866TIP3    H253476   7.678   2.183   7.462
17867TIP3   OH253477   7.694   2.223   7.641
17867TIP3    H153478   7.605   2.232   7.682
17867TIP3    H253479   7.743   2.179   7.712
17868TIP3   OH253480   7.057   1.900   8.943
17868TIP3    H153481   7.108   1.878   9.024
17868TIP3    H253482   6.985   1.835   8.947
17869TIP3   OH253483   7.896   1.392   7.396
17869TIP3    H153484   7.862   1.369   7.307
17869TIP3    H253485   7.972   1.449   7.372
17870TIP3   OH253486   7.401   1.231   8.745
17870TIP3    H153487   7.346   1.254   8.822
17870TIP3    H253488   7.387   1.310   8.689
17871TIP3   OH253489   7.264   1.147   8.253
17871TIP3    H153490   7.189   1.094   8.285
17871TIP3    H253491   7.288   1.098   8.171
17872TIP3   OH253492   7.771   1.212   7.984
17872TIP3    H153493   7.717   1.284   7.945
17872TIP3    H253494   7.819   1.179   7.906
17873TIP3   OH253495   7.938   1.246   8.211
17873TIP3    H153496   7.875   1.269   8.139
17873TIP3    H253497   7.945   1.151   8.199
17874TIP3   OH253498   7.203   1.273   8.939
17874TIP3    H153499   7.216   1.334   9.012
17874TIP3    H253500   7.164   1.194   8.979
17875TIP3   OH253501   7.035   0.999   8.329
17875TIP3    H153502   6.940   1.013   8.306
17875TIP3    H253503   7.046   0.905   8.312
17876TIP3   OH253504   7.323   1.017   8.017
17876TIP3    H153505   7.411   0.996   7.982
17876TIP3    H253506   7.266   1.012   7.938
17877TIP3   OH253507   7.138   1.033   7.796
17877TIP3    H153508   7.076   0.984   7.739
17877TIP3    H253509   7.199   1.068   7.728
17878TIP3   OH253510   8.259   2.752   8.736
17878TIP3    H153511   8.245   2.754   8.639
17878TIP3    H253512   8.339   2.807   8.739
17879TIP3   OH253513   7.214   1.820   9.154
17879TIP3    H153514   7.301   1.847   9.187
17879TIP3    H253515   7.158   1.820   9.234
17880TIP3   OH253516   7.698   1.276   8.430
17880TIP3    H153517   7.758   1.219   8.381
17880TIP3    H253518   7.690   1.228   8.515
17881TIP3   OH253519   7.672   1.174   8.705
17881TIP3    H153520   7.577   1.193   8.718
17881TIP3    H253521   7.711   1.213   8.786
17882TIP3   OH253522   7.401   1.561   7.803
17882TIP3    H153523   7.329   1.495   7.793
17882TIP3    H253524   7.384   1.594   7.895
17883TIP3   OH253525   8.303   1.744   8.406
17883TIP3    H153526   8.339   1.819   8.355
17883TIP3    H253527   8.208   1.748   8.389
17884TIP3   OH253528   7.836   1.898   8.803
17884TIP3    H153529   7.807   1.823   8.858
17884TIP3    H253530   7.761   1.960   8.804
17885TIP3   OH253531   7.918   1.096   7.759
17885TIP3    H153532   8.015   1.107   7.768
17885TIP3    H253533   7.895   1.175   7.707
17886TIP3   OH253534   7.094   1.583   8.478
17886TIP3    H153535   7.130   1.556   8.391
17886TIP3    H253536   7.133   1.516   8.536
17887TIP3   OH253537   7.546   1.710   7.623
17887TIP3    H153538   7.500   1.797   7.631
17887TIP3    H253539   7.492   1.655   7.683
17888TIP3   OH253540   6.966   1.500   9.092
17888TIP3    H153541   6.977   1.476   9.186
17888TIP3    H253542   6.896   1.438   9.064
17889TIP3   OH253543   7.946   2.158   8.673
17889TIP3    H153544   7.852   2.139   8.690
17889TIP3    H253545   7.959   2.243   8.716
17890TIP3   OH253546   8.379   1.206   7.598
17890TIP3    H153547   8.317   1.158   7.539
17890TIP3    H253548   8.372   1.295   7.559
17891TIP3   OH253549   8.073   2.028   7.513
17891TIP3    H153550   8.047   1.958   7.574
17891TIP3    H253551   8.084   1.981   7.428
17892TIP3   OH253552   8.041   1.667   8.340
17892TIP3    H153553   7.954   1.625   8.357
17892TIP3    H253554   8.093   1.591   8.310
17893TIP3   OH253555   7.193   1.887   8.108
17893TIP3    H153556   7.196   1.966   8.052
17893TIP3    H253557   7.098   1.868   8.109
17894TIP3   OH253558   6.758   1.187   7.807
17894TIP3    H153559   6.806   1.271   7.824
17894TIP3    H253560   6.681   1.197   7.866
17895TIP3   OH253561   7.337   1.654   8.051
17895TIP3    H153562   7.300   1.742   8.070
17895TIP3    H253563   7.299   1.601   8.123
17896TIP3   OH253564   7.461   2.232   8.574
17896TIP3    H153565   7.495   2.306   8.518
17896TIP3    H253566   7.543   2.199   8.613
17897TIP3   OH253567   7.116   2.123   7.959
17897TIP3    H153568   7.029   2.132   8.002
17897TIP3    H253569   7.146   2.217   7.959
17898TIP3   OH253570   7.853   1.865   8.525
17898TIP3    H153571   7.861   1.866   8.623
17898TIP3    H253572   7.929   1.811   8.498
17899TIP3   OH253573   7.824   1.753   7.414
17899TIP3    H153574   7.876   1.730   7.494
17899TIP3    H253575   7.735   1.730   7.444
17900TIP3   OH253576   8.079   2.415   8.591
17900TIP3    H153577   8.022   2.345   8.555
17900TIP3    H253578   8.091   2.468   8.509
17901TIP3   OH253579   8.166   2.232   7.235
17901TIP3    H153580   8.203   2.303   7.179
17901TIP3    H253581   8.087   2.279   7.268
17902TIP3   OH253582   7.982   1.691   7.632
17902TIP3    H153583   7.975   1.624   7.703
17902TIP3    H253584   8.079   1.691   7.617
17903TIP3   OH253585   6.903   2.095   8.733
17903TIP3    H153586   6.951   2.016   8.760
17903TIP3    H253587   6.934   2.160   8.798
17904TIP3   OH253588   7.194   1.737   7.413
17904TIP3    H153589   7.207   1.646   7.383
17904TIP3    H253590   7.175   1.724   7.508
17905TIP3   OH253591   7.140   1.742   7.686
17905TIP3    H153592   7.209   1.714   7.747
17905TIP3    H253593   7.144   1.840   7.692
17906TIP3   OH253594   6.872   1.435   7.886
17906TIP3    H153595   6.808   1.480   7.945
17906TIP3    H253596   6.889   1.506   7.821
17907TIP3   OH253597   7.404   1.941   7.637
17907TIP3    H153598   7.317   1.969   7.671
17907TIP3    H253599   7.420   2.009   7.570
17908TIP3   OH253600   7.616   0.995   8.046
17908TIP3    H153601   7.657   1.082   8.029
17908TIP3    H253602   7.575   1.008   8.133
17909TIP3   OH253603   7.146   2.015   7.701
17909TIP3    H153604   7.116   2.084   7.637
17909TIP3    H253605   7.129   2.060   7.787
17910TIP3   OH253606   8.157   1.411   8.229
17910TIP3    H153607   8.072   1.360   8.228
17910TIP3    H253608   8.210   1.358   8.291
17911TIP3   OH253609   6.864   1.649   7.696
17911TIP3    H153610   6.926   1.723   7.703
17911TIP3    H253611   6.911   1.595   7.628
17912TIP3   OH253612   6.789   0.899   7.813
17912TIP3    H153613   6.828   0.988   7.816
17912TIP3    H253614   6.702   0.918   7.849
17913TIP3   OH253615   8.115   2.373   8.175
17913TIP3    H153616   8.078   2.421   8.099
17913TIP3    H253617   8.211   2.387   8.158
17914TIP3   OH253618   6.739   1.862   8.087
17914TIP3    H153619   6.660   1.893   8.134
17914TIP3    H253620   6.720   1.899   7.998
17915TIP3   OH253621   6.890   2.397   9.156
17915TIP3    H153622   6.976   2.394   9.202
17915TIP3    H253623   6.867   2.303   9.152
17916TIP3   OH253624   7.378   2.363   9.202
17916TIP3    H153625   7.472   2.338   9.202
17916TIP3    H253626   7.347   2.312   9.125
17917TIP3   OH253627   7.357   1.942   7.329
17917TIP3    H153628   7.300   1.871   7.366
17917TIP3    H253629   7.431   1.889   7.295
17918TIP3   OH253630   7.793   1.984   7.238
17918TIP3    H153631   7.840   1.921   7.295
17918TIP3    H253632   7.848   1.986   7.157
17919TIP3   OH253633   7.024   1.815   9.350
17919TIP3    H153634   7.041   1.721   9.370
17919TIP3    H253635   6.936   1.811   9.308
17920TIP3   OH253636   7.000   1.460   7.546
17920TIP3    H153637   7.053   1.424   7.619
17920TIP3    H253638   7.067   1.464   7.475
17921TIP3   OH253639   7.508   1.836   9.118
17921TIP3    H153640   7.490   1.885   9.035
17921TIP3    H253641   7.556   1.757   9.082
17922TIP3   OH253642   7.507   1.658   7.354
17922TIP3    H153643   7.509   1.671   7.450
17922TIP3    H253644   7.507   1.560   7.350
17923TIP3   OH253645   7.154   1.541   9.343
17923TIP3    H153646   7.157   1.445   9.334
17923TIP3    H253647   7.125   1.553   9.435
17924TIP3   OH253648   7.212   1.360   7.772
17924TIP3    H153649   7.185   1.318   7.855
17924TIP3    H253650   7.245   1.283   7.720
17925TIP3   OH253651   7.460   1.417   8.992
17925TIP3    H153652   7.394   1.489   8.991
17925TIP3    H253653   7.519   1.442   8.918
17926TIP3   OH253654   7.308   1.152   7.613
17926TIP3    H153655   7.282   1.158   7.518
17926TIP3    H253656   7.405   1.162   7.606
17927TIP3   OH253657   8.134   1.486   7.269
17927TIP3    H153658   8.109   1.441   7.186
17927TIP3    H253659   8.103   1.577   7.248
17928TIP3   OH253660   7.631   1.511   8.779
17928TIP3    H153661   7.718   1.533   8.743
17928TIP3    H253662   7.574   1.581   8.742
17929TIP3   OH253663   7.115   2.217   7.515
17929TIP3    H153664   7.211   2.217   7.494
17929TIP3    H253665   7.082   2.264   7.436
17930TIP3   OH253666   6.596   1.598   7.734
17930TIP3    H153667   6.691   1.621   7.719
17930TIP3    H253668   6.591   1.510   7.690
17931TIP3   OH253669   6.509   2.213   8.142
17931TIP3    H153670   6.441   2.152   8.107
17931TIP3    H253671   6.553   2.156   8.209
17932TIP3   OH253672   6.647   2.068   8.329
17932TIP3    H153673   6.631   1.992   8.386
17932TIP3    H253674   6.696   2.127   8.389
17933TIP3   OH253675   8.372   2.460   8.131
17933TIP3    H153676   8.396   2.498   8.217
17933TIP3    H253677   8.425   2.513   8.070
17934TIP3   OH253678   8.404   2.492   8.416
17934TIP3    H153679   8.360   2.404   8.408
17934TIP3    H253680   8.488   2.466   8.458
17935TIP3   OH253681   8.258   1.683   7.592
17935TIP3    H153682   8.334   1.741   7.573
17935TIP3    H253683   8.290   1.637   7.674
17936TIP3   OH253684   8.356   1.540   7.792
17936TIP3    H153685   8.308   1.491   7.862
17936TIP3    H253686   8.437   1.572   7.839
17937TIP3   OH253687   8.431   1.924   8.228
17937TIP3    H153688   8.484   1.884   8.159
17937TIP3    H253689   8.408   2.009   8.189
17938TIP3   OH253690   8.276   2.253   8.420
17938TIP3    H153691   8.231   2.235   8.503
17938TIP3    H253692   8.247   2.177   8.366
17939TIP3   OH253693   8.330   1.447   7.456
17939TIP3    H153694   8.259   1.456   7.388
17939TIP3    H253695   8.306   1.522   7.514
17940TIP3   OH253696   8.211   1.115   7.403
17940TIP3    H153697   8.165   1.184   7.354
17940TIP3    H253698   8.168   1.035   7.371
17941TIP3   OH253699   8.201   1.393   7.961
17941TIP3    H153700   8.209   1.297   7.959
17941TIP3    H253701   8.193   1.411   8.057
17942TIP3   OH253702   6.833   1.472   8.703
17942TIP3    H153703   6.832   1.441   8.609
17942TIP3    H253704   6.930   1.478   8.718
17943TIP3   OH253705   8.188   1.118   7.789
17943TIP3    H153706   8.227   1.085   7.873
17943TIP3    H253707   8.266   1.154   7.743
17944TIP3   OH253708   6.825   1.129   8.783
17944TIP3    H153709   6.870   1.113   8.698
17944TIP3    H253710   6.857   1.217   8.804
17945TIP3   OH253711   7.959   2.329   7.789
17945TIP3    H153712   8.007   2.312   7.706
17945TIP3    H253713   8.013   2.398   7.830
17946TIP3   OH253714   7.063   2.129   9.188
17946TIP3    H153715   6.975   2.103   9.156
17946TIP3    H253716   7.055   2.110   9.282
17947TIP3   OH253717   7.237   2.168   8.726
17947TIP3    H153718   7.185   2.240   8.685
17947TIP3    H253719   7.321   2.183   8.677
17948TIP3   OH253720   7.669   2.409   8.834
17948TIP3    H153721   7.706   2.408   8.925
17948TIP3    H253722   7.738   2.462   8.787
17949TIP3   OH253723   7.864   2.557   8.718
17949TIP3    H153724   7.931   2.516   8.660
17949TIP3    H253725   7.919   2.616   8.772
17950TIP3   OH253726   6.915   2.424   8.745
17950TIP3    H153727   6.828   2.457   8.716
17950TIP3    H253728   6.915   2.455   8.837
17951TIP3   OH253729   7.151   2.402   8.602
17951TIP3    H153730   7.064   2.416   8.647
17951TIP3    H253731   7.130   2.435   8.512
17952TIP3   OH253732   7.573   2.431   8.401
17952TIP3    H153733   7.507   2.450   8.332
17952TIP3    H253734   7.587   2.520   8.440
17953TIP3   OH253735   7.840   2.374   8.454
17953TIP3    H153736   7.746   2.388   8.430
17953TIP3    H253737   7.884   2.444   8.404
17954TIP3   OH253738   8.056   2.565   8.367
17954TIP3    H153739   8.038   2.647   8.316
17954TIP3    H253740   8.079   2.502   8.294
17955TIP3   OH253741   6.825   2.219   8.491
17955TIP3    H153742   6.852   2.193   8.581
17955TIP3    H253743   6.897   2.175   8.439
17956TIP3   OH253744   7.016   2.088   8.347
17956TIP3    H153745   7.035   2.004   8.393
17956TIP3    H253746   7.107   2.126   8.339
17957TIP3   OH253747   7.282   2.185   8.346
17957TIP3    H153748   7.315   2.095   8.329
17957TIP3    H253749   7.324   2.203   8.432
17958TIP3   OH253750   6.613   1.987   7.884
17958TIP3    H153751   6.528   1.954   7.848
17958TIP3    H253752   6.601   2.082   7.864
17959TIP3   OH253753   7.385   2.180   7.463
17959TIP3    H153754   7.473   2.202   7.426
17959TIP3    H253755   7.362   2.105   7.404
17960TIP3   OH253756   8.103   2.295   7.556
17960TIP3    H153757   8.094   2.198   7.542
17960TIP3    H253758   8.058   2.329   7.475
17961TIP3   OH253759   6.689   2.015   7.521
17961TIP3    H153760   6.685   2.046   7.613
17961TIP3    H253761   6.778   1.976   7.515
17962TIP3   OH253762   8.245   2.483   8.793
17962TIP3    H153763   8.186   2.460   8.718
17962TIP3    H253764   8.274   2.573   8.770
17963TIP3   OH253765   8.533   1.304   7.814
17963TIP3    H153766   8.509   1.396   7.794
17963TIP3    H253767   8.506   1.259   7.731
17964TIP3   OH253768   8.602   1.599   7.873
17964TIP3    H153769   8.657   1.549   7.936
17964TIP3    H253770   8.672   1.648   7.829
17965TIP3   OH253771   9.406   2.042   7.433
17965TIP3    H153772   9.370   2.011   7.348
17965TIP3    H253773   9.389   2.139   7.426
17966TIP3   OH253774   8.474   1.841   7.500
17966TIP3    H153775   8.428   1.864   7.417
17966TIP3    H253776   8.498   1.929   7.535
17967TIP3   OH253777   9.386   1.452   7.046
17967TIP3    H153778   9.447   1.486   7.112
17967TIP3    H253779   9.406   1.357   7.043
17968TIP3   OH253780   9.359   2.313   7.419
17968TIP3    H153781   9.395   2.395   7.453
17968TIP3    H253782   9.292   2.346   7.357
17969TIP3   OH253783   8.881   1.597   7.531
17969TIP3    H153784   8.806   1.629   7.477
17969TIP3    H253785   8.854   1.506   7.552
17970TIP3   OH253786   8.503   2.169   8.070
17970TIP3    H153787   8.599   2.172   8.080
17970TIP3    H253788   8.476   2.240   8.130
17971TIP3   OH253789   9.241   2.529   7.220
17971TIP3    H153790   9.197   2.508   7.136
17971TIP3    H253791   9.209   2.619   7.239
17972TIP3   OH253792   8.676   2.381   7.595
17972TIP3    H153793   8.719   2.373   7.683
17972TIP3    H253794   8.613   2.307   7.599
17973TIP3   OH253795   9.443   2.432   6.857
17973TIP3    H153796   9.502   2.363   6.820
17973TIP3    H253797   9.476   2.441   6.949
17974TIP3   OH253798   9.492   2.478   7.126
17974TIP3    H153799   9.402   2.487   7.166
17974TIP3    H253800   9.546   2.452   7.202
17975TIP3   OH253801   9.680   1.663   6.877
17975TIP3    H153802   9.658   1.621   6.792
17975TIP3    H253803   9.756   1.717   6.854
17976TIP3   OH253804   8.907   1.310   7.272
17976TIP3    H153805   8.861   1.246   7.215
17976TIP3    H253806   8.987   1.325   7.220
17977TIP3   OH253807   9.180   1.840   7.292
17977TIP3    H153808   9.131   1.757   7.275
17977TIP3    H253809   9.171   1.849   7.389
17978TIP3   OH253810   9.341   1.968   7.108
17978TIP3    H153811   9.295   2.054   7.118
17978TIP3    H253812   9.286   1.911   7.166
17979TIP3   OH253813   9.899   2.269   6.935
17979TIP3    H153814   9.891   2.261   7.032
17979TIP3    H253815   9.820   2.221   6.906
17980TIP3   OH253816   8.989   2.140   7.570
17980TIP3    H153817   8.986   2.227   7.525
17980TIP3    H253818   8.895   2.125   7.587
17981TIP3   OH253819   8.551   1.447   7.290
17981TIP3    H153820   8.603   1.527   7.313
17981TIP3    H253821   8.476   1.454   7.354
17982TIP3   OH253822   9.139   1.908   7.569
17982TIP3    H153823   9.104   1.999   7.556
17982TIP3    H253824   9.067   1.872   7.623
17983TIP3   OH253825   8.915   2.382   7.449
17983TIP3    H153826   8.826   2.391   7.489
17983TIP3    H253827   8.945   2.475   7.449
17984TIP3   OH253828   9.616   2.022   6.918
17984TIP3    H153829   9.653   1.977   6.995
17984TIP3    H253830   9.524   1.994   6.924
17985TIP3   OH253831   8.704   2.342   8.213
17985TIP3    H153832   8.746   2.259   8.239
17985TIP3    H253833   8.766   2.404   8.258
17986TIP3   OH253834   8.993   1.992   6.900
17986TIP3    H153835   9.002   1.901   6.868
17986TIP3    H253836   8.969   1.978   6.994
17987TIP3   OH253837   8.935   1.998   7.172
17987TIP3    H153838   9.009   1.967   7.227
17987TIP3    H253839   8.940   2.095   7.181
17988TIP3   OH253840   8.671   1.693   7.374
17988TIP3    H153841   8.605   1.736   7.432
17988TIP3    H253842   8.684   1.763   7.307
17989TIP3   OH253843   9.205   2.203   7.134
17989TIP3    H153844   9.113   2.228   7.158
17989TIP3    H253845   9.217   2.259   7.056
17990TIP3   OH253846   8.944   2.272   7.189
17990TIP3    H153847   8.914   2.338   7.122
17990TIP3    H253848   8.925   2.318   7.273
17991TIP3   OH253849   8.659   1.905   7.183
17991TIP3    H153850   8.722   1.979   7.188
17991TIP3    H253851   8.706   1.851   7.115
17992TIP3   OH253852   8.583   1.157   7.295
17992TIP3    H153853   8.628   1.243   7.302
17992TIP3    H253854   8.503   1.175   7.345
17993TIP3   OH253855   8.538   2.120   7.575
17993TIP3    H153856   8.460   2.148   7.625
17993TIP3    H253857   8.515   2.156   7.486
17994TIP3   OH253858   9.155   2.198   6.821
17994TIP3    H153859   9.098   2.125   6.852
17994TIP3    H253860   9.226   2.149   6.777
17995TIP3   OH253861   9.592   2.239   6.735
17995TIP3    H153862   9.629   2.157   6.772
17995TIP3    H253863   9.629   2.242   6.644
17996TIP3   OH253864   8.795   1.718   7.032
17996TIP3    H153865   8.845   1.677   7.103
17996TIP3    H253866   8.863   1.721   6.961
17997TIP3   OH253867   9.309   1.911   6.840
17997TIP3    H153868   9.306   1.924   6.937
17997TIP3    H253869   9.302   1.813   6.835
17998TIP3   OH253870   9.022   1.613   7.265
17998TIP3    H153871   8.977   1.572   7.340
17998TIP3    H253872   9.043   1.534   7.210
17999TIP3   OH253873   9.106   1.406   7.097
17999TIP3    H153874   9.074   1.412   7.004
17999TIP3    H253875   9.201   1.424   7.083
18000TIP3   OH253876   8.912   2.471   7.002
18000TIP3    H153877   9.007   2.474   6.981
18000TIP3    H253878   8.877   2.519   6.924
18001TIP3   OH253879   8.392   1.855   7.220
18001TIP3    H153880   8.487   1.877   7.206
18001TIP3    H253881   8.387   1.767   7.177
18002TIP3   OH253882   8.305   2.468   7.630
18002TIP3    H153883   8.237   2.406   7.595
18002TIP3    H253884   8.349   2.410   7.696
18003TIP3   OH253885   8.444   2.322   7.817
18003TIP3    H153886   8.427   2.248   7.878
18003TIP3    H253887   8.490   2.383   7.876
18004TIP3   OH253888   9.731   2.583   7.307
18004TIP3    H153889   9.765   2.555   7.219
18004TIP3    H253890   9.787   2.661   7.324
18005TIP3   OH253891   8.702   2.748   8.205
18005TIP3    H153892   8.604   2.753   8.197
18005TIP3    H253893   8.712   2.695   8.286
18006TIP3   OH253894   8.923   2.653   8.062
18006TIP3    H153895   8.853   2.707   8.103
18006TIP3    H253896   8.920   2.688   7.971
18007TIP3   OH253897   8.621   2.476   7.978
18007TIP3    H153898   8.643   2.444   8.068
18007TIP3    H253899   8.694   2.434   7.928
18008TIP3   OH253900   8.816   2.349   7.830
18008TIP3    H153901   8.848   2.261   7.855
18008TIP3    H253902   8.901   2.397   7.820
18009TIP3   OH253903   9.080   2.446   7.831
18009TIP3    H153904   9.123   2.360   7.827
18009TIP3    H253905   9.091   2.470   7.924
18010TIP3   OH253906   8.409   2.244   7.372
18010TIP3    H153907   8.325   2.210   7.335
18010TIP3    H253908   8.397   2.338   7.353
18011TIP3   OH253909   9.183   2.437   6.954
18011TIP3    H153910   9.268   2.462   6.912
18011TIP3    H253911   9.159   2.363   6.894
18012TIP3   OH253912   9.827   2.519   7.067
18012TIP3    H153913   9.878   2.451   7.020
18012TIP3    H253914   9.806   2.578   6.991
18013TIP3   OH253915   8.484   2.271   7.008
18013TIP3    H153916   8.483   2.303   7.099
18013TIP3    H253917   8.574   2.231   7.000
18014TIP3   OH253918   2.277   2.949   8.980
18014TIP3    H153919   2.201   2.910   8.936
18014TIP3    H253920   2.245   2.962   9.069
18015TIP3   OH253921   1.843   2.239   8.750
18015TIP3    H153922   1.910   2.289   8.800
18015TIP3    H253923   1.901   2.178   8.701
18016TIP3   OH253924   2.075   2.389   8.832
18016TIP3    H153925   2.126   2.449   8.887
18016TIP3    H253926   2.097   2.420   8.741
18017TIP3   OH253927   2.382   3.002   8.428
18017TIP3    H153928   2.390   3.098   8.410
18017TIP3    H253929   2.474   2.972   8.413
18018TIP3   OH253930   1.677   3.312   8.908
18018TIP3    H153931   1.645   3.296   8.817
18018TIP3    H253932   1.657   3.406   8.921
18019TIP3   OH253933   1.893   3.217   8.548
18019TIP3    H153934   1.952   3.149   8.507
18019TIP3    H253935   1.934   3.227   8.636
18020TIP3   OH253936   1.939   3.274   8.821
18020TIP3    H153937   1.851   3.272   8.864
18020TIP3    H253938   1.992   3.217   8.879
18021TIP3   OH253939   2.143   2.449   8.574
18021TIP3    H153940   2.110   2.416   8.489
18021TIP3    H253941   2.226   2.491   8.547
18022TIP3   OH253942   3.974   3.798  -0.603
18022TIP3    H153943   3.891   3.810  -0.557
18022TIP3    H253944   4.023   3.877  -0.570
18023TIP3   OH253945   2.180   2.147   8.913
18023TIP3    H153946   2.276   2.148   8.924
18023TIP3    H253947   2.157   2.237   8.881
18024TIP3   OH253948   1.800   2.752   8.787
18024TIP3    H153949   1.755   2.838   8.801
18024TIP3    H253950   1.758   2.695   8.851
18025TIP3   OH253951   2.634   2.259   8.771
18025TIP3    H153952   2.566   2.206   8.725
18025TIP3    H253953   2.618   2.344   8.726
18026TIP3   OH253954   2.309   3.073   8.689
18026TIP3    H153955   2.312   3.000   8.753
18026TIP3    H253956   2.331   3.029   8.605
18027TIP3   OH253957   2.068   2.802   8.588
18027TIP3    H153958   2.127   2.773   8.661
18027TIP3    H253959   1.983   2.770   8.621
18028TIP3   OH253960   2.414   3.277   8.412
18028TIP3    H153961   2.454   3.346   8.357
18028TIP3    H253962   2.334   3.325   8.441
18029TIP3   OH253963   2.229   2.726   8.796
18029TIP3    H153964   2.218   2.694   8.887
18029TIP3    H253965   2.327   2.729   8.788
18030TIP3   OH253966   1.444   2.782   8.594
18030TIP3    H153967   1.462   2.701   8.543
18030TIP3    H253968   1.418   2.745   8.679
18031TIP3   OH253969   1.638   2.979   8.798
18031TIP3    H153970   1.545   3.008   8.792
18031TIP3    H253971   1.676   3.027   8.723
18032TIP3   OH253972   1.371   3.068   8.867
18032TIP3    H153973   1.354   3.130   8.792
18032TIP3    H253974   1.339   3.122   8.940
18033TIP3   OH253975   1.608   2.988   8.506
18033TIP3    H153976   1.553   2.912   8.538
18033TIP3    H253977   1.680   2.939   8.460
18034TIP3   OH253978   2.042   3.031   8.414
18034TIP3    H153979   2.088   2.966   8.470
18034TIP3    H253980   2.096   3.031   8.332
18035TIP3   OH253981   1.245   2.496   8.712
18035TIP3    H153982   1.291   2.447   8.781
18035TIP3    H253983   1.316   2.501   8.643
18036TIP3   OH253984   1.747   2.697   8.524
18036TIP3    H153985   1.762   2.711   8.620
18036TIP3    H253986   1.754   2.599   8.520
18037TIP3   OH253987   1.560   2.190   8.787
18037TIP3    H153988   1.529   2.196   8.695
18037TIP3    H253989   1.654   2.210   8.780
18038TIP3   OH253990   2.380   2.532   8.449
18038TIP3    H153991   2.361   2.483   8.366
18038TIP3    H253992   2.349   2.622   8.422
18039TIP3   OH253993   1.364   3.264   8.682
18039TIP3    H153994   1.459   3.269   8.663
18039TIP3    H253995   1.330   3.313   8.606
18040TIP3   OH253996   2.508   2.726   8.779
18040TIP3    H153997   2.578   2.787   8.748
18040TIP3    H253998   2.555   2.681   8.852
18041TIP3   OH253999   2.643   2.592   8.968
18041TIP3    H154000   2.592   2.554   9.042
18041TIP3    H254001   2.724   2.626   9.013
18042TIP3   OH254002   2.578   2.496   8.633
18042TIP3    H154003   2.507   2.496   8.565
18042TIP3    H254004   2.551   2.574   8.686
18043TIP3   OH254005   2.447   2.171   8.595
18043TIP3    H154006   2.414   2.205   8.511
18043TIP3    H254007   2.425   2.075   8.585
18044TIP3   OH254008   2.393   1.905   8.579
18044TIP3    H154009   2.476   1.876   8.623
18044TIP3    H254010   2.328   1.838   8.605
18045TIP3   OH254011   2.645   1.858   8.680
18045TIP3    H154012   2.690   1.774   8.659
18045TIP3    H254013   2.719   1.921   8.683
18046TIP3   OH254014   2.209   3.386   8.966
18046TIP3    H154015   2.251   3.364   8.879
18046TIP3    H254016   2.273   3.451   8.999
18047TIP3   OH254017   1.634   3.231   8.636
18047TIP3    H154018   1.724   3.249   8.601
18047TIP3    H254019   1.610   3.157   8.576
18048TIP3   OH254020   2.347   3.339   8.732
18048TIP3    H154021   2.339   3.242   8.716
18048TIP3    H254022   2.310   3.374   8.649
18049TIP3   OH254023   0.940   3.052   8.704
18049TIP3    H154024   0.948   3.099   8.788
18049TIP3    H254025   1.031   3.018   8.689
18050TIP3   OH254026   3.845   2.857   8.688
18050TIP3    H154027   3.817   2.948   8.668
18050TIP3    H254028   3.768   2.807   8.656
18051TIP3   OH254029   3.834   2.860   9.050
18051TIP3    H154030   3.857   2.832   9.141
18051TIP3    H254031   3.796   2.779   9.013
18052TIP3   OH254032   4.087   3.158   8.747
18052TIP3    H154033   4.072   3.088   8.812
18052TIP3    H254034   4.114   3.233   8.803
18053TIP3   OH254035   3.127   3.151   9.184
18053TIP3    H154036   3.115   3.059   9.153
18053TIP3    H254037   3.219   3.170   9.156
18054TIP3   OH254038   2.827   2.366   8.933
18054TIP3    H154039   2.783   2.452   8.948
18054TIP3    H254040   2.762   2.324   8.873
18055TIP3   OH254041   2.903   2.648   9.042
18055TIP3    H154042   2.949   2.586   9.099
18055TIP3    H254043   2.970   2.671   8.977
18056TIP3   OH254044   3.734   3.622   8.763
18056TIP3    H154045   3.781   3.550   8.716
18056TIP3    H254046   3.727   3.585   8.852
18057TIP3   OH254047   3.642   3.077   9.097
18057TIP3    H154048   3.684   3.001   9.054
18057TIP3    H254049   3.722   3.122   9.131
18058TIP3   OH254050   4.668   2.409   9.115
18058TIP3    H154051   4.691   2.495   9.156
18058TIP3    H254052   4.682   2.429   9.021
18059TIP3   OH254053   4.070   2.584   9.154
18059TIP3    H154054   4.102   2.491   9.160
18059TIP3    H254055   4.035   2.582   9.063
18060TIP3   OH254056   3.432   2.245   9.068
18060TIP3    H154057   3.376   2.317   9.032
18060TIP3    H254058   3.369   2.203   9.131
18061TIP3   OH254059   4.087   2.334   8.741
18061TIP3    H154060   4.160   2.317   8.806
18061TIP3    H254061   4.138   2.369   8.666
18062TIP3   OH254062   3.476   2.646   8.968
18062TIP3    H154063   3.566   2.611   8.988
18062TIP3    H254064   3.426   2.564   8.950
18063TIP3   OH254065   4.741   2.627   9.265
18063TIP3    H154066   4.652   2.668   9.255
18063TIP3    H254067   4.736   2.593   9.355
18064TIP3   OH254068   3.739   3.079   8.558
18064TIP3    H154069   3.695   3.054   8.475
18064TIP3    H254070   3.693   3.163   8.579
18065TIP3   OH254071   4.298   2.331   8.916
18065TIP3    H154072   4.308   2.290   9.004
18065TIP3    H254073   4.354   2.409   8.930
18066TIP3   OH254074   2.717   2.886   8.678
18066TIP3    H154075   2.680   2.910   8.590
18066TIP3    H254076   2.748   2.972   8.712
18067TIP3   OH254077   4.160   3.400   8.917
18067TIP3    H154078   4.069   3.392   8.955
18067TIP3    H254079   4.152   3.485   8.870
18068TIP3   OH254080   4.427   2.276   9.170
18068TIP3    H154081   4.388   2.317   9.248
18068TIP3    H254082   4.512   2.323   9.160
18069TIP3   OH254083   3.862   3.449   8.595
18069TIP3    H154084   3.911   3.366   8.572
18069TIP3    H254085   3.921   3.514   8.551
18070TIP3   OH254086   4.002   3.235   8.495
18070TIP3    H154087   3.966   3.155   8.454
18070TIP3    H254088   4.036   3.198   8.580
18071TIP3   OH254089   4.382   3.315   9.263
18071TIP3    H154090   4.372   3.237   9.204
18071TIP3    H254091   4.368   3.389   9.200
18072TIP3   OH254092   3.676   2.709   8.516
18072TIP3    H154093   3.594   2.759   8.493
18072TIP3    H254094   3.722   2.705   8.431
18073TIP3   OH254095   3.634   2.491   8.238
18073TIP3    H154096   3.704   2.541   8.284
18073TIP3    H254097   3.689   2.427   8.189
18074TIP3   OH254098   4.581   2.953   9.106
18074TIP3    H154099   4.496   3.002   9.115
18074TIP3    H254100   4.604   2.976   9.013
18075TIP3   OH254101   4.022   2.791   8.490
18075TIP3    H154102   3.967   2.816   8.568
18075TIP3    H254103   4.105   2.764   8.535
18076TIP3   OH254104   4.301   2.904   9.328
18076TIP3    H154105   4.315   2.912   9.424
18076TIP3    H254106   4.223   2.847   9.322
18077TIP3   OH254107   3.250   2.789   8.905
18077TIP3    H154108   3.208   2.732   8.836
18077TIP3    H254109   3.332   2.738   8.924
18078TIP3   OH254110   3.379   3.196   9.054
18078TIP3    H154111   3.368   3.154   8.967
18078TIP3    H254112   3.468   3.162   9.080
18079TIP3   OH254113   3.443   2.771   9.209
18079TIP3    H154114   3.479   2.744   9.122
18079TIP3    H254115   3.519   2.812   9.254
18080TIP3   OH254116   3.918   3.400   9.033
18080TIP3    H154117   3.893   3.479   9.084
18080TIP3    H254118   3.896   3.325   9.091
18081TIP3   OH254119   3.865   2.648   8.316
18081TIP3    H154120   3.923   2.707   8.368
18081TIP3    H254121   3.890   2.673   8.224
18082TIP3   OH254122   3.604   3.331   8.593
18082TIP3    H154123   3.682   3.386   8.612
18082TIP3    H254124   3.543   3.394   8.551
18083TIP3   OH254125   4.378   1.891   8.362
18083TIP3    H154126   4.298   1.910   8.414
18083TIP3    H254127   4.390   1.975   8.313
18084TIP3   OH254128   3.112   2.636   8.720
18084TIP3    H154129   3.050   2.676   8.655
18084TIP3    H254130   3.085   2.544   8.718
18085TIP3   OH254131   4.177   3.259   7.912
18085TIP3    H154132   4.185   3.355   7.897
18085TIP3    H254133   4.269   3.229   7.899
18086TIP3   OH254134   4.636   3.652   9.299
18086TIP3    H154135   4.637   3.556   9.317
18086TIP3    H254136   4.543   3.671   9.324
18087TIP3   OH254137   3.731   3.480   9.424
18087TIP3    H154138   3.698   3.566   9.456
18087TIP3    H254139   3.658   3.420   9.449
18088TIP3   OH254140   3.485   3.575   8.393
18088TIP3    H154141   3.441   3.555   8.308
18088TIP3    H254142   3.454   3.666   8.412
18089TIP3   OH254143   2.924   3.426   8.776
18089TIP3    H154144   2.974   3.415   8.860
18089TIP3    H254145   2.862   3.351   8.783
18090TIP3   OH254146   3.689   3.476   8.034
18090TIP3    H154147   3.748   3.406   7.997
18090TIP3    H254148   3.723   3.484   8.126
18091TIP3   OH254149   3.738   3.525   8.305
18091TIP3    H154150   3.649   3.533   8.347
18091TIP3    H254151   3.788   3.480   8.375
18092TIP3   OH254152   3.940   2.699   8.060
18092TIP3    H154153   3.906   2.671   7.973
18092TIP3    H254154   4.020   2.748   8.034
18093TIP3   OH254155   3.653   2.073   8.360
18093TIP3    H154156   3.621   2.071   8.452
18093TIP3    H254157   3.615   1.989   8.328
18094TIP3   OH254158   3.304   2.439   8.913
18094TIP3    H154159   3.218   2.398   8.938
18094TIP3    H254160   3.322   2.392   8.828
18095TIP3   OH254161   3.815   2.512   8.650
18095TIP3    H154162   3.759   2.582   8.609
18095TIP3    H254163   3.868   2.482   8.573
18096TIP3   OH254164   3.974   2.542   8.892
18096TIP3    H154165   3.914   2.570   8.820
18096TIP3    H254166   4.006   2.458   8.851
18097TIP3   OH254167   3.309   2.044   8.326
18097TIP3    H154168   3.302   2.040   8.423
18097TIP3    H254169   3.227   2.093   8.304
18098TIP3   OH254170   2.831   2.067   8.713
18098TIP3    H154171   2.875   2.107   8.634
18098TIP3    H254172   2.769   2.139   8.735
18099TIP3   OH254173   3.923   2.769   9.291
18099TIP3    H154174   3.992   2.710   9.252
18099TIP3    H254175   3.972   2.813   9.363
18100TIP3   OH254176   3.679   2.250   8.964
18100TIP3    H154177   3.587   2.246   9.003
18100TIP3    H254178   3.735   2.241   9.043
18101TIP3   OH254179   3.088   2.294   8.999
18101TIP3    H154180   2.997   2.303   8.963
18101TIP3    H254181   3.114   2.203   8.973
18102TIP3   OH254182   3.355   2.301   8.682
18102TIP3    H154183   3.450   2.313   8.661
18102TIP3    H254184   3.311   2.321   8.597
18103TIP3   OH254185   4.125   2.324   9.175
18103TIP3    H154186   4.097   2.304   9.267
18103TIP3    H254187   4.081   2.252   9.127
18104TIP3   OH254188   3.190   2.335   8.461
18104TIP3    H154189   3.119   2.288   8.414
18104TIP3    H254190   3.243   2.368   8.385
18105TIP3   OH254191   4.252   4.090   9.357
18105TIP3    H154192   4.297   4.056   9.278
18105TIP3    H254193   4.307   4.047   9.427
18106TIP3   OH254194   3.729   2.580   9.054
18106TIP3    H154195   3.804   2.533   9.014
18106TIP3    H254196   3.731   2.550   9.146
18107TIP3   OH254197   3.229   2.046   8.940
18107TIP3    H154198   3.240   1.957   8.975
18107TIP3    H254199   3.314   2.061   8.897
18108TIP3   OH254200   3.445   2.863   8.466
18108TIP3    H154201   3.373   2.797   8.456
18108TIP3    H254202   3.429   2.895   8.558
18109TIP3   OH254203   4.351   3.104   9.095
18109TIP3    H154204   4.370   3.149   9.011
18109TIP3    H254205   4.266   3.057   9.077
18110TIP3   OH254206   3.905   2.175   8.326
18110TIP3    H154207   3.808   2.159   8.335
18110TIP3    H254208   3.915   2.270   8.350
18111TIP3   OH254209   3.975   2.421   8.431
18111TIP3    H154210   4.071   2.427   8.446
18111TIP3    H254211   3.957   2.500   8.377
18112TIP3   OH254212   3.112   2.883   9.124
18112TIP3    H154213   3.161   2.856   9.042
18112TIP3    H254214   3.145   2.818   9.187
18113TIP3   OH254215   3.592   3.012   8.288
18113TIP3    H154216   3.545   3.098   8.296
18113TIP3    H254217   3.537   2.956   8.347
18114TIP3   OH254218   4.002   3.411   9.392
18114TIP3    H154219   3.912   3.444   9.378
18114TIP3    H254220   4.050   3.490   9.422
18115TIP3   OH254221   4.418   2.509   8.268
18115TIP3    H154222   4.355   2.463   8.207
18115TIP3    H254223   4.415   2.597   8.226
18116TIP3   OH254224   4.630   3.368   9.351
18116TIP3    H154225   4.532   3.366   9.338
18116TIP3    H254226   4.658   3.339   9.261
18117TIP3   OH254227   4.117   3.330   8.176
18117TIP3    H154228   4.092   3.258   8.236
18117TIP3    H254229   4.128   3.284   8.091
18118TIP3   OH254230   4.107   2.958   9.021
18118TIP3    H154231   4.013   2.932   9.022
18118TIP3    H254232   4.146   2.881   8.975
18119TIP3   OH254233   3.237   3.185   8.768
18119TIP3    H154234   3.243   3.267   8.715
18119TIP3    H254235   3.142   3.172   8.772
18120TIP3   OH254236   2.801   2.492   8.469
18120TIP3    H154237   2.848   2.576   8.489
18120TIP3    H254238   2.724   2.500   8.530
18121TIP3   OH254239   3.380   2.954   8.713
18121TIP3    H154240   3.344   3.043   8.731
18121TIP3    H254241   3.344   2.903   8.789
18122TIP3   OH254242   3.510   3.537   9.234
18122TIP3    H154243   3.545   3.611   9.180
18122TIP3    H254244   3.592   3.498   9.267
18123TIP3   OH254245   3.160   3.426   8.621
18123TIP3    H154246   3.073   3.433   8.666
18123TIP3    H254247   3.191   3.519   8.624
18124TIP3   OH254248   3.897   3.170   9.185
18124TIP3    H154249   3.905   3.181   9.282
18124TIP3    H254250   3.977   3.120   9.164
18125TIP3   OH254251   3.869   3.057   8.078
18125TIP3    H154252   3.921   3.033   8.157
18125TIP3    H254253   3.780   3.030   8.106
18126TIP3   OH254254   4.114   3.700   9.252
18126TIP3    H154255   4.037   3.656   9.212
18126TIP3    H254256   4.126   3.773   9.187
18127TIP3   OH254257   4.211   3.534   7.898
18127TIP3    H154258   4.250   3.605   7.844
18127TIP3    H254259   4.131   3.580   7.930
18128TIP3   OH254260   4.029   2.994   8.297
18128TIP3    H154261   4.019   2.926   8.366
18128TIP3    H254262   4.126   2.991   8.283
18129TIP3   OH254263   3.238   3.040   8.078
18129TIP3    H154264   3.250   2.950   8.044
18129TIP3    H254265   3.219   3.023   8.172
18130TIP3   OH254266   3.182   3.043   8.353
18130TIP3    H154267   3.256   3.015   8.409
18130TIP3    H254268   3.188   3.141   8.357
18131TIP3   OH254269   2.918   2.737   8.550
18131TIP3    H154270   2.854   2.783   8.608
18131TIP3    H254271   2.935   2.807   8.484
18132TIP3   OH254272   3.945   2.128   8.607
18132TIP3    H154273   3.931   2.151   8.514
18132TIP3    H254274   3.984   2.210   8.643
18133TIP3   OH254275   3.449   3.242   8.301
18133TIP3    H154276   3.361   3.271   8.334
18133TIP3    H254277   3.464   3.307   8.231
18134TIP3   OH254278   3.639   2.306   8.703
18134TIP3    H154279   3.703   2.377   8.684
18134TIP3    H254280   3.651   2.296   8.800
18135TIP3   OH254281   3.786   2.036   8.818
18135TIP3    H154282   3.769   2.117   8.869
18135TIP3    H254283   3.846   2.071   8.748
18136TIP3   OH254284   3.190   3.317   8.364
18136TIP3    H154285   3.160   3.386   8.301
18136TIP3    H254286   3.175   3.361   8.450
18137TIP3   OH254287   3.293   2.029   8.599
18137TIP3    H154288   3.289   2.116   8.642
18137TIP3    H254289   3.387   2.008   8.613
18138TIP3   OH254290   4.197   2.721   8.890
18138TIP3    H154291   4.123   2.657   8.897
18138TIP3    H254292   4.270   2.673   8.936
18139TIP3   OH254293   2.908   2.951   8.359
18139TIP3    H154294   2.975   3.022   8.367
18139TIP3    H254295   2.953   2.895   8.292
18140TIP3   OH254296   2.857   2.224   8.490
18140TIP3    H154297   2.853   2.321   8.484
18140TIP3    H254298   2.775   2.197   8.448
18141TIP3   OH254299   4.166   3.673   8.839
18141TIP3    H154300   4.123   3.720   8.764
18141TIP3    H254301   4.260   3.689   8.816
18142TIP3   OH254302   2.783   3.160   8.752
18142TIP3    H154303   2.703   3.195   8.794
18142TIP3    H254304   2.773   3.197   8.662
18143TIP3   OH254305   3.403   3.244   7.994
18143TIP3    H154306   3.345   3.172   8.030
18143TIP3    H254307   3.476   3.191   7.957
18144TIP3   OH254308   3.839   3.286   7.902
18144TIP3    H154309   3.883   3.221   7.958
18144TIP3    H254310   3.894   3.286   7.821
18145TIP3   OH254311   3.043   2.762   8.210
18145TIP3    H154312   3.099   2.725   8.281
18145TIP3    H254313   3.109   2.766   8.138
18146TIP3   OH254314   3.553   2.958   8.018
18146TIP3    H154315   3.555   2.970   8.115
18146TIP3    H254316   3.552   2.860   8.012
18147TIP3   OH254317   4.143   3.172   9.386
18147TIP3    H154318   4.234   3.191   9.359
18147TIP3    H254319   4.108   3.263   9.392
18148TIP3   OH254320   3.256   2.661   8.435
18148TIP3    H154321   3.231   2.615   8.516
18148TIP3    H254322   3.290   2.587   8.380
18149TIP3   OH254323   3.352   2.456   8.275
18149TIP3    H154324   3.326   2.456   8.180
18149TIP3    H254325   3.450   2.462   8.266
18150TIP3   OH254326   4.178   2.789   7.935
18150TIP3    H154327   4.155   2.741   7.853
18150TIP3    H254328   4.146   2.879   7.909
18151TIP3   OH254329   3.160   3.520   8.179
18151TIP3    H154330   3.255   3.517   8.158
18151TIP3    H254331   3.128   3.565   8.098
18152TIP3   OH254332   2.641   2.898   8.398
18152TIP3    H154333   2.735   2.922   8.381
18152TIP3    H254334   2.636   2.810   8.355
18153TIP3   OH254335   2.552   3.513   8.805
18153TIP3    H154336   2.487   3.448   8.770
18153TIP3    H254337   2.600   3.459   8.872
18154TIP3   OH254338   2.689   3.375   8.993
18154TIP3    H154339   2.679   3.300   9.051
18154TIP3    H254340   2.731   3.439   9.054
18155TIP3   OH254341   4.420   3.762   8.788
18155TIP3    H154342   4.443   3.786   8.880
18155TIP3    H254343   4.480   3.819   8.736
18156TIP3   OH254344   4.453   3.782   9.062
18156TIP3    H154345   4.411   3.693   9.070
18156TIP3    H254346   4.514   3.777   9.138
18157TIP3   OH254347   4.309   2.976   8.270
18157TIP3    H154348   4.379   3.038   8.242
18157TIP3    H254349   4.351   2.935   8.349
18158TIP3   OH254350   4.437   2.844   8.473
18158TIP3    H154351   4.372   2.800   8.532
18158TIP3    H254352   4.501   2.882   8.536
18159TIP3   OH254353   4.492   3.236   8.901
18159TIP3    H154354   4.546   3.171   8.852
18159TIP3    H254355   4.480   3.308   8.837
18160TIP3   OH254356   4.329   3.533   9.095
18160TIP3    H154357   4.265   3.570   9.159
18160TIP3    H254358   4.272   3.485   9.031
18161TIP3   OH254359   4.376   2.750   8.121
18161TIP3    H154360   4.305   2.753   8.053
18161TIP3    H254361   4.349   2.826   8.175
18162TIP3   OH254362   4.247   2.424   8.076
18162TIP3    H154363   4.206   2.463   7.998
18162TIP3    H254364   4.221   2.329   8.065
18163TIP3   OH254365   4.253   2.698   8.620
18163TIP3    H154366   4.260   2.601   8.615
18163TIP3    H254367   4.240   2.712   8.716
18164TIP3   OH254368   4.540   3.116   9.456
18164TIP3    H154369   4.595   3.056   9.403
18164TIP3    H254370   4.555   3.202   9.412
18165TIP3   OH254371   4.730   2.910   9.446
18165TIP3    H154372   4.659   2.867   9.494
18165TIP3    H254373   4.805   2.852   9.465
18166TIP3   OH254374   4.191   2.158   8.063
18166TIP3    H154375   4.267   2.127   8.116
18166TIP3    H254376   4.118   2.098   8.089
18167TIP3   OH254377   4.248   2.415   8.517
18167TIP3    H154378   4.288   2.325   8.532
18167TIP3    H254379   4.307   2.446   8.446
18168TIP3   OH254380   4.410   2.595   9.007
18168TIP3    H154381   4.497   2.618   8.967
18168TIP3    H254382   4.427   2.625   9.098
18169TIP3   OH254383   4.488   2.731   9.242
18169TIP3    H154384   4.412   2.776   9.284
18169TIP3    H254385   4.522   2.807   9.190
18170TIP3   OH254386   4.355   2.165   8.551
18170TIP3    H154387   4.406   2.149   8.634
18170TIP3    H254388   4.296   2.086   8.551
18171TIP3   OH254389   4.440   2.102   8.183
18171TIP3    H154390   4.480   2.027   8.134
18171TIP3    H254391   4.508   2.171   8.176
18172TIP3   OH254392   2.860   1.972   8.967
18172TIP3    H154393   2.793   1.902   8.968
18172TIP3    H254394   2.859   2.001   8.874
18173TIP3   OH254395   4.002   3.631   8.452
18173TIP3    H154396   4.052   3.613   8.369
18173TIP3    H254397   4.058   3.698   8.494
18174TIP3   OH254398   3.259   3.453   9.339
18174TIP3    H154399   3.231   3.544   9.321
18174TIP3    H254400   3.354   3.459   9.321
18175TIP3   OH254401   3.890   3.846   9.392
18175TIP3    H154402   3.964   3.804   9.346
18175TIP3    H254403   3.936   3.921   9.435
18176TIP3   OH254404   3.194   3.710   9.263
18176TIP3    H154405   3.114   3.736   9.310
18176TIP3    H254406   3.173   3.738   9.171
18177TIP3   OH254407   3.623   3.734   9.057
18177TIP3    H154408   3.549   3.751   8.995
18177TIP3    H254409   3.632   3.822   9.100
18178TIP3   OH254410   3.884   3.669   9.110
18178TIP3    H154411   3.790   3.688   9.090
18178TIP3    H254412   3.927   3.746   9.069
18179TIP3   OH254413   4.099   3.865   9.032
18179TIP3    H154414   4.083   3.950   8.985
18179TIP3    H254415   4.123   3.805   8.959
18180TIP3   OH254416   2.876   3.528   9.144
18180TIP3    H154417   2.874   3.494   9.235
18180TIP3    H254418   2.947   3.474   9.104
18181TIP3   OH254419   3.065   3.384   9.008
18181TIP3    H154420   3.084   3.305   9.062
18181TIP3    H254421   3.154   3.426   9.004
18182TIP3   OH254422   3.327   3.488   9.009
18182TIP3    H154423   3.360   3.397   8.997
18182TIP3    H254424   3.359   3.505   9.099
18183TIP3   OH254425   3.906   2.141   9.102
18183TIP3    H154426   3.884   2.064   9.156
18183TIP3    H254427   3.977   2.105   9.046
18184TIP3   OH254428   4.423   2.015   8.985
18184TIP3    H154429   4.464   2.073   8.917
18184TIP3    H254430   4.340   2.063   9.003
18185TIP3   OH254431   4.527   2.129   8.763
18185TIP3    H154432   4.598   2.074   8.724
18185TIP3    H254433   4.562   2.220   8.747
18186TIP3   OH254434   2.920   1.710   8.734
18186TIP3    H154435   2.967   1.778   8.682
18186TIP3    H254436   2.913   1.753   8.821
18187TIP3   OH254437   3.593   1.882   8.988
18187TIP3    H154438   3.659   1.941   8.947
18187TIP3    H254439   3.595   1.908   9.081
18188TIP3   OH254440   4.127   2.027   8.982
18188TIP3    H154441   4.147   2.003   8.891
18188TIP3    H254442   4.123   1.940   9.026
18189TIP3   OH254443   4.174   1.951   8.542
18189TIP3    H154444   4.086   1.991   8.551
18189TIP3    H254445   4.160   1.866   8.589
18190TIP3   OH254446   2.655   3.290   8.551
18190TIP3    H154447   2.572   3.256   8.511
18190TIP3    H254448   2.645   3.384   8.529
18191TIP3   OH254449   3.057   1.883   8.526
18191TIP3    H154450   3.106   1.818   8.472
18191TIP3    H254451   3.129   1.935   8.565
18192TIP3   OH254452   3.570   2.052   8.626
18192TIP3    H154453   3.626   2.004   8.689
18192TIP3    H254454   3.594   2.145   8.651
18193TIP3   OH254455   3.429   3.482   8.126
18193TIP3    H154456   3.518   3.503   8.090
18193TIP3    H254457   3.407   3.406   8.068
18194TIP3   OH254458   4.147   3.596   8.219
18194TIP3    H154459   4.139   3.499   8.206
18194TIP3    H254460   4.103   3.629   8.138
18195TIP3   OH254461   2.734   3.318   8.185
18195TIP3    H154462   2.737   3.345   8.278
18195TIP3    H254463   2.822   3.275   8.173
18196TIP3   OH254464   4.374   3.688   9.353
18196TIP3    H154465   4.277   3.695   9.343
18196TIP3    H254466   4.389   3.759   9.421
18197TIP3   OH254467   5.640   3.114   8.177
18197TIP3    H154468   5.612   3.205   8.154
18197TIP3    H254469   5.565   3.064   8.140
18198TIP3   OH254470   5.639   3.115   8.554
18198TIP3    H154471   5.667   3.077   8.638
18198TIP3    H254472   5.598   3.039   8.509
18199TIP3   OH254473   4.940   3.011   8.919
18199TIP3    H154474   4.972   2.944   8.981
18199TIP3    H254475   5.018   3.066   8.909
18200TIP3   OH254476   5.883   3.413   8.234
18200TIP3    H154477   5.868   3.343   8.299
18200TIP3    H254478   5.909   3.488   8.290
18201TIP3   OH254479   4.910   3.419   8.650
18201TIP3    H154480   4.900   3.322   8.651
18201TIP3    H254481   5.007   3.425   8.639
18202TIP3   OH254482   4.617   2.626   8.433
18202TIP3    H154483   4.565   2.708   8.443
18202TIP3    H254484   4.549   2.567   8.397
18203TIP3   OH254485   4.679   2.911   8.600
18203TIP3    H154486   4.726   2.833   8.638
18203TIP3    H254487   4.733   2.931   8.523
18204TIP3   OH254488   5.529   3.877   8.253
18204TIP3    H154489   5.575   3.809   8.199
18204TIP3    H254490   5.531   3.836   8.341
18205TIP3   OH254491   5.438   3.339   8.603
18205TIP3    H154492   5.472   3.263   8.554
18205TIP3    H254493   5.523   3.382   8.625
18206TIP3   OH254494   6.454   2.659   8.600
18206TIP3    H154495   6.480   2.744   8.641
18206TIP3    H254496   6.470   2.677   8.506
18207TIP3   OH254497   5.848   2.849   8.635
18207TIP3    H154498   5.890   2.762   8.655
18207TIP3    H254499   5.818   2.833   8.544
18208TIP3   OH254500   5.185   2.501   8.602
18208TIP3    H154501   5.164   2.572   8.538
18208TIP3    H254502   5.139   2.426   8.558
18209TIP3   OH254503   5.880   2.594   8.225
18209TIP3    H154504   5.952   2.573   8.288
18209TIP3    H254505   5.932   2.627   8.149
18210TIP3   OH254506   4.823   2.704   8.708
18210TIP3    H154507   4.905   2.681   8.754
18210TIP3    H254508   4.832   2.647   8.628
18211TIP3   OH254509   5.263   2.901   8.500
18211TIP3    H154510   5.356   2.874   8.513
18211TIP3    H254511   5.223   2.817   8.468
18212TIP3   OH254512   6.527   2.869   8.770
18212TIP3    H154513   6.443   2.915   8.748
18212TIP3    H254514   6.531   2.887   8.864
18213TIP3   OH254515   5.185   2.487   9.036
18213TIP3    H154516   5.125   2.520   8.967
18213TIP3    H254517   5.131   2.505   9.116
18214TIP3   OH254518   5.533   3.334   8.046
18214TIP3    H154519   5.492   3.311   7.962
18214TIP3    H254520   5.489   3.419   8.067
18215TIP3   OH254521   5.294   3.257   8.833
18215TIP3    H154522   5.228   3.320   8.870
18215TIP3    H254523   5.333   3.309   8.760
18216TIP3   OH254524   6.095   2.590   8.392
18216TIP3    H154525   6.081   2.539   8.474
18216TIP3    H254526   6.148   2.665   8.423
18217TIP3   OH254527   5.056   2.599   8.821
18217TIP3    H154528   5.120   2.671   8.841
18217TIP3    H254529   5.102   2.557   8.744
18218TIP3   OH254530   5.121   3.446   8.931
18218TIP3    H154531   5.096   3.532   8.891
18218TIP3    H254532   5.042   3.431   8.987
18219TIP3   OH254533   4.516   3.141   8.164
18219TIP3    H154534   4.474   3.165   8.080
18219TIP3    H254535   4.544   3.228   8.200
18220TIP3   OH254536   5.955   3.658   8.408
18220TIP3    H154537   5.864   3.649   8.444
18220TIP3    H254538   5.947   3.742   8.359
18221TIP3   OH254539   6.243   2.569   8.772
18221TIP3    H154540   6.153   2.586   8.739
18221TIP3    H254541   6.299   2.591   8.695
18222TIP3   OH254542   5.515   2.197   8.733
18222TIP3    H154543   5.523   2.107   8.767
18222TIP3    H254544   5.447   2.234   8.794
18223TIP3   OH254545   5.656   3.706   8.082
18223TIP3    H154546   5.705   3.624   8.058
18223TIP3    H254547   5.716   3.772   8.038
18224TIP3   OH254548   5.797   3.491   7.983
18224TIP3    H154549   5.763   3.412   7.939
18224TIP3    H254550   5.832   3.454   8.067
18225TIP3   OH254551   6.180   3.572   8.748
18225TIP3    H154552   6.170   3.495   8.688
18225TIP3    H254553   6.163   3.647   8.687
18226TIP3   OH254554   5.472   2.967   8.004
18226TIP3    H154555   5.391   3.016   7.980
18226TIP3    H254556   5.518   2.961   7.918
18227TIP3   OH254557   5.430   2.748   7.725
18227TIP3    H154558   5.500   2.798   7.770
18227TIP3    H254559   5.486   2.684   7.675
18228TIP3   OH254560   6.376   3.209   8.593
18228TIP3    H154561   6.292   3.261   8.597
18228TIP3    H254562   6.404   3.230   8.501
18229TIP3   OH254563   5.818   3.048   7.978
18229TIP3    H154564   5.763   3.073   8.056
18229TIP3    H254565   5.901   3.020   8.022
18230TIP3   OH254566   6.055   3.089   8.885
18230TIP3    H154567   6.049   3.176   8.929
18230TIP3    H254568   5.967   3.088   8.839
18231TIP3   OH254569   5.050   3.047   8.393
18231TIP3    H154570   5.007   2.989   8.326
18231TIP3    H254571   5.127   2.992   8.420
18232TIP3   OH254572   5.180   3.457   8.543
18232TIP3    H154573   5.157   3.415   8.458
18232TIP3    H254574   5.270   3.423   8.558
18233TIP3   OH254575   5.191   3.015   8.749
18233TIP3    H154576   5.220   2.995   8.657
18233TIP3    H254577   5.232   3.102   8.766
18234TIP3   OH254578   5.712   3.655   8.524
18234TIP3    H154579   5.699   3.734   8.580
18234TIP3    H254580   5.699   3.581   8.586
18235TIP3   OH254581   5.323   3.575   9.075
18235TIP3    H154582   5.260   3.637   9.117
18235TIP3    H254583   5.260   3.519   9.024
18236TIP3   OH254584   5.660   2.905   7.803
18236TIP3    H154585   5.719   2.964   7.855
18236TIP3    H254586   5.686   2.930   7.710
18237TIP3   OH254587   5.081   3.133   9.171
18237TIP3    H154588   5.082   3.218   9.218
18237TIP3    H254589   4.985   3.113   9.173
18238TIP3   OH254590   5.398   3.589   8.085
18238TIP3    H154591   5.478   3.644   8.098
18238TIP3    H254592   5.341   3.646   8.032
18239TIP3   OH254593   5.121   3.743   9.160
18239TIP3    H154594   5.084   3.736   9.071
18239TIP3    H254595   5.043   3.722   9.217
18240TIP3   OH254596   6.176   2.147   7.851
18240TIP3    H154597   6.094   2.166   7.901
18240TIP3    H254598   6.188   2.230   7.800
18241TIP3   OH254599   4.915   2.890   8.202
18241TIP3    H154600   4.852   2.934   8.141
18241TIP3    H254601   4.876   2.802   8.210
18242TIP3   OH254602   5.972   3.516   7.398
18242TIP3    H154603   5.981   3.613   7.384
18242TIP3    H254604   6.065   3.486   7.385
18243TIP3   OH254605   4.696   3.276   9.104
18243TIP3    H154606   4.630   3.252   9.036
18243TIP3    H254607   4.736   3.189   9.127
18244TIP3   OH254608   4.551   3.466   8.735
18244TIP3    H154609   4.647   3.459   8.729
18244TIP3    H254610   4.537   3.544   8.791
18245TIP3   OH254611   6.418   3.915   8.794
18245TIP3    H154612   6.415   3.818   8.803
18245TIP3    H254613   6.333   3.940   8.838
18246TIP3   OH254614   5.524   3.702   8.929
18246TIP3    H154615   5.523   3.795   8.958
18246TIP3    H254616   5.449   3.665   8.981
18247TIP3   OH254617   5.274   3.839   7.869
18247TIP3    H154618   5.228   3.839   7.783
18247TIP3    H254619   5.257   3.930   7.898
18248TIP3   OH254620   4.720   3.686   8.263
18248TIP3    H154621   4.765   3.673   8.349
18248TIP3    H254622   4.659   3.609   8.263
18249TIP3   OH254623   5.504   3.744   7.511
18249TIP3    H154624   5.551   3.663   7.484
18249TIP3    H254625   5.511   3.744   7.608
18250TIP3   OH254626   5.533   3.781   7.792
18250TIP3    H154627   5.441   3.792   7.826
18250TIP3    H254628   5.576   3.735   7.865
18251TIP3   OH254629   6.305   3.048   9.067
18251TIP3    H154630   6.227   3.062   9.011
18251TIP3    H254631   6.321   2.952   9.054
18252TIP3   OH254632   4.904   3.454   9.093
18252TIP3    H154633   4.951   3.442   9.179
18252TIP3    H254634   4.829   3.392   9.102
18253TIP3   OH254635   5.298   2.277   8.885
18253TIP3    H154636   5.210   2.246   8.856
18253TIP3    H254637   5.273   2.363   8.923
18254TIP3   OH254638   5.834   2.402   9.074
18254TIP3    H154639   5.902   2.365   9.133
18254TIP3    H254640   5.750   2.372   9.113
18255TIP3   OH254641   6.084   2.826   8.994
18255TIP3    H154642   6.029   2.821   9.076
18255TIP3    H254643   6.052   2.908   8.952
18256TIP3   OH254644   5.737   2.958   7.549
18256TIP3    H154645   5.702   2.929   7.462
18256TIP3    H254646   5.817   3.006   7.521
18257TIP3   OH254647   5.449   2.329   7.847
18257TIP3    H154648   5.418   2.327   7.940
18257TIP3    H254649   5.411   2.245   7.815
18258TIP3   OH254650   5.237   2.794   8.898
18258TIP3    H154651   5.182   2.814   8.976
18258TIP3    H254652   5.219   2.874   8.842
18259TIP3   OH254653   5.118   2.681   8.410
18259TIP3    H154654   5.025   2.654   8.426
18259TIP3    H254655   5.132   2.641   8.321
18260TIP3   OH254656   5.610   2.768   8.137
18260TIP3    H154657   5.555   2.838   8.095
18260TIP3    H254658   5.664   2.737   8.062
18261TIP3   OH254659   5.786   3.054   9.234
18261TIP3    H154660   5.762   2.975   9.287
18261TIP3    H254661   5.883   3.053   9.244
18262TIP3   OH254662   5.766   2.799   8.376
18262TIP3    H154663   5.707   2.825   8.302
18262TIP3    H254664   5.801   2.716   8.336
18263TIP3   OH254665   5.054   2.826   9.103
18263TIP3    H154666   5.073   2.887   9.176
18263TIP3    H254667   5.039   2.742   9.151
18264TIP3   OH254668   5.104   2.300   7.815
18264TIP3    H154669   5.097   2.296   7.912
18264TIP3    H254670   5.023   2.350   7.792
18265TIP3   OH254671   4.648   2.355   8.681
18265TIP3    H154672   4.725   2.379   8.735
18265TIP3    H254673   4.687   2.313   8.602
18266TIP3   OH254674   4.624   2.327   8.205
18266TIP3    H154675   4.668   2.367   8.126
18266TIP3    H254676   4.562   2.400   8.226
18267TIP3   OH254677   5.782   3.045   8.805
18267TIP3    H154678   5.811   2.974   8.743
18267TIP3    H254679   5.749   2.990   8.879
18268TIP3   OH254680   5.444   2.509   8.477
18268TIP3    H154681   5.356   2.498   8.518
18268TIP3    H254682   5.500   2.506   8.556
18269TIP3   OH254683   4.880   2.557   8.481
18269TIP3    H154684   4.786   2.564   8.454
18269TIP3    H254685   4.904   2.466   8.457
18270TIP3   OH254686   5.151   2.557   8.168
18270TIP3    H154687   5.246   2.570   8.147
18270TIP3    H254688   5.106   2.579   8.083
18271TIP3   OH254689   5.943   2.598   8.680
18271TIP3    H154690   5.893   2.597   8.764
18271TIP3    H254691   5.933   2.502   8.654
18272TIP3   OH254692   4.988   2.589   7.947
18272TIP3    H154693   4.916   2.544   7.899
18272TIP3    H254694   5.040   2.623   7.872
18273TIP3   OH254695   6.106   4.266   8.891
18273TIP3    H154696   6.103   4.290   8.796
18273TIP3    H254697   6.183   4.318   8.921
18274TIP3   OH254698   5.063   3.378   9.316
18274TIP3    H154699   5.143   3.412   9.361
18274TIP3    H254700   4.999   3.379   9.389
18275TIP3   OH254701   5.531   2.832   8.570
18275TIP3    H154702   5.599   2.791   8.515
18275TIP3    H254703   5.542   2.787   8.656
18276TIP3   OH254704   5.055   2.319   8.445
18276TIP3    H154705   5.022   2.238   8.490
18276TIP3    H254706   5.109   2.282   8.374
18277TIP3   OH254707   5.506   2.723   8.859
18277TIP3    H154708   5.416   2.760   8.872
18277TIP3    H254709   5.562   2.785   8.910
18278TIP3   OH254710   5.241   3.120   7.953
18278TIP3    H154711   5.170   3.054   7.943
18278TIP3    H254712   5.225   3.152   8.045
18279TIP3   OH254713   6.143   3.354   8.585
18279TIP3    H154714   6.168   3.402   8.503
18279TIP3    H254715   6.058   3.312   8.560
18280TIP3   OH254716   5.701   2.432   7.814
18280TIP3    H154717   5.604   2.416   7.821
18280TIP3    H254718   5.710   2.527   7.835
18281TIP3   OH254719   5.649   3.439   8.951
18281TIP3    H154720   5.650   3.410   9.042
18281TIP3    H254721   5.603   3.525   8.956
18282TIP3   OH254722   5.771   2.678   7.919
18282TIP3    H154723   5.867   2.683   7.932
18282TIP3    H254724   5.752   2.756   7.862
18283TIP3   OH254725   4.937   3.143   8.631
18283TIP3    H154726   4.972   3.113   8.545
18283TIP3    H254727   4.968   3.074   8.691
18284TIP3   OH254728   5.388   3.271   7.775
18284TIP3    H154729   5.342   3.358   7.781
18284TIP3    H254730   5.332   3.216   7.834
18285TIP3   OH254731   4.817   3.063   9.229
18285TIP3    H154732   4.829   3.045   9.324
18285TIP3    H254733   4.748   2.997   9.207
18286TIP3   OH254734   5.537   3.171   9.266
18286TIP3    H154735   5.476   3.116   9.214
18286TIP3    H254736   5.624   3.138   9.234
18287TIP3   OH254737   5.805   3.697   8.846
18287TIP3    H154738   5.708   3.692   8.855
18287TIP3    H254739   5.829   3.751   8.924
18288TIP3   OH254740   6.215   2.765   7.754
18288TIP3    H154741   6.151   2.720   7.694
18288TIP3    H254742   6.211   2.854   7.712
18289TIP3   OH254743   6.431   3.624   8.837
18289TIP3    H154744   6.333   3.619   8.827
18289TIP3    H254745   6.457   3.594   8.746
18290TIP3   OH254746   5.919   3.585   7.664
18290TIP3    H154747   5.886   3.516   7.723
18290TIP3    H254748   5.924   3.540   7.578
18291TIP3   OH254749   5.909   3.215   8.507
18291TIP3    H154750   5.815   3.188   8.517
18291TIP3    H254751   5.944   3.136   8.460
18292TIP3   OH254752   5.034   3.446   8.260
18292TIP3    H154753   5.037   3.524   8.202
18292TIP3    H254754   4.940   3.424   8.257
18293TIP3   OH254755   4.597   2.748   7.956
18293TIP3    H154756   4.644   2.832   7.976
18293TIP3    H254757   4.520   2.755   8.016
18294TIP3   OH254758   5.177   3.212   8.202
18294TIP3    H154759   5.142   3.301   8.220
18294TIP3    H254760   5.138   3.161   8.275
18295TIP3   OH254761   5.302   3.792   8.722
18295TIP3    H154762   5.344   3.863   8.671
18295TIP3    H254763   5.378   3.755   8.769
18296TIP3   OH254764   4.957   3.683   8.112
18296TIP3    H154765   4.869   3.692   8.153
18296TIP3    H254766   4.986   3.776   8.109
18297TIP3   OH254767   5.697   3.424   8.681
18297TIP3    H154768   5.690   3.419   8.779
18297TIP3    H254769   5.772   3.365   8.664
18298TIP3   OH254770   5.667   3.312   7.565
18298TIP3    H154771   5.718   3.288   7.645
18298TIP3    H254772   5.577   3.288   7.592
18299TIP3   OH254773   5.942   3.959   8.734
18299TIP3    H154774   5.864   3.901   8.724
18299TIP3    H254775   5.928   4.023   8.661
18300TIP3   OH254776   6.007   3.791   7.385
18300TIP3    H154777   6.043   3.864   7.332
18300TIP3    H254778   5.927   3.836   7.419
18301TIP3   OH254779   5.026   2.571   9.248
18301TIP3    H154780   4.930   2.588   9.262
18301TIP3    H254781   5.044   2.505   9.316
18302TIP3   OH254782   5.825   3.252   7.786
18302TIP3    H154783   5.816   3.182   7.854
18302TIP3    H254784   5.922   3.248   7.770
18303TIP3   OH254785   4.760   3.667   8.889
18303TIP3    H154786   4.799   3.579   8.906
18303TIP3    H254787   4.756   3.702   8.979
18304TIP3   OH254788   5.033   3.291   7.564
18304TIP3    H154789   5.048   3.200   7.534
18304TIP3    H254790   5.013   3.279   7.659
18305TIP3   OH254791   4.980   3.297   7.838
18305TIP3    H154792   5.053   3.272   7.896
18305TIP3    H254793   4.984   3.396   7.842
18306TIP3   OH254794   4.717   2.994   8.039
18306TIP3    H154795   4.651   3.039   8.096
18306TIP3    H254796   4.732   3.064   7.972
18307TIP3   OH254797   5.853   2.644   8.945
18307TIP3    H154798   5.946   2.663   8.967
18307TIP3    H254799   5.841   2.555   8.985
18308TIP3   OH254800   5.742   2.384   8.093
18308TIP3    H154801   5.729   2.408   7.999
18308TIP3    H254802   5.781   2.466   8.130
18309TIP3   OH254803   5.247   3.504   7.778
18309TIP3    H154804   5.162   3.536   7.812
18309TIP3    H254805   5.247   3.543   7.689
18310TIP3   OH254806   5.433   2.562   8.199
18310TIP3    H154807   5.499   2.631   8.180
18310TIP3    H254808   5.441   2.553   8.296
18311TIP3   OH254809   5.700   2.880   9.006
18311TIP3    H154810   5.722   2.927   9.088
18311TIP3    H254811   5.755   2.800   9.010
18312TIP3   OH254812   5.577   2.286   8.297
18312TIP3    H154813   5.583   2.355   8.365
18312TIP3    H254814   5.640   2.321   8.230
18313TIP3   OH254815   4.986   3.570   7.851
18313TIP3    H154816   4.968   3.639   7.783
18313TIP3    H254817   4.972   3.619   7.934
18314TIP3   OH254818   5.089   2.285   8.091
18314TIP3    H154819   5.086   2.376   8.127
18314TIP3    H254820   5.184   2.266   8.100
18315TIP3   OH254821   6.348   2.779   8.984
18315TIP3    H154822   6.250   2.781   8.996
18315TIP3    H254823   6.351   2.736   8.898
18316TIP3   OH254824   5.994   2.976   8.377
18316TIP3    H154825   5.918   2.916   8.385
18316TIP3    H254826   6.065   2.926   8.423
18317TIP3   OH254827   4.704   3.207   7.846
18317TIP3    H154828   4.768   3.280   7.853
18317TIP3    H254829   4.751   3.153   7.779
18318TIP3   OH254830   4.652   2.479   7.978
18318TIP3    H154831   4.649   2.577   7.973
18318TIP3    H254832   4.568   2.454   7.938
18319TIP3   OH254833   5.962   3.930   8.327
18319TIP3    H154834   5.918   3.976   8.252
18319TIP3    H254835   6.056   3.948   8.305
18320TIP3   OH254836   5.036   2.200   8.852
18320TIP3    H154837   5.006   2.168   8.765
18320TIP3    H254838   5.023   2.120   8.908
18321TIP3   OH254839   4.582   3.422   8.238
18321TIP3    H154840   4.503   3.450   8.285
18321TIP3    H254841   4.563   3.457   8.148
18322TIP3   OH254842   4.741   3.943   9.280
18322TIP3    H154843   4.813   3.957   9.344
18322TIP3    H254844   4.707   3.856   9.307
18323TIP3   OH254845   5.220   3.911   9.360
18323TIP3    H154846   5.314   3.923   9.344
18323TIP3    H254847   5.190   3.863   9.281
18324TIP3   OH254848   5.200   3.495   7.487
18324TIP3    H154849   5.140   3.423   7.517
18324TIP3    H254850   5.273   3.444   7.449
18325TIP3   OH254851   5.849   3.835   9.085
18325TIP3    H154852   5.847   3.760   9.149
18325TIP3    H254853   5.931   3.882   9.110
18326TIP3   OH254854   5.634   3.534   7.386
18326TIP3    H154855   5.680   3.472   7.444
18326TIP3    H254856   5.692   3.538   7.308
18327TIP3   OH254857   4.859   3.359   9.504
18327TIP3    H154858   4.885   3.265   9.497
18327TIP3    H254859   4.771   3.359   9.460
18328TIP3   OH254860   4.840   3.018   7.697
18328TIP3    H154861   4.895   2.982   7.768
18328TIP3    H254862   4.907   3.022   7.625
18329TIP3   OH254863   5.487   3.446   9.267
18329TIP3    H154864   5.431   3.459   9.188
18329TIP3    H254865   5.507   3.349   9.263
18330TIP3   OH254866   5.349   3.214   7.504
18330TIP3    H154867   5.351   3.228   7.600
18330TIP3    H254868   5.349   3.116   7.500
18331TIP3   OH254869   5.967   3.456   8.888
18331TIP3    H154870   6.038   3.502   8.839
18331TIP3    H254871   5.892   3.516   8.871
18332TIP3   OH254872   4.973   3.109   9.491
18332TIP3    H154873   5.024   3.028   9.476
18332TIP3    H254874   4.997   3.124   9.584
18333TIP3   OH254875   5.052   2.918   7.922
18333TIP3    H154876   5.025   2.873   8.003
18333TIP3    H254877   5.086   2.843   7.868
18334TIP3   OH254878   5.322   2.988   9.154
18334TIP3    H154879   5.240   3.043   9.156
18334TIP3    H254880   5.364   3.017   9.071
18335TIP3   OH254881   5.149   2.712   7.762
18335TIP3    H154882   5.122   2.712   7.667
18335TIP3    H254883   5.246   2.718   7.754
18336TIP3   OH254884   5.844   3.389   9.290
18336TIP3    H154885   5.911   3.362   9.225
18336TIP3    H254886   5.834   3.308   9.343
18337TIP3   OH254887   5.975   3.046   7.422
18337TIP3    H154888   5.953   2.996   7.341
18337TIP3    H254889   5.942   3.135   7.396
18338TIP3   OH254890   5.444   2.769   9.273
18338TIP3    H154891   5.442   2.689   9.217
18338TIP3    H254892   5.400   2.835   9.215
18339TIP3   OH254893   5.444   2.559   9.082
18339TIP3    H154894   5.472   2.597   8.997
18339TIP3    H254895   5.350   2.534   9.063
18340TIP3   OH254896   5.478   3.100   8.958
18340TIP3    H154897   5.554   3.098   8.899
18340TIP3    H254898   5.418   3.163   8.912
18341TIP3   OH254899   6.059   3.065   9.340
18341TIP3    H154900   6.100   2.977   9.343
18341TIP3    H254901   6.127   3.117   9.295
18342TIP3   OH254902   6.095   3.317   9.079
18342TIP3    H154903   6.038   3.367   9.015
18342TIP3    H254904   6.182   3.332   9.036
18343TIP3   OH254905   5.318   2.884   9.492
18343TIP3    H154906   5.247   2.818   9.503
18343TIP3    H254907   5.351   2.860   9.403
18344TIP3   OH254908   5.574   2.325   9.152
18344TIP3    H154909   5.528   2.407   9.124
18344TIP3    H254910   5.507   2.257   9.131
18345TIP3   OH254911   5.702   2.829   9.361
18345TIP3    H154912   5.700   2.815   9.457
18345TIP3    H254913   5.611   2.802   9.335
18346TIP3   OH254914   5.946   2.789   9.223
18346TIP3    H154915   5.866   2.777   9.278
18346TIP3    H254916   6.016   2.747   9.277
18347TIP3   OH254917   6.179   2.719   9.366
18347TIP3    H154918   6.185   2.622   9.382
18347TIP3    H254919   6.170   2.755   9.457
18348TIP3   OH254920   5.170   2.659   9.537
18348TIP3    H154921   5.171   2.563   9.515
18348TIP3    H254922   5.190   2.658   9.631
18349TIP3   OH254923   5.680   2.325   9.400
18349TIP3    H154924   5.747   2.259   9.375
18349TIP3    H254925   5.629   2.328   9.317
18350TIP3   OH254926   5.717   2.536   9.570
18350TIP3    H154927   5.703   2.475   9.495
18350TIP3    H254928   5.647   2.603   9.555
18351TIP3   OH254929   4.966   3.768   7.659
18351TIP3    H154930   5.036   3.832   7.634
18351TIP3    H254931   4.906   3.783   7.585
18352TIP3   OH254932   4.437   3.156   7.884
18352TIP3    H154933   4.532   3.179   7.869
18352TIP3    H254934   4.432   3.068   7.841
18353TIP3   OH254935   4.348   3.771   8.295
18353TIP3    H154936   4.282   3.707   8.259
18353TIP3    H254937   4.396   3.714   8.359
18354TIP3   OH254938   4.487   3.627   8.482
18354TIP3    H154939   4.479   3.549   8.539
18354TIP3    H254940   4.527   3.690   8.544
18355TIP3   OH254941   6.214   4.021   8.280
18355TIP3    H154942   6.241   4.058   8.366
18355TIP3    H254943   6.272   4.067   8.218
18356TIP3   OH254944   6.243   4.043   8.564
18356TIP3    H154945   6.201   3.955   8.557
18356TIP3    H254946   6.321   4.021   8.617
18357TIP3   OH254947   6.293   3.719   9.136
18357TIP3    H154948   6.217   3.728   9.197
18357TIP3    H254949   6.332   3.808   9.138
18358TIP3   OH254950   6.106   3.232   7.757
18358TIP3    H154951   6.175   3.295   7.729
18358TIP3    H254952   6.148   3.191   7.835
18359TIP3   OH254953   6.234   3.100   7.960
18359TIP3    H154954   6.168   3.056   8.018
18359TIP3    H254955   6.296   3.139   8.024
18360TIP3   OH254956   6.287   3.489   8.394
18360TIP3    H154957   6.339   3.427   8.340
18360TIP3    H254958   6.277   3.565   8.332
18361TIP3   OH254959   6.121   3.790   8.589
18361TIP3    H154960   6.049   3.834   8.638
18361TIP3    H254961   6.072   3.743   8.519
18362TIP3   OH254962   6.173   3.007   7.608
18362TIP3    H154963   6.101   3.009   7.540
18362TIP3    H254964   6.144   3.083   7.662
18363TIP3   OH254965   6.040   2.680   7.565
18363TIP3    H154966   6.008   2.719   7.483
18363TIP3    H254967   6.016   2.585   7.551
18364TIP3   OH254968   6.050   2.954   8.107
18364TIP3    H154969   6.055   2.857   8.100
18364TIP3    H254970   6.036   2.967   8.203
18365TIP3   OH254971   4.675   3.031   8.851
18365TIP3    H154972   4.674   3.000   8.758
18365TIP3    H254973   4.772   3.031   8.868
18366TIP3   OH254974   6.336   3.379   8.965
18366TIP3    H154975   6.409   3.314   8.955
18366TIP3    H254976   6.361   3.448   8.901
18367TIP3   OH254977   6.523   3.188   8.988
18367TIP3    H154978   6.447   3.135   9.022
18367TIP3    H254979   6.595   3.122   8.999
18368TIP3   OH254980   5.988   2.411   7.548
18368TIP3    H154981   6.062   2.382   7.605
18368TIP3    H254982   5.913   2.356   7.575
18369TIP3   OH254983   6.045   2.671   8.003
18369TIP3    H154984   6.085   2.582   8.019
18369TIP3    H254985   6.103   2.702   7.931
18370TIP3   OH254986   6.208   2.847   8.497
18370TIP3    H154987   6.294   2.874   8.457
18370TIP3    H254988   6.220   2.882   8.587
18371TIP3   OH254989   6.276   2.990   8.732
18371TIP3    H154990   6.196   3.023   8.777
18371TIP3    H254991   6.307   3.070   8.684
18372TIP3   OH254992   4.892   2.665   9.516
18372TIP3    H154993   4.984   2.697   9.513
18372TIP3    H254994   4.858   2.708   9.597
18373TIP3   OH254995   6.728   2.581   9.285
18373TIP3    H154996   6.784   2.515   9.240
18373TIP3    H254997   6.698   2.637   9.210
18374TIP3   OH254998   6.153   2.420   8.040
18374TIP3    H154999   6.199   2.403   8.125
18374TIP3    H255000   6.092   2.344   8.037
18375TIP3   OH255001   4.853   2.408   8.859
18375TIP3    H155002   4.915   2.332   8.868
18375TIP3    H255003   4.916   2.482   8.854
18376TIP3   OH255004   4.657   2.683   8.931
18376TIP3    H155005   4.705   2.674   8.846
18376TIP3    H255006   4.690   2.768   8.963
18377TIP3   OH255007   6.598   2.721   9.093
18377TIP3    H155008   6.509   2.760   9.108
18377TIP3    H255009   6.573   2.650   9.031
18378TIP3   OH255010   6.238   2.356   7.674
18378TIP3    H155011   6.274   2.284   7.617
18378TIP3    H255012   6.301   2.428   7.657
18379TIP3   OH255013   4.639   2.190   8.437
18379TIP3    H155014   4.545   2.184   8.458
18379TIP3    H255015   4.638   2.245   8.355
18380TIP3   OH255016   5.804   3.883   7.943
18380TIP3    H155017   5.848   3.867   7.857
18380TIP3    H255018   5.856   3.957   7.978
18381TIP3   OH255019   4.867   2.253   9.233
18381TIP3    H155020   4.815   2.226   9.310
18381TIP3    H255021   4.801   2.307   9.184
18382TIP3   OH255022   4.910   3.681   9.323
18382TIP3    H155023   4.815   3.668   9.304
18382TIP3    H255024   4.910   3.668   9.421
18383TIP3   OH255025   5.085   3.715   8.878
18383TIP3    H155026   5.020   3.769   8.833
18383TIP3    H255027   5.166   3.739   8.828
18384TIP3   OH255028   5.527   3.967   9.013
18384TIP3    H155029   5.568   3.977   9.100
18384TIP3    H255030   5.589   4.018   8.957
18385TIP3   OH255031   5.701   4.118   8.868
18385TIP3    H155032   5.772   4.070   8.823
18385TIP3    H255033   5.753   4.177   8.927
18386TIP3   OH255034   6.495   2.484   8.969
18386TIP3    H155035   6.405   2.481   8.932
18386TIP3    H255036   6.523   2.391   8.954
18387TIP3   OH255037   4.973   3.989   8.735
18387TIP3    H155038   4.907   3.959   8.799
18387TIP3    H255039   4.947   3.943   8.655
18388TIP3   OH255040   5.416   3.988   8.554
18388TIP3    H155041   5.360   4.011   8.478
18388TIP3    H255042   5.432   4.076   8.594
18389TIP3   OH255043   5.685   3.931   8.604
18389TIP3    H155044   5.591   3.945   8.582
18389TIP3    H255045   5.728   4.005   8.557
18390TIP3   OH255046   5.895   4.122   8.518
18390TIP3    H155047   5.879   4.206   8.471
18390TIP3    H255048   5.919   4.062   8.444
18391TIP3   OH255049   4.679   3.794   8.656
18391TIP3    H155050   4.704   3.747   8.738
18391TIP3    H255051   4.736   3.747   8.591
18392TIP3   OH255052   4.855   3.648   8.501
18392TIP3    H155053   4.869   3.561   8.544
18392TIP3    H255054   4.947   3.679   8.490
18393TIP3   OH255055   5.123   3.748   8.505
18393TIP3    H155056   5.151   3.660   8.474
18393TIP3    H255057   5.181   3.757   8.584
18394TIP3   OH255058   6.228   2.270   8.496
18394TIP3    H155059   6.247   2.329   8.420
18394TIP3    H255060   6.133   2.286   8.516
18395TIP3   OH255061   6.319   2.380   8.258
18395TIP3    H155062   6.392   2.328   8.216
18395TIP3    H255063   6.352   2.472   8.242
18396TIP3   OH255064   4.948   2.108   8.606
18396TIP3    H155065   4.857   2.073   8.605
18396TIP3    H255066   4.999   2.024   8.602
18397TIP3   OH255067   4.732   1.976   8.248
18397TIP3    H155068   4.765   2.034   8.178
18397TIP3    H255069   4.706   2.039   8.317
18398TIP3   OH255070   5.391   2.143   8.487
18398TIP3    H155071   5.452   2.188   8.426
18398TIP3    H255072   5.427   2.172   8.574
18399TIP3   OH255073   5.970   2.207   8.029
18399TIP3    H155074   5.884   2.251   8.042
18399TIP3    H255075   5.955   2.124   8.078
18400TIP3   OH255076   4.453   3.545   8.035
18400TIP3    H155077   4.369   3.511   7.998
18400TIP3    H255078   4.441   3.639   8.016
18401TIP3   OH255079   4.852   2.138   8.015
18401TIP3    H155080   4.901   2.074   7.960
18401TIP3    H255081   4.925   2.191   8.052
18402TIP3   OH255082   5.366   2.311   8.114
18402TIP3    H155083   5.427   2.265   8.174
18402TIP3    H255084   5.386   2.404   8.138
18403TIP3   OH255085   5.945   3.853   7.706
18403TIP3    H155086   5.936   3.756   7.693
18403TIP3    H255087   5.897   3.887   7.627
18404TIP3   OH255088   5.172   2.387   9.513
18404TIP3    H155089   5.154   2.309   9.567
18404TIP3    H255090   5.266   2.374   9.494
18405TIP3   OH255091   4.529   3.572   7.672
18405TIP3    H155092   4.532   3.600   7.764
18405TIP3    H255093   4.617   3.530   7.660
18406TIP3   OH255094   6.224   2.451   9.381
18406TIP3    H155095   6.235   2.423   9.475
18406TIP3    H255096   6.316   2.443   9.347
18407TIP3   OH255097   6.170   3.998   8.897
18407TIP3    H155098   6.093   3.967   8.846
18407TIP3    H255099   6.153   4.095   8.895
18408TIP3   OH255100   7.436   3.369   7.663
18408TIP3    H155101   7.410   3.461   7.643
18408TIP3    H255102   7.360   3.321   7.628
18409TIP3   OH255103   7.436   3.370   8.038
18409TIP3    H155104   7.464   3.338   8.126
18409TIP3    H255105   7.393   3.292   8.001
18410TIP3   OH255106   6.736   3.268   8.407
18410TIP3    H155107   6.770   3.201   8.469
18410TIP3    H255108   6.815   3.323   8.395
18411TIP3   OH255109   7.678   3.671   7.722
18411TIP3    H155110   7.665   3.602   7.788
18411TIP3    H255111   7.706   3.746   7.776
18412TIP3   OH255112   6.706   3.675   8.135
18412TIP3    H155113   6.697   3.577   8.137
18412TIP3    H255114   6.803   3.683   8.127
18413TIP3   OH255115   6.413   2.882   7.920
18413TIP3    H155116   6.361   2.964   7.930
18413TIP3    H255117   6.346   2.823   7.883
18414TIP3   OH255118   6.475   3.168   8.088
18414TIP3    H155119   6.522   3.090   8.125
18414TIP3    H255120   6.528   3.189   8.010
18415TIP3   OH255121   7.325   4.134   7.737
18415TIP3    H155122   7.374   4.063   7.690
18415TIP3    H255123   7.322   4.099   7.827
18416TIP3   OH255124   7.234   3.595   8.090
18416TIP3    H155125   7.271   3.520   8.040
18416TIP3    H255126   7.319   3.639   8.113
18417TIP3   OH255127   8.242   2.918   8.084
18417TIP3    H155128   8.271   3.001   8.128
18417TIP3    H255129   8.265   2.937   7.991
18418TIP3   OH255130   7.646   3.097   8.125
18418TIP3    H155131   7.690   3.012   8.142
18418TIP3    H255132   7.616   3.085   8.033
18419TIP3   OH255133   6.983   2.757   8.089
18419TIP3    H155134   6.962   2.829   8.026
18419TIP3    H255135   6.937   2.683   8.044
18420TIP3   OH255136   7.677   2.848   7.712
18420TIP3    H155137   7.750   2.832   7.775
18420TIP3    H255138   7.726   2.883   7.636
18421TIP3   OH255139   6.618   2.959   8.195
18421TIP3    H155140   6.701   2.937   8.241
18421TIP3    H255141   6.627   2.903   8.115
18422TIP3   OH255142   7.059   3.157   7.986
18422TIP3    H155143   7.152   3.131   7.999
18422TIP3    H255144   7.019   3.073   7.954
18423TIP3   OH255145   8.319   3.121   8.261
18423TIP3    H155146   8.237   3.172   8.241
18423TIP3    H255147   8.345   3.160   8.346
18424TIP3   OH255148   6.981   2.741   8.523
18424TIP3    H155149   6.922   2.776   8.454
18424TIP3    H255150   6.928   2.760   8.603
18425TIP3   OH255151   7.330   3.591   7.532
18425TIP3    H155152   7.287   3.567   7.449
18425TIP3    H255153   7.287   3.676   7.553
18426TIP3   OH255154   7.088   3.515   8.321
18426TIP3    H155155   7.023   3.579   8.357
18426TIP3    H255156   7.129   3.567   8.249
18427TIP3   OH255157   7.891   2.848   7.880
18427TIP3    H155158   7.885   2.797   7.961
18427TIP3    H255159   7.945   2.924   7.907
18428TIP3   OH255160   6.852   2.855   8.307
18428TIP3    H155161   6.914   2.928   8.328
18428TIP3    H255162   6.899   2.814   8.231
18429TIP3   OH255163   6.914   3.707   8.415
18429TIP3    H155164   6.889   3.792   8.374
18429TIP3    H255165   6.835   3.693   8.472
18430TIP3   OH255166   6.313   3.398   7.651
18430TIP3    H155167   6.268   3.422   7.568
18430TIP3    H255168   6.339   3.484   7.687
18431TIP3   OH255169   7.750   3.913   7.892
18431TIP3    H155170   7.660   3.905   7.931
18431TIP3    H255171   7.743   3.999   7.846
18432TIP3   OH255172   8.039   2.816   8.253
18432TIP3    H155173   7.951   2.845   8.224
18432TIP3    H255174   8.097   2.849   8.180
18433TIP3   OH255175   7.342   2.461   8.237
18433TIP3    H155176   7.326   2.366   8.249
18433TIP3    H255177   7.262   2.498   8.281
18434TIP3   OH255178   7.454   3.962   7.568
18434TIP3    H155179   7.503   3.880   7.545
18434TIP3    H255180   7.513   4.028   7.524
18435TIP3   OH255181   7.594   3.747   7.470
18435TIP3    H155182   7.559   3.668   7.427
18435TIP3    H255183   7.629   3.711   7.554
18436TIP3   OH255184   7.976   3.829   8.235
18436TIP3    H155185   7.966   3.752   8.175
18436TIP3    H255186   7.959   3.904   8.173
18437TIP3   OH255187   7.268   3.222   7.490
18437TIP3    H155188   7.186   3.272   7.468
18437TIP3    H255189   7.314   3.219   7.405
18438TIP3   OH255190   7.227   3.005   7.210
18438TIP3    H155191   7.296   3.055   7.257
18438TIP3    H255192   7.282   2.941   7.162
18439TIP3   OH255193   8.171   3.461   8.077
18439TIP3    H155194   8.089   3.516   8.084
18439TIP3    H255195   8.201   3.487   7.988
18440TIP3   OH255196   7.614   3.304   7.464
18440TIP3    H155197   7.559   3.329   7.543
18440TIP3    H255198   7.697   3.278   7.508
18441TIP3   OH255199   7.850   3.344   8.373
18441TIP3    H155200   7.848   3.429   8.421
18441TIP3    H255201   7.764   3.349   8.327
18442TIP3   OH255202   6.846   3.303   7.879
18442TIP3    H155203   6.803   3.246   7.812
18442TIP3    H255204   6.923   3.249   7.906
18443TIP3   OH255205   6.976   3.713   8.029
18443TIP3    H155206   6.955   3.669   7.945
18443TIP3    H255207   7.066   3.681   8.047
18444TIP3   OH255208   6.987   3.272   8.235
18444TIP3    H155209   7.016   3.254   8.144
18444TIP3    H255210   7.027   3.359   8.254
18445TIP3   OH255211   7.508   3.911   8.010
18445TIP3    H155212   7.494   3.991   8.064
18445TIP3    H255213   7.495   3.838   8.074
18446TIP3   OH255214   7.120   3.829   8.559
18446TIP3    H155215   7.061   3.893   8.604
18446TIP3    H255216   7.054   3.777   8.510
18447TIP3   OH255217   7.457   3.161   7.289
18447TIP3    H155218   7.515   3.220   7.342
18447TIP3    H255219   7.483   3.186   7.197
18448TIP3   OH255220   6.875   3.386   8.660
18448TIP3    H155221   6.879   3.473   8.704
18448TIP3    H255222   6.779   3.369   8.663
18449TIP3   OH255223   7.197   3.844   7.566
18449TIP3    H155224   7.275   3.899   7.586
18449TIP3    H255225   7.136   3.907   7.526
18450TIP3   OH255226   6.916   4.000   8.643
18450TIP3    H155227   6.881   3.997   8.552
18450TIP3    H255228   6.836   3.978   8.697
18451TIP3   OH255229   7.972   2.404   7.337
18451TIP3    H155230   7.890   2.423   7.388
18451TIP3    H255231   7.983   2.488   7.287
18452TIP3   OH255232   6.712   3.145   7.687
18452TIP3    H155233   6.649   3.191   7.628
18452TIP3    H255234   6.670   3.059   7.696
18453TIP3   OH255235   7.769   3.771   6.885
18453TIP3    H155236   7.778   3.868   6.871
18453TIP3    H255237   7.862   3.742   6.873
18454TIP3   OH255238   6.494   3.529   8.592
18454TIP3    H155239   6.430   3.508   8.521
18454TIP3    H255240   6.530   3.441   8.615
18455TIP3   OH255241   6.348   3.720   8.229
18455TIP3    H155242   6.444   3.716   8.214
18455TIP3    H255243   6.339   3.803   8.278
18456TIP3   OH255244   8.214   4.171   8.278
18456TIP3    H155245   8.212   4.075   8.292
18456TIP3    H255246   8.131   4.197   8.324
18457TIP3   OH255247   7.320   3.959   8.415
18457TIP3    H155248   7.320   4.052   8.446
18457TIP3    H255249   7.249   3.921   8.470
18458TIP3   OH255250   7.077   4.089   7.366
18458TIP3    H155251   7.033   4.069   7.282
18458TIP3    H255252   7.046   4.179   7.386
18459TIP3   OH255253   6.517   3.939   7.748
18459TIP3    H155254   6.564   3.928   7.834
18459TIP3    H255255   6.457   3.862   7.751
18460TIP3   OH255256   7.281   3.989   7.008
18460TIP3    H155257   7.340   3.919   6.970
18460TIP3    H255258   7.316   3.997   7.099
18461TIP3   OH255259   7.330   4.037   7.278
18461TIP3    H155260   7.242   4.046   7.321
18461TIP3    H255261   7.382   3.995   7.349
18462TIP3   OH255262   8.106   3.301   8.551
18462TIP3    H155263   8.025   3.322   8.502
18462TIP3    H255264   8.115   3.205   8.534
18463TIP3   OH255265   6.700   3.712   8.583
18463TIP3    H155266   6.750   3.694   8.665
18463TIP3    H255267   6.626   3.648   8.589
18464TIP3   OH255268   7.100   2.535   8.363
18464TIP3    H155269   7.010   2.504   8.338
18464TIP3    H255270   7.075   2.619   8.405
18465TIP3   OH255271   7.630   2.653   8.558
18465TIP3    H155272   7.695   2.623   8.624
18465TIP3    H255273   7.544   2.631   8.600
18466TIP3   OH255274   7.876   3.081   8.477
18466TIP3    H155275   7.824   3.078   8.561
18466TIP3    H255276   7.850   3.167   8.439
18467TIP3   OH255277   7.532   3.211   7.033
18467TIP3    H155278   7.499   3.184   6.945
18467TIP3    H255279   7.611   3.262   7.008
18468TIP3   OH255280   7.247   2.585   7.334
18468TIP3    H155281   7.213   2.584   7.426
18468TIP3    H255282   7.207   2.502   7.301
18469TIP3   OH255283   7.032   3.050   8.383
18469TIP3    H155284   6.979   3.071   8.463
18469TIP3    H255285   7.016   3.130   8.328
18470TIP3   OH255286   6.915   2.936   7.897
18470TIP3    H155287   6.821   2.911   7.913
18470TIP3    H255288   6.928   2.897   7.808
18471TIP3   OH255289   7.405   3.024   7.623
18471TIP3    H155290   7.351   3.095   7.583
18471TIP3    H255291   7.459   2.995   7.547
18472TIP3   OH255292   7.580   3.302   8.711
18472TIP3    H155293   7.559   3.230   8.774
18472TIP3    H255294   7.674   3.318   8.731
18473TIP3   OH255295   7.563   3.053   7.864
18473TIP3    H155296   7.505   3.085   7.792
18473TIP3    H255297   7.595   2.971   7.822
18474TIP3   OH255298   6.851   3.081   8.591
18474TIP3    H155299   6.873   3.145   8.660
18474TIP3    H255300   6.837   2.999   8.643
18475TIP3   OH255301   6.902   2.558   7.302
18475TIP3    H155302   6.891   2.553   7.399
18475TIP3    H255303   6.821   2.606   7.276
18476TIP3   OH255304   6.442   2.606   8.173
18476TIP3    H155305   6.521   2.633   8.223
18476TIP3    H255306   6.476   2.569   8.090
18477TIP3   OH255307   6.423   2.587   7.694
18477TIP3    H155308   6.463   2.625   7.613
18477TIP3    H255309   6.357   2.657   7.714
18478TIP3   OH255310   7.574   3.299   8.288
18478TIP3    H155311   7.606   3.227   8.230
18478TIP3    H255312   7.544   3.247   8.365
18479TIP3   OH255313   7.241   2.759   7.959
18479TIP3    H155314   7.156   2.757   8.009
18479TIP3    H255315   7.305   2.763   8.031
18480TIP3   OH255316   6.676   2.814   7.968
18480TIP3    H155317   6.581   2.822   7.941
18480TIP3    H255318   6.697   2.722   7.942
18481TIP3   OH255319   6.949   2.814   7.654
18481TIP3    H155320   7.042   2.828   7.630
18481TIP3    H255321   6.900   2.836   7.571
18482TIP3   OH255322   7.735   2.834   8.161
18482TIP3    H155323   7.696   2.846   8.250
18482TIP3    H255324   7.670   2.772   8.122
18483TIP3   OH255325   6.785   2.845   7.436
18483TIP3    H155326   6.712   2.801   7.390
18483TIP3    H255327   6.836   2.878   7.359
18484TIP3   OH255328   7.902   4.523   8.378
18484TIP3    H155329   7.901   4.547   8.283
18484TIP3    H255330   7.980   4.573   8.410
18485TIP3   OH255331   6.860   3.632   8.802
18485TIP3    H155332   6.940   3.664   8.848
18485TIP3    H255333   6.796   3.635   8.875
18486TIP3   OH255334   7.326   3.086   8.055
18486TIP3    H155335   7.398   3.047   8.002
18486TIP3    H255336   7.340   3.044   8.142
18487TIP3   OH255337   6.854   2.575   7.933
18487TIP3    H155338   6.818   2.494   7.975
18487TIP3    H255339   6.898   2.539   7.855
18488TIP3   OH255340   7.302   2.979   8.350
18488TIP3    H155341   7.213   3.017   8.359
18488TIP3    H255342   7.359   3.043   8.398
18489TIP3   OH255343   7.039   3.376   7.440
18489TIP3    H155344   6.967   3.310   7.430
18489TIP3    H255345   7.021   3.409   7.532
18490TIP3   OH255346   7.941   3.610   8.071
18490TIP3    H155347   7.965   3.659   7.990
18490TIP3    H255348   7.854   3.571   8.047
18491TIP3   OH255349   7.498   2.688   7.301
18491TIP3    H155350   7.401   2.672   7.308
18491TIP3    H255351   7.507   2.783   7.323
18492TIP3   OH255352   7.437   3.692   8.438
18492TIP3    H155353   7.458   3.672   8.530
18492TIP3    H255354   7.400   3.782   8.443
18493TIP3   OH255355   7.567   2.934   7.405
18493TIP3    H155356   7.664   2.940   7.419
18493TIP3    H255357   7.548   3.013   7.351
18494TIP3   OH255358   6.732   3.398   8.118
18494TIP3    H155359   6.768   3.370   8.031
18494TIP3    H255360   6.766   3.329   8.177
18495TIP3   OH255361   7.184   3.524   7.260
18495TIP3    H155362   7.137   3.611   7.268
18495TIP3    H255363   7.130   3.469   7.320
18496TIP3   OH255364   6.609   3.317   8.730
18496TIP3    H155365   6.629   3.301   8.824
18496TIP3    H255366   6.540   3.251   8.712
18497TIP3   OH255367   7.335   3.428   8.752
18497TIP3    H155368   7.276   3.373   8.697
18497TIP3    H255369   7.423   3.398   8.721
18498TIP3   OH255370   7.600   3.950   8.333
18498TIP3    H155371   7.503   3.951   8.344
18498TIP3    H255372   7.627   4.003   8.411
18499TIP3   OH255373   8.011   3.022   7.242
18499TIP3    H155374   7.948   2.977   7.181
18499TIP3    H255375   8.007   3.111   7.200
18500TIP3   OH255376   8.226   3.879   8.324
18500TIP3    H155377   8.128   3.876   8.315
18500TIP3    H255378   8.252   3.850   8.234
18501TIP3   OH255379   7.706   3.843   7.149
18501TIP3    H155380   7.685   3.770   7.209
18501TIP3    H255381   7.721   3.798   7.064
18502TIP3   OH255382   7.705   3.472   7.993
18502TIP3    H155383   7.611   3.446   8.004
18502TIP3    H255384   7.739   3.394   7.945
18503TIP3   OH255385   6.830   3.699   7.742
18503TIP3    H155386   6.833   3.781   7.688
18503TIP3    H255387   6.735   3.684   7.748
18504TIP3   OH255388   6.395   3.004   7.445
18504TIP3    H155389   6.440   3.088   7.464
18504TIP3    H255390   6.316   3.010   7.504
18505TIP3   OH255391   6.974   3.467   7.688
18505TIP3    H155392   6.937   3.557   7.705
18505TIP3    H255393   6.935   3.417   7.762
18506TIP3   OH255394   7.100   4.044   8.212
18506TIP3    H155395   7.139   4.117   8.160
18506TIP3    H255396   7.177   4.011   8.260
18507TIP3   OH255397   6.752   3.938   7.595
18507TIP3    H155398   6.665   3.946   7.640
18507TIP3    H255399   6.782   4.032   7.597
18508TIP3   OH255400   7.491   3.678   8.168
18508TIP3    H155401   7.483   3.676   8.266
18508TIP3    H255402   7.571   3.626   8.154
18509TIP3   OH255403   7.461   3.569   7.052
18509TIP3    H155404   7.514   3.545   7.131
18509TIP3    H255405   7.372   3.544   7.082
18510TIP3   OH255406   7.738   4.214   8.220
18510TIP3    H155407   7.659   4.157   8.211
18510TIP3    H255408   7.724   4.279   8.148
18511TIP3   OH255409   7.803   4.046   6.872
18511TIP3    H155410   7.844   4.116   6.818
18511TIP3    H255411   7.724   4.095   6.903
18512TIP3   OH255412   6.823   2.824   8.740
18512TIP3    H155413   6.726   2.829   8.750
18512TIP3    H255414   6.846   2.759   8.808
18513TIP3   OH255415   7.621   3.506   7.270
18513TIP3    H155416   7.612   3.439   7.340
18513TIP3    H255417   7.718   3.504   7.256
18514TIP3   OH255418   6.538   3.909   8.371
18514TIP3    H155419   6.589   3.831   8.398
18514TIP3    H255420   6.572   3.975   8.434
18515TIP3   OH255421   6.830   3.552   7.050
18515TIP3    H155422   6.844   3.460   7.020
18515TIP3    H255423   6.812   3.538   7.145
18516TIP3   OH255424   6.776   3.556   7.323
18516TIP3    H155425   6.846   3.529   7.384
18516TIP3    H255426   6.781   3.654   7.330
18517TIP3   OH255427   6.514   3.252   7.526
18517TIP3    H155428   6.447   3.295   7.583
18517TIP3    H255429   6.527   3.322   7.459
18518TIP3   OH255430   7.656   2.890   8.419
18518TIP3    H155431   7.738   2.926   8.456
18518TIP3    H255432   7.642   2.809   8.472
18519TIP3   OH255433   7.538   2.640   7.581
18519TIP3    H155434   7.523   2.663   7.487
18519TIP3    H255435   7.577   2.723   7.617
18520TIP3   OH255436   7.041   3.755   7.273
18520TIP3    H155437   6.954   3.784   7.308
18520TIP3    H255438   7.058   3.824   7.207
18521TIP3   OH255439   7.233   2.816   7.685
18521TIP3    H155440   7.297   2.888   7.666
18521TIP3    H255441   7.235   2.812   7.782
18522TIP3   OH255442   7.496   3.137   8.495
18522TIP3    H155443   7.517   3.192   8.573
18522TIP3    H255444   7.554   3.060   8.507
18523TIP3   OH255445   7.377   2.549   7.791
18523TIP3    H155446   7.364   2.628   7.847
18523TIP3    H255447   7.435   2.585   7.721
18524TIP3   OH255448   6.783   3.830   7.338
18524TIP3    H155449   6.752   3.899   7.275
18524TIP3    H255450   6.767   3.874   7.424
18525TIP3   OH255451   6.885   2.541   7.579
18525TIP3    H155452   6.882   2.633   7.612
18525TIP3    H255453   6.981   2.524   7.586
18526TIP3   OH255454   8.142   3.032   8.480
18526TIP3    H155455   8.044   3.031   8.481
18526TIP3    H255456   8.158   3.006   8.388
18527TIP3   OH255457   7.790   3.232   7.863
18527TIP3    H155458   7.714   3.171   7.874
18527TIP3    H255459   7.862   3.184   7.910
18528TIP3   OH255460   6.501   3.463   7.333
18528TIP3    H155461   6.566   3.535   7.341
18528TIP3    H255462   6.548   3.409   7.266
18529TIP3   OH255463   6.448   2.733   7.464
18529TIP3    H155464   6.439   2.830   7.459
18529TIP3    H255465   6.369   2.702   7.416
18530TIP3   OH255466   7.758   4.185   7.813
18530TIP3    H155467   7.715   4.233   7.738
18530TIP3    H255468   7.852   4.205   7.792
18531TIP3   OH255469   6.836   2.456   8.340
18531TIP3    H155470   6.803   2.424   8.253
18531TIP3    H255471   6.823   2.377   8.396
18532TIP3   OH255472   6.377   3.679   7.724
18532TIP3    H155473   6.298   3.707   7.773
18532TIP3    H255474   6.357   3.714   7.635
18533TIP3   OH255475   6.528   4.212   8.793
18533TIP3    H155476   6.615   4.211   8.838
18533TIP3    H255477   6.508   4.117   8.789
18534TIP3   OH255478   7.011   4.182   8.837
18534TIP3    H155479   7.107   4.166   8.844
18534TIP3    H255480   6.989   4.124   8.761
18535TIP3   OH255481   6.994   3.757   6.966
18535TIP3    H155482   6.937   3.685   7.003
18535TIP3    H255483   7.068   3.704   6.933
18536TIP3   OH255484   7.652   4.086   8.567
18536TIP3    H155485   7.643   4.016   8.637
18536TIP3    H255486   7.728   4.137   8.599
18537TIP3   OH255487   7.429   3.799   6.874
18537TIP3    H155488   7.477   3.737   6.932
18537TIP3    H255489   7.485   3.801   6.794
18538TIP3   OH255490   6.659   3.620   8.993
18538TIP3    H155491   6.678   3.524   8.992
18538TIP3    H255492   6.572   3.623   8.948
18539TIP3   OH255493   6.637   3.276   7.183
18539TIP3    H155494   6.690   3.238   7.255
18539TIP3    H255495   6.705   3.279   7.112
18540TIP3   OH255496   7.268   3.704   8.765
18540TIP3    H155497   7.227   3.721   8.678
18540TIP3    H255498   7.299   3.611   8.757
18541TIP3   OH255499   7.143   3.471   6.991
18541TIP3    H155500   7.147   3.484   7.087
18541TIP3    H255501   7.143   3.372   6.986
18542TIP3   OH255502   7.761   3.712   8.371
18542TIP3    H155503   7.835   3.758   8.326
18542TIP3    H255504   7.690   3.777   8.359
18543TIP3   OH255505   6.777   3.354   8.974
18543TIP3    H155506   6.852   3.298   8.952
18543TIP3    H255507   6.803   3.387   9.062
18544TIP3   OH255508   6.850   3.175   7.410
18544TIP3    H155509   6.819   3.131   7.491
18544TIP3    H255510   6.882   3.099   7.357
18545TIP3   OH255511   7.116   3.241   8.638
18545TIP3    H155512   7.037   3.300   8.640
18545TIP3    H255513   7.161   3.272   8.556
18546TIP3   OH255514   6.945   2.968   7.248
18546TIP3    H155515   6.917   2.968   7.154
18546TIP3    H255516   7.042   2.976   7.239
18547TIP3   OH255517   7.629   3.641   8.770
18547TIP3    H155518   7.711   3.626   8.721
18547TIP3    H255519   7.632   3.572   8.838
18548TIP3   OH255520   7.770   3.301   6.909
18548TIP3    H155521   7.748   3.254   6.826
18548TIP3    H255522   7.739   3.392   6.884
18549TIP3   OH255523   7.239   3.027   8.762
18549TIP3    H155524   7.237   2.947   8.706
18549TIP3    H255525   7.196   3.094   8.704
18550TIP3   OH255526   7.240   2.813   8.569
18550TIP3    H155527   7.267   2.856   8.485
18550TIP3    H255528   7.146   2.791   8.550
18551TIP3   OH255529   7.271   3.352   8.442
18551TIP3    H155530   7.351   3.359   8.389
18551TIP3    H255531   7.213   3.419   8.399
18552TIP3   OH255532   7.852   3.322   8.821
18552TIP3    H155533   7.904   3.241   8.838
18552TIP3    H255534   7.922   3.384   8.794
18553TIP3   OH255535   7.892   3.569   8.559
18553TIP3    H155536   7.834   3.622   8.500
18553TIP3    H255537   7.979   3.590   8.518
18554TIP3   OH255538   7.118   3.141   8.993
18554TIP3    H155539   7.047   3.074   9.003
18554TIP3    H255540   7.150   3.120   8.903
18555TIP3   OH255541   7.372   2.581   8.636
18555TIP3    H155542   7.323   2.662   8.611
18555TIP3    H255543   7.303   2.513   8.621
18556TIP3   OH255544   7.499   3.083   8.851
18556TIP3    H155545   7.483   3.076   8.947
18556TIP3    H255546   7.410   3.059   8.818
18557TIP3   OH255547   7.738   3.030   8.705
18557TIP3    H155548   7.661   3.036   8.765
18557TIP3    H255549   7.810   3.004   8.766
18558TIP3   OH255550   7.976   2.973   8.856
18558TIP3    H155551   7.977   2.880   8.885
18558TIP3    H255552   7.968   3.022   8.941
18559TIP3   OH255553   6.955   2.923   9.042
18559TIP3    H155554   6.960   2.833   9.004
18559TIP3    H255555   6.989   2.907   9.132
18560TIP3   OH255556   7.465   2.588   8.892
18560TIP3    H155557   7.530   2.517   8.876
18560TIP3    H255558   7.421   2.589   8.804
18561TIP3   OH255559   7.533   2.800   9.055
18561TIP3    H155560   7.509   2.731   8.988
18561TIP3    H255561   7.458   2.862   9.047
18562TIP3   OH255562   6.752   4.033   7.152
18562TIP3    H155563   6.848   4.030   7.132
18562TIP3    H255564   6.721   4.079   7.072
18563TIP3   OH255565   6.233   3.413   7.369
18563TIP3    H155566   6.328   3.434   7.355
18563TIP3    H255567   6.227   3.324   7.327
18564TIP3   OH255568   6.146   4.027   7.779
18564TIP3    H155569   6.078   3.965   7.745
18564TIP3    H255570   6.190   3.970   7.846
18565TIP3   OH255571   6.283   3.883   7.967
18565TIP3    H155572   6.270   3.805   8.024
18565TIP3    H255573   6.333   3.941   8.027
18566TIP3   OH255574   8.008   4.280   7.767
18566TIP3    H155575   8.038   4.313   7.853
18566TIP3    H255576   8.071   4.322   7.706
18567TIP3   OH255577   8.040   4.300   8.049
18567TIP3    H155578   7.998   4.211   8.044
18567TIP3    H255579   8.116   4.278   8.106
18568TIP3   OH255580   8.086   3.975   8.622
18568TIP3    H155581   8.012   3.983   8.685
18568TIP3    H255582   8.127   4.064   8.626
18569TIP3   OH255583   7.901   3.489   7.243
18569TIP3    H155584   7.971   3.552   7.215
18569TIP3    H255585   7.945   3.449   7.322
18570TIP3   OH255586   8.030   3.356   7.445
18570TIP3    H155587   7.965   3.313   7.505
18570TIP3    H255588   8.094   3.395   7.507
18571TIP3   OH255589   8.082   3.745   7.879
18571TIP3    H155590   8.136   3.684   7.826
18571TIP3    H255591   8.074   3.822   7.819
18572TIP3   OH255592   7.917   4.047   8.075
18572TIP3    H155593   7.846   4.090   8.126
18572TIP3    H255594   7.866   3.999   8.006
18573TIP3   OH255595   7.968   3.262   7.095
18573TIP3    H155596   7.897   3.266   7.027
18573TIP3    H255597   7.942   3.340   7.149
18574TIP3   OH255598   7.839   2.936   7.050
18574TIP3    H155599   7.799   2.978   6.973
18574TIP3    H255600   7.813   2.842   7.037
18575TIP3   OH255601   7.845   3.211   7.594
18575TIP3    H155602   7.853   3.114   7.589
18575TIP3    H255603   7.832   3.226   7.690
18576TIP3   OH255604   6.471   3.284   8.341
18576TIP3    H155605   6.470   3.255   8.246
18576TIP3    H255606   6.569   3.287   8.356
18577TIP3   OH255607   8.131   3.635   8.448
18577TIP3    H155608   8.207   3.572   8.441
18577TIP3    H255609   8.160   3.707   8.389
18578TIP3   OH255610   8.319   3.446   8.474
18578TIP3    H155611   8.245   3.392   8.508
18578TIP3    H255612   8.393   3.383   8.486
18579TIP3   OH255613   7.783   2.670   7.036
18579TIP3    H155614   7.858   2.640   7.091
18579TIP3    H255615   7.710   2.611   7.062
18580TIP3   OH255616   7.840   2.927   7.490
18580TIP3    H155617   7.881   2.839   7.505
18580TIP3    H255618   7.898   2.961   7.420
18581TIP3   OH255619   8.004   3.104   7.984
18581TIP3    H155620   8.090   3.130   7.944
18581TIP3    H255621   8.016   3.141   8.073
18582TIP3   OH255622   8.071   3.246   8.219
18582TIP3    H155623   7.992   3.281   8.264
18582TIP3    H255624   8.103   3.325   8.171
18583TIP3   OH255625   6.688   2.975   9.021
18583TIP3    H155626   6.785   2.966   9.015
18583TIP3    H255627   6.663   2.888   9.058
18584TIP3   OH255628   7.950   2.677   7.527
18584TIP3    H155629   7.997   2.660   7.610
18584TIP3    H255630   7.889   2.600   7.525
18585TIP3   OH255631   6.651   2.664   8.347
18585TIP3    H155632   6.713   2.589   8.356
18585TIP3    H255633   6.712   2.739   8.340
18586TIP3   OH255634   6.456   2.939   8.422
18586TIP3    H155635   6.501   2.927   8.336
18586TIP3    H255636   6.484   3.029   8.445
18587TIP3   OH255637   8.381   2.977   8.608
18587TIP3    H155638   8.293   3.011   8.581
18587TIP3    H255639   8.391   2.907   8.541
18588TIP3   OH255640   8.033   2.614   7.159
18588TIP3    H155641   8.072   2.541   7.106
18588TIP3    H255642   8.099   2.685   7.149
18589TIP3   OH255643   6.435   2.449   7.926
18589TIP3    H155644   6.340   2.440   7.945
18589TIP3    H255645   6.435   2.502   7.843
18590TIP3   OH255646   7.594   4.145   7.426
18590TIP3    H155647   7.643   4.127   7.343
18590TIP3    H255648   7.651   4.211   7.468
18591TIP3   OH255649   6.656   2.522   8.737
18591TIP3    H155650   6.602   2.516   8.817
18591TIP3    H255651   6.591   2.561   8.674
18592TIP3   OH255652   6.696   3.946   8.812
18592TIP3    H155653   6.604   3.918   8.794
18592TIP3    H255654   6.703   3.932   8.907
18593TIP3   OH255655   6.872   3.979   8.359
18593TIP3    H155656   6.824   4.054   8.320
18593TIP3    H255657   6.959   3.993   8.315
18594TIP3   OH255658   7.320   4.226   8.496
18594TIP3    H155659   7.361   4.227   8.585
18594TIP3    H255660   7.387   4.276   8.444
18595TIP3   OH255661   7.499   4.376   8.353
18595TIP3    H155662   7.571   4.325   8.313
18595TIP3    H255663   7.549   4.433   8.415
18596TIP3   OH255664   8.284   2.738   8.458
18596TIP3    H155665   8.196   2.731   8.417
18596TIP3    H255666   8.319   2.647   8.445
18597TIP3   OH255667   6.551   4.238   8.381
18597TIP3    H155668   6.463   4.273   8.356
18597TIP3    H255669   6.557   4.270   8.472
18598TIP3   OH255670   6.787   4.216   8.239
18598TIP3    H155671   6.701   4.229   8.284
18598TIP3    H255672   6.767   4.249   8.149
18599TIP3   OH255673   7.213   4.246   8.037
18599TIP3    H155674   7.144   4.268   7.971
18599TIP3    H255675   7.226   4.334   8.080
18600TIP3   OH255676   7.481   4.185   8.088
18600TIP3    H155677   7.387   4.202   8.068
18600TIP3    H255678   7.523   4.263   8.047
18601TIP3   OH255679   7.691   4.379   8.005
18601TIP3    H155680   7.675   4.463   7.957
18601TIP3    H255681   7.715   4.318   7.932
18602TIP3   OH255682   6.462   4.033   8.128
18602TIP3    H155683   6.489   4.007   8.219
18602TIP3    H255684   6.534   3.989   8.077
18603TIP3   OH255685   6.654   3.903   7.983
18603TIP3    H155686   6.671   3.819   8.031
18603TIP3    H255687   6.745   3.940   7.978
18604TIP3   OH255688   6.920   4.000   7.984
18604TIP3    H155689   6.952   3.909   7.970
18604TIP3    H255690   6.963   4.020   8.070
18605TIP3   OH255691   7.501   2.656   8.078
18605TIP3    H155692   7.454   2.587   8.127
18605TIP3    H255693   7.566   2.606   8.027
18606TIP3   OH255694   8.023   2.539   7.982
18606TIP3    H155695   8.058   2.589   7.904
18606TIP3    H255696   7.927   2.552   7.972
18607TIP3   OH255697   8.117   2.635   7.744
18607TIP3    H155698   8.189   2.584   7.702
18607TIP3    H255699   8.149   2.727   7.728
18608TIP3   OH255700   6.747   2.365   8.093
18608TIP3    H155701   6.654   2.332   8.091
18608TIP3    H255702   6.795   2.279   8.088
18609TIP3   OH255703   6.540   2.231   7.740
18609TIP3    H155704   6.563   2.288   7.664
18609TIP3    H255705   6.501   2.295   7.802
18610TIP3   OH255706   7.190   2.395   7.969
18610TIP3    H155707   7.249   2.447   7.912
18610TIP3    H255708   7.205   2.435   8.056
18611TIP3   OH255709   7.742   2.541   7.955
18611TIP3    H155710   7.733   2.507   7.865
18611TIP3    H255711   7.726   2.460   8.009
18612TIP3   OH255712   7.767   2.463   7.517
18612TIP3    H155713   7.679   2.505   7.525
18612TIP3    H255714   7.751   2.379   7.564
18613TIP3   OH255715   6.251   3.800   7.519
18613TIP3    H155716   6.166   3.767   7.485
18613TIP3    H255717   6.237   3.895   7.504
18614TIP3   OH255718   6.648   2.390   7.505
18614TIP3    H155719   6.696   2.330   7.446
18614TIP3    H255720   6.720   2.446   7.541
18615TIP3   OH255721   7.162   2.566   7.600
18615TIP3    H155722   7.221   2.519   7.661
18615TIP3    H255723   7.184   2.659   7.626
18616TIP3   OH255724   7.021   3.995   7.099
18616TIP3    H155725   7.110   4.016   7.064
18616TIP3    H255726   6.999   3.919   7.041
18617TIP3   OH255727   7.738   4.109   7.193
18617TIP3    H155728   7.730   4.012   7.179
18617TIP3    H255729   7.696   4.143   7.111
18618TIP3   OH255730   6.953   2.646   8.985
18618TIP3    H155731   6.921   2.573   9.041
18618TIP3    H255732   7.048   2.647   9.009
18619TIP3   OH255733   7.203   2.644   9.103
18619TIP3    H155734   7.284   2.616   9.059
18619TIP3    H255735   7.189   2.572   9.168
18620TIP3   OH255736   6.327   3.834   7.159
18620TIP3    H155737   6.322   3.856   7.253
18620TIP3    H255738   6.415   3.791   7.151
18621TIP3   OH255739   8.031   2.701   8.892
18621TIP3    H155740   8.077   2.660   8.966
18621TIP3    H255741   8.107   2.719   8.832
18622TIP3   OH255742   7.969   4.255   8.381
18622TIP3    H155743   7.889   4.223   8.334
18622TIP3    H255744   7.949   4.351   8.383
18623TIP3   OH255745   9.232   3.625   7.151
18623TIP3    H155746   9.205   3.717   7.130
18623TIP3    H255747   9.156   3.577   7.113
18624TIP3   OH255748   9.230   3.629   7.522
18624TIP3    H155749   9.255   3.602   7.612
18624TIP3    H255750   9.187   3.549   7.488
18625TIP3   OH255751   8.532   3.524   7.893
18625TIP3    H155752   8.565   3.458   7.958
18625TIP3    H255753   8.610   3.581   7.883
18626TIP3   OH255754   9.478   3.924   7.209
18626TIP3    H155755   9.458   3.859   7.277
18626TIP3    H255756   9.502   4.003   7.260
18627TIP3   OH255757   8.502   3.931   7.622
18627TIP3    H155758   8.494   3.833   7.624
18627TIP3    H255759   8.599   3.939   7.612
18628TIP3   OH255760   8.209   3.136   7.407
18628TIP3    H155761   8.161   3.220   7.418
18628TIP3    H255762   8.138   3.081   7.368
18629TIP3   OH255763   8.269   3.423   7.573
18629TIP3    H155764   8.319   3.347   7.611
18629TIP3    H255765   8.328   3.451   7.502
18630TIP3   OH255766   9.123   4.391   7.226
18630TIP3    H155767   9.169   4.322   7.174
18630TIP3    H255768   9.120   4.352   7.314
18631TIP3   OH255769   9.030   3.851   7.576
18631TIP3    H155770   9.067   3.777   7.526
18631TIP3    H255771   9.115   3.896   7.600
18632TIP3   OH255772   9.446   3.362   7.607
18632TIP3    H155773   9.482   3.273   7.626
18632TIP3    H255774   9.413   3.347   7.516
18633TIP3   OH255775   8.779   3.013   7.576
18633TIP3    H155776   8.759   3.087   7.513
18633TIP3    H255777   8.731   2.940   7.530
18634TIP3   OH255778   9.468   3.103   7.197
18634TIP3    H155779   9.544   3.091   7.259
18634TIP3    H255780   9.515   3.142   7.121
18635TIP3   OH255781   8.413   3.216   7.682
18635TIP3    H155782   8.497   3.196   7.728
18635TIP3    H255783   8.425   3.161   7.602
18636TIP3   OH255784   8.856   3.414   7.473
18636TIP3    H155785   8.949   3.388   7.486
18636TIP3    H255786   8.816   3.330   7.441
18637TIP3   OH255787   8.780   2.999   8.006
18637TIP3    H155788   8.720   3.036   7.938
18637TIP3    H255789   8.726   3.015   8.086
18638TIP3   OH255790   9.121   3.844   7.023
18638TIP3    H155791   9.088   3.826   6.934
18638TIP3    H255792   9.081   3.931   7.041
18639TIP3   OH255793   8.884   3.771   7.806
18639TIP3    H155794   8.820   3.836   7.844
18639TIP3    H255795   8.925   3.823   7.735
18640TIP3   OH255796   9.685   3.097   7.355
18640TIP3    H155797   9.690   3.060   7.444
18640TIP3    H255798   9.744   3.173   7.366
18641TIP3   OH255799   8.647   3.111   7.793
18641TIP3    H155800   8.708   3.186   7.815
18641TIP3    H255801   8.696   3.072   7.718
18642TIP3   OH255802   8.711   3.964   7.903
18642TIP3    H155803   8.685   4.049   7.861
18642TIP3    H255804   8.632   3.950   7.959
18643TIP3   OH255805   8.107   3.655   7.139
18643TIP3    H155806   8.067   3.680   7.053
18643TIP3    H255807   8.137   3.741   7.174
18644TIP3   OH255808   9.546   4.168   7.378
18644TIP3    H155809   9.455   4.162   7.416
18644TIP3    H255810   9.541   4.253   7.330
18645TIP3   OH255811   9.129   2.718   7.703
18645TIP3    H155812   9.121   2.628   7.738
18645TIP3    H255813   9.059   2.763   7.754
18646TIP3   OH255814   9.249   4.220   7.054
18646TIP3    H155815   9.297   4.137   7.030
18646TIP3    H255816   9.309   4.286   7.011
18647TIP3   OH255817   9.385   4.003   6.959
18647TIP3    H155818   9.365   3.925   6.906
18647TIP3    H255819   9.423   3.964   7.040
18648TIP3   OH255820   9.759   4.084   7.723
18648TIP3    H155821   9.753   4.009   7.661
18648TIP3    H255822   9.747   4.161   7.662
18649TIP3   OH255823   9.065   3.479   6.977
18649TIP3    H155824   8.985   3.530   6.954
18649TIP3    H255825   9.111   3.474   6.891
18650TIP3   OH255826   9.023   3.261   6.700
18650TIP3    H155827   9.098   3.313   6.736
18650TIP3    H255828   9.071   3.188   6.658
18651TIP3   OH255829   9.946   3.698   7.544
18651TIP3    H155830   9.876   3.764   7.563
18651TIP3    H255831   9.993   3.743   7.471
18652TIP3   OH255832   9.409   3.559   6.950
18652TIP3    H155833   9.354   3.585   7.028
18652TIP3    H255834   9.493   3.534   6.994
18653TIP3   OH255835   9.606   3.586   7.836
18653TIP3    H155836   9.633   3.670   7.876
18653TIP3    H255837   9.515   3.605   7.809
18654TIP3   OH255838   8.641   3.559   7.368
18654TIP3    H155839   8.600   3.502   7.299
18654TIP3    H255840   8.720   3.507   7.394
18655TIP3   OH255841   8.771   3.967   7.517
18655TIP3    H155842   8.751   3.927   7.431
18655TIP3    H255843   8.862   3.936   7.534
18656TIP3   OH255844   8.780   3.530   7.721
18656TIP3    H155845   8.813   3.511   7.630
18656TIP3    H255846   8.823   3.615   7.742
18657TIP3   OH255847   9.304   4.169   7.498
18657TIP3    H155848   9.290   4.248   7.552
18657TIP3    H255849   9.291   4.095   7.561
18658TIP3   OH255850   8.917   4.087   8.046
18658TIP3    H155851   8.856   4.150   8.091
18658TIP3    H255852   8.851   4.033   7.997
18659TIP3   OH255853   9.250   3.418   6.772
18659TIP3    H155854   9.311   3.477   6.823
18659TIP3    H255855   9.273   3.445   6.679
18660TIP3   OH255856   8.671   3.643   8.143
18660TIP3    H155857   8.676   3.729   8.190
18660TIP3    H255858   8.575   3.626   8.150
18661TIP3   OH255859   8.991   4.103   7.056
18661TIP3    H155860   9.071   4.156   7.071
18661TIP3    H255861   8.933   4.164   7.010
18662TIP3   OH255862   8.712   4.256   8.130
18662TIP3    H155863   8.677   4.253   8.039
18662TIP3    H255864   8.632   4.235   8.184
18663TIP3   OH255865   9.778   2.682   6.858
18663TIP3    H155866   9.684   2.696   6.882
18663TIP3    H255867   9.786   2.739   6.779
18664TIP3   OH255868   8.508   3.401   7.174
18664TIP3    H155869   8.447   3.449   7.114
18664TIP3    H255870   8.464   3.316   7.182
18665TIP3   OH255871   9.565   4.031   6.373
18665TIP3    H155872   9.573   4.127   6.357
18665TIP3    H255873   9.657   4.002   6.358
18666TIP3   OH255874   8.290   3.786   8.078
18666TIP3    H155875   8.227   3.762   8.008
18666TIP3    H255876   8.328   3.699   8.104
18667TIP3   OH255877   8.145   3.976   7.715
18667TIP3    H155878   8.240   3.971   7.701
18667TIP3    H255879   8.137   4.058   7.766
18668TIP3   OH255880   9.992   4.458   7.740
18668TIP3    H155881  10.047   4.383   7.771
18668TIP3    H255882   9.914   4.450   7.799
18669TIP3   OH255883   9.116   4.216   7.902
18669TIP3    H155884   9.115   4.309   7.933
18669TIP3    H255885   9.045   4.177   7.956
18670TIP3   OH255886   8.872   4.343   6.856
18670TIP3    H155887   8.831   4.322   6.769
18670TIP3    H255888   8.843   4.434   6.872
18671TIP3   OH255889   8.312   4.196   7.236
18671TIP3    H155890   8.361   4.185   7.320
18671TIP3    H255891   8.252   4.119   7.240
18672TIP3   OH255892   9.079   4.247   6.493
18672TIP3    H155893   9.137   4.177   6.456
18672TIP3    H255894   9.113   4.254   6.585
18673TIP3   OH255895   9.126   4.296   6.765
18673TIP3    H155896   9.038   4.303   6.808
18673TIP3    H255897   9.177   4.251   6.834
18674TIP3   OH255898   8.495   3.969   8.069
18674TIP3    H155899   8.546   3.951   8.151
18674TIP3    H255900   8.422   3.905   8.076
18675TIP3   OH255901   8.893   2.800   7.837
18675TIP3    H155902   8.802   2.771   7.815
18675TIP3    H255903   8.872   2.884   7.882
18676TIP3   OH255904   9.317   3.485   6.519
18676TIP3    H155905   9.326   3.395   6.477
18676TIP3    H255906   9.396   3.528   6.481
18677TIP3   OH255907   9.039   2.844   6.820
18677TIP3    H155908   9.007   2.841   6.912
18677TIP3    H255909   9.004   2.760   6.786
18678TIP3   OH255910   8.824   3.307   7.869
18678TIP3    H155911   8.776   3.331   7.950
18678TIP3    H255912   8.811   3.388   7.814
18679TIP3   OH255913   8.712   3.192   7.383
18679TIP3    H155914   8.618   3.169   7.399
18679TIP3    H255915   8.725   3.153   7.294
18680TIP3   OH255916   9.200   3.278   7.108
18680TIP3    H155917   9.147   3.351   7.068
18680TIP3    H255918   9.256   3.251   7.032
18681TIP3   OH255919   9.358   3.311   7.350
18681TIP3    H155920   9.300   3.344   7.278
18681TIP3    H255921   9.388   3.228   7.308
18682TIP3   OH255922   8.645   3.340   8.079
18682TIP3    H155923   8.674   3.405   8.145
18682TIP3    H255924   8.638   3.258   8.132
18683TIP3   OH255925   8.695   2.812   6.789
18683TIP3    H155926   8.686   2.811   6.886
18683TIP3    H255927   8.617   2.865   6.764
18684TIP3   OH255928   8.238   2.860   7.661
18684TIP3    H155929   8.316   2.891   7.711
18684TIP3    H255930   8.277   2.829   7.577
18685TIP3   OH255931   8.216   2.841   7.179
18685TIP3    H155932   8.260   2.880   7.100
18685TIP3    H255933   8.154   2.913   7.201
18686TIP3   OH255934   9.336   3.552   7.767
18686TIP3    H155935   9.382   3.483   7.714
18686TIP3    H255936   9.331   3.506   7.854
18687TIP3   OH255937   9.037   3.010   7.447
18687TIP3    H155938   8.952   3.010   7.496
18687TIP3    H255939   9.100   3.026   7.519
18688TIP3   OH255940   8.471   3.071   7.455
18688TIP3    H155941   8.377   3.079   7.428
18688TIP3    H255942   8.495   2.980   7.429
18689TIP3   OH255943   8.745   3.069   7.140
18689TIP3    H155944   8.839   3.085   7.117
18689TIP3    H255945   8.697   3.093   7.057
18690TIP3   OH255946   9.504   3.093   7.624
18690TIP3    H155947   9.476   3.105   7.717
18690TIP3    H255948   9.434   3.032   7.594
18691TIP3   OH255949   8.582   3.099   6.921
18691TIP3    H155950   8.510   3.056   6.870
18691TIP3    H255951   8.634   3.137   6.847
18692TIP3   OH255952   9.695   4.780   7.862
18692TIP3    H155953   9.696   4.801   7.767
18692TIP3    H255954   9.772   4.830   7.894
18693TIP3   OH255955   8.655   3.890   8.286
18693TIP3    H155956   8.733   3.925   8.332
18693TIP3    H255957   8.591   3.889   8.360
18694TIP3   OH255958   9.121   3.339   7.540
18694TIP3    H155959   9.197   3.305   7.490
18694TIP3    H255960   9.137   3.303   7.629
18695TIP3   OH255961   8.648   2.832   7.418
18695TIP3    H155962   8.615   2.751   7.460
18695TIP3    H255963   8.694   2.799   7.340
18696TIP3   OH255964   9.096   3.235   7.837
18696TIP3    H155965   9.009   3.278   7.848
18696TIP3    H255966   9.158   3.294   7.885
18697TIP3   OH255967   8.835   3.632   6.927
18697TIP3    H155968   8.761   3.567   6.916
18697TIP3    H255969   8.818   3.665   7.019
18698TIP3   OH255970   9.732   3.870   7.556
18698TIP3    H155971   9.757   3.917   7.474
18698TIP3    H255972   9.647   3.828   7.533
18699TIP3   OH255973   9.300   2.937   6.798
18699TIP3    H155974   9.203   2.926   6.789
18699TIP3    H255975   9.311   3.034   6.795
18700TIP3   OH255976   9.238   3.948   7.924
18700TIP3    H155977   9.256   3.921   8.015
18700TIP3    H255978   9.197   4.035   7.934
18701TIP3   OH255979   9.365   3.195   6.893
18701TIP3    H155980   9.462   3.202   6.901
18701TIP3    H255981   9.344   3.267   6.830
18702TIP3   OH255982   8.525   3.651   7.605
18702TIP3    H155983   8.563   3.625   7.519
18702TIP3    H255984   8.568   3.588   7.665
18703TIP3   OH255985   8.980   3.781   6.748
18703TIP3    H155986   8.934   3.868   6.754
18703TIP3    H255987   8.926   3.726   6.808
18704TIP3   OH255988   8.405   3.575   8.216
18704TIP3    H155989   8.431   3.565   8.310
18704TIP3    H255990   8.337   3.507   8.205
18705TIP3   OH255991   9.132   3.694   8.227
18705TIP3    H155992   9.079   3.627   8.181
18705TIP3    H255993   9.220   3.653   8.229
18706TIP3   OH255994   9.396   4.207   7.820
18706TIP3    H155995   9.299   4.205   7.830
18706TIP3    H255996   9.422   4.261   7.897
18707TIP3   OH255997   9.796   3.273   6.735
18707TIP3    H155998   9.770   3.213   6.664
18707TIP3    H255999   9.803   3.356   6.684
18708TIP3   OH256000  10.011   4.135   7.800
18708TIP3    H156001   9.914   4.125   7.786
18708TIP3    H256002  10.043   4.108   7.713
18709TIP3   OH256003   9.497   4.096   6.634
18709TIP3    H156004   9.483   4.020   6.693
18709TIP3    H256005   9.517   4.055   6.548
18710TIP3   OH256006   9.499   3.727   7.482
18710TIP3    H156007   9.405   3.702   7.490
18710TIP3    H256008   9.534   3.649   7.434
18711TIP3   OH256009   8.627   3.957   7.231
18711TIP3    H156010   8.632   4.037   7.176
18711TIP3    H256011   8.532   3.941   7.232
18712TIP3   OH256012   8.191   3.261   6.930
18712TIP3    H156013   8.237   3.345   6.948
18712TIP3    H256014   8.113   3.269   6.990
18713TIP3   OH256015   8.768   3.723   7.175
18713TIP3    H156016   8.735   3.814   7.191
18713TIP3    H256017   8.729   3.675   7.250
18714TIP3   OH256018   8.896   4.301   7.699
18714TIP3    H156019   8.936   4.373   7.646
18714TIP3    H256020   8.973   4.267   7.746
18715TIP3   OH256021   8.549   4.195   7.084
18715TIP3    H156022   8.462   4.204   7.126
18715TIP3    H256023   8.580   4.288   7.084
18716TIP3   OH256024   9.287   3.936   7.655
18716TIP3    H156025   9.279   3.933   7.753
18716TIP3    H256026   9.366   3.882   7.640
18717TIP3   OH256027   9.257   3.830   6.540
18717TIP3    H156028   9.311   3.805   6.618
18717TIP3    H256029   9.170   3.798   6.567
18718TIP3   OH256030   9.533   4.473   7.707
18718TIP3    H156031   9.455   4.415   7.696
18718TIP3    H256032   9.520   4.536   7.633
18719TIP3   OH256033   9.597   4.306   6.359
18719TIP3    H156034   9.637   4.379   6.309
18719TIP3    H256035   9.516   4.351   6.391
18720TIP3   OH256036   8.614   3.079   8.222
18720TIP3    H156037   8.520   3.099   8.234
18720TIP3    H256038   8.622   2.996   8.271
18721TIP3   OH256039   9.417   3.769   6.763
18721TIP3    H156040   9.408   3.695   6.826
18721TIP3    H256041   9.512   3.763   6.742
18722TIP3   OH256042   8.334   4.166   7.858
18722TIP3    H156043   8.386   4.088   7.884
18722TIP3    H256044   8.367   4.231   7.922
18723TIP3   OH256045   8.626   3.809   6.538
18723TIP3    H156046   8.643   3.718   6.507
18723TIP3    H256047   8.607   3.794   6.632
18724TIP3   OH256048   8.572   3.811   6.813
18724TIP3    H156049   8.647   3.788   6.869
18724TIP3    H256050   8.575   3.910   6.816
18725TIP3   OH256051   8.309   3.507   7.013
18725TIP3    H156052   8.243   3.553   7.069
18725TIP3    H256053   8.325   3.576   6.945
18726TIP3   OH256054   9.412   3.142   7.874
18726TIP3    H156055   9.480   3.198   7.916
18726TIP3    H256056   9.414   3.065   7.932
18727TIP3   OH256057   9.330   2.896   7.070
18727TIP3    H156058   9.315   2.917   6.975
18727TIP3    H256059   9.368   2.980   7.102
18728TIP3   OH256060   8.836   4.011   6.761
18728TIP3    H156061   8.749   4.041   6.793
18728TIP3    H256062   8.854   4.079   6.694
18729TIP3   OH256063   9.029   3.071   7.172
18729TIP3    H156064   9.092   3.143   7.150
18729TIP3    H256065   9.033   3.070   7.269
18730TIP3   OH256066   9.294   3.398   7.995
18730TIP3    H156067   9.310   3.448   8.077
18730TIP3    H256068   9.367   3.334   7.998
18731TIP3   OH256069   9.175   2.805   7.281
18731TIP3    H156070   9.155   2.885   7.333
18731TIP3    H256071   9.231   2.843   7.209
18732TIP3   OH256072   8.576   4.084   6.826
18732TIP3    H156073   8.550   4.153   6.760
18732TIP3    H256074   8.563   4.132   6.910
18733TIP3   OH256075   8.680   2.798   7.068
18733TIP3    H156076   8.678   2.891   7.098
18733TIP3    H256077   8.777   2.781   7.073
18734TIP3   OH256078   9.587   3.487   7.350
18734TIP3    H156079   9.508   3.431   7.361
18734TIP3    H256080   9.656   3.435   7.395
18735TIP3   OH256081   8.296   3.720   6.820
18735TIP3    H156082   8.359   3.793   6.827
18735TIP3    H256083   8.343   3.666   6.752
18736TIP3   OH256084   8.243   2.992   6.954
18736TIP3    H156085   8.243   3.089   6.947
18736TIP3    H256086   8.160   2.969   6.909
18737TIP3   OH256087   9.554   4.442   7.301
18737TIP3    H156088   9.512   4.490   7.226
18737TIP3    H256089   9.648   4.461   7.281
18738TIP3   OH256090   8.631   2.714   7.826
18738TIP3    H156091   8.597   2.680   7.740
18738TIP3    H256092   8.618   2.636   7.884
18739TIP3   OH256093   8.173   3.932   7.212
18739TIP3    H156094   8.094   3.964   7.257
18739TIP3    H256095   8.158   3.969   7.122
18740TIP3   OH256096   8.324   4.469   8.278
18740TIP3    H156097   8.410   4.469   8.325
18740TIP3    H256098   8.303   4.374   8.277
18741TIP3   OH256099   8.807   4.437   8.324
18741TIP3    H156100   8.903   4.425   8.328
18741TIP3    H256101   8.784   4.379   8.248
18742TIP3   OH256102   8.790   4.013   6.453
18742TIP3    H156103   8.734   3.941   6.489
18742TIP3    H256104   8.865   3.962   6.417
18743TIP3   OH256105   9.448   4.344   8.055
18743TIP3    H156106   9.436   4.273   8.121
18743TIP3    H256107   9.525   4.393   8.089
18744TIP3   OH256108   9.226   4.055   6.361
18744TIP3    H156109   9.271   3.992   6.419
18744TIP3    H256110   9.282   4.056   6.281
18745TIP3   OH256111   8.456   3.879   8.479
18745TIP3    H156112   8.476   3.784   8.483
18745TIP3    H256113   8.368   3.879   8.435
18746TIP3   OH256114   8.431   3.530   6.671
18746TIP3    H156115   8.489   3.497   6.742
18746TIP3    H256116   8.497   3.535   6.598
18747TIP3   OH256117   9.066   3.963   8.253
18747TIP3    H156118   9.025   3.978   8.166
18747TIP3    H256119   9.098   3.870   8.244
18748TIP3   OH256120   8.936   3.726   6.478
18748TIP3    H156121   8.943   3.740   6.575
18748TIP3    H256122   8.938   3.628   6.473
18749TIP3   OH256123   9.554   3.966   7.862
18749TIP3    H156124   9.624   4.010   7.810
18749TIP3    H256125   9.480   4.028   7.849
18750TIP3   OH256126   8.573   3.614   8.458
18750TIP3    H156127   8.632   3.539   8.454
18750TIP3    H256128   8.591   3.644   8.549
18751TIP3   OH256129   8.642   3.431   6.895
18751TIP3    H156130   8.617   3.387   6.977
18751TIP3    H256131   8.678   3.357   6.841
18752TIP3   OH256132   8.913   3.495   8.124
18752TIP3    H156133   8.837   3.557   8.128
18752TIP3    H256134   8.961   3.527   8.044
18753TIP3   OH256135   8.741   3.224   6.736
18753TIP3    H156136   8.714   3.226   6.642
18753TIP3    H256137   8.838   3.234   6.728
18754TIP3   OH256138   9.417   3.878   8.225
18754TIP3    H156139   9.507   3.892   8.193
18754TIP3    H256140   9.431   3.886   8.322
18755TIP3   OH256141   9.568   3.558   6.394
18755TIP3    H156142   9.534   3.504   6.320
18755TIP3    H256143   9.534   3.646   6.364
18756TIP3   OH256144   9.007   3.263   8.250
18756TIP3    H156145   9.033   3.201   8.179
18756TIP3    H256146   8.987   3.343   8.197
18757TIP3   OH256147   9.039   3.068   8.054
18757TIP3    H156148   9.069   3.111   7.971
18757TIP3    H256149   8.945   3.049   8.033
18758TIP3   OH256150   9.066   3.603   7.925
18758TIP3    H156151   9.147   3.607   7.873
18758TIP3    H256152   9.012   3.674   7.884
18759TIP3   OH256153   9.704   3.847   8.051
18759TIP3    H156154   9.634   3.887   7.993
18759TIP3    H256155   9.765   3.816   7.982
18760TIP3   OH256156   8.920   3.403   8.477
18760TIP3    H156157   8.831   3.365   8.487
18760TIP3    H256158   8.945   3.375   8.387
18761TIP3   OH256159   9.126   2.823   8.157
18761TIP3    H156160   9.114   2.906   8.108
18761TIP3    H256161   9.076   2.759   8.104
18762TIP3   OH256162   8.738   3.178   8.498
18762TIP3    H156163   8.785   3.121   8.436
18762TIP3    H256164   8.772   3.149   8.584
18763TIP3   OH256165   8.549   4.283   6.642
18763TIP3    H156166   8.644   4.288   6.621
18763TIP3    H256167   8.515   4.331   6.564
18764TIP3   OH256168   8.030   3.669   6.859
18764TIP3    H156169   8.124   3.693   6.843
18764TIP3    H256170   8.025   3.581   6.815
18765TIP3   OH256171   7.939   4.283   7.268
18765TIP3    H156172   7.874   4.220   7.233
18765TIP3    H256173   7.986   4.227   7.334
18766TIP3   OH256174   8.078   4.139   7.455
18766TIP3    H156175   8.069   4.061   7.512
18766TIP3    H256176   8.130   4.198   7.512
18767TIP3   OH256177   9.803   4.536   7.255
18767TIP3    H156178   9.853   4.570   7.331
18767TIP3    H256179   9.851   4.573   7.180
18768TIP3   OH256180   9.833   4.559   7.540
18768TIP3    H156181   9.793   4.473   7.519
18768TIP3    H256182   9.906   4.528   7.597
18769TIP3   OH256183   9.692   3.747   6.727
18769TIP3    H156184   9.760   3.813   6.701
18769TIP3    H256185   9.737   3.705   6.804
18770TIP3   OH256186   9.815   3.609   6.928
18770TIP3    H156187   9.747   3.567   6.985
18770TIP3    H256188   9.874   3.650   6.994
18771TIP3   OH256189   9.883   3.999   7.364
18771TIP3    H156190   9.924   3.949   7.292
18771TIP3    H256191   9.872   4.086   7.321
18772TIP3   OH256192   9.711   4.300   7.561
18772TIP3    H156193   9.641   4.348   7.610
18772TIP3    H256194   9.660   4.255   7.491
18773TIP3   OH256195   9.765   3.520   6.578
18773TIP3    H156196   9.692   3.520   6.511
18773TIP3    H256197   9.736   3.597   6.631
18774TIP3   OH256198   9.641   3.467   7.081
18774TIP3    H156199   9.645   3.370   7.073
18774TIP3    H256200   9.625   3.480   7.177
18775TIP3   OH256201   8.268   3.540   7.827
18775TIP3    H156202   8.266   3.513   7.733
18775TIP3    H256203   8.365   3.543   7.843
18776TIP3   OH256204   9.591   2.860   6.521
18776TIP3    H156205   9.644   2.902   6.589
18776TIP3    H256206   9.504   2.904   6.529
18777TIP3   OH256207   9.641   3.189   6.978
18777TIP3    H156208   9.680   3.100   6.990
18777TIP3    H256209   9.694   3.222   6.903
18778TIP3   OH256210   9.810   3.349   7.453
18778TIP3    H156211   9.897   3.375   7.418
18778TIP3    H256212   9.812   3.397   7.539
18779TIP3   OH256213   9.833   3.489   7.684
18779TIP3    H156214   9.749   3.525   7.722
18779TIP3    H256215   9.872   3.566   7.637
18780TIP3   OH256216   8.467   3.217   8.489
18780TIP3    H156217   8.565   3.227   8.492
18780TIP3    H256218   8.456   3.143   8.550
18781TIP3   OH256219   9.739   2.935   7.022
18781TIP3    H156220   9.770   2.919   7.113
18781TIP3    H256221   9.681   2.858   7.009
18782TIP3   OH256222   8.446   2.921   7.836
18782TIP3    H156223   8.510   2.847   7.843
18782TIP3    H256224   8.507   2.996   7.827
18783TIP3   OH256225   8.251   3.195   7.909
18783TIP3    H156226   8.298   3.186   7.823
18783TIP3    H256227   8.277   3.284   7.934
18784TIP3   OH256228   9.843   2.868   6.654
18784TIP3    H156229   9.868   2.780   6.620
18784TIP3    H256230   9.886   2.924   6.586
18785TIP3   OH256231   8.231   2.701   7.409
18785TIP3    H156232   8.137   2.697   7.431
18785TIP3    H256233   8.231   2.757   7.329
18786TIP3   OH256234   9.392   4.403   6.915
18786TIP3    H156235   9.436   4.380   6.830
18786TIP3    H256236   9.456   4.465   6.952
18787TIP3   OH256237   8.433   2.778   8.225
18787TIP3    H156238   8.381   2.774   8.307
18787TIP3    H256239   8.367   2.816   8.163
18788TIP3   OH256240   8.492   4.204   8.299
18788TIP3    H156241   8.401   4.175   8.280
18788TIP3    H256242   8.499   4.186   8.394
18789TIP3   OH256243   8.668   4.236   7.846
18789TIP3    H156244   8.620   4.311   7.807
18789TIP3    H256245   8.755   4.249   7.802
18790TIP3   OH256246   9.116   4.483   7.984
18790TIP3    H156247   9.158   4.484   8.072
18790TIP3    H256248   9.182   4.532   7.931
18791TIP3   OH256249   9.294   4.632   7.840
18791TIP3    H156250   9.364   4.582   7.796
18791TIP3    H256251   9.346   4.690   7.899
18792TIP3   OH256252   8.347   4.496   7.867
18792TIP3    H156253   8.258   4.530   7.844
18792TIP3    H256254   8.353   4.524   7.959
18793TIP3   OH256255   8.584   4.474   7.726
18793TIP3    H156256   8.497   4.486   7.771
18793TIP3    H256257   8.563   4.505   7.636
18794TIP3   OH256258   9.009   4.503   7.525
18794TIP3    H156259   8.942   4.523   7.457
18794TIP3    H256260   9.022   4.591   7.566
18795TIP3   OH256261   9.277   4.443   7.577
18795TIP3    H156262   9.183   4.458   7.555
18795TIP3    H256263   9.320   4.517   7.530
18796TIP3   OH256264   9.486   4.635   7.491
18796TIP3    H156265   9.471   4.719   7.443
18796TIP3    H256266   9.513   4.575   7.418
18797TIP3   OH256267   8.257   4.289   7.615
18797TIP3    H156268   8.285   4.264   7.706
18797TIP3    H256269   8.329   4.245   7.564
18798TIP3   OH256270   8.450   4.160   7.470
18798TIP3    H156271   8.467   4.075   7.517
18798TIP3    H256272   8.540   4.198   7.464
18799TIP3   OH256273   8.715   4.257   7.472
18799TIP3    H156274   8.748   4.167   7.455
18799TIP3    H256275   8.759   4.275   7.557
18800TIP3   OH256276   9.296   2.913   7.567
18800TIP3    H156277   9.244   2.846   7.616
18800TIP3    H256278   9.356   2.858   7.513
18801TIP3   OH256279   9.803   2.794   7.490
18801TIP3    H156280   9.851   2.847   7.422
18801TIP3    H256281   9.711   2.813   7.467
18802TIP3   OH256282   9.901   2.891   7.253
18802TIP3    H156283   9.962   2.847   7.190
18802TIP3    H256284   9.921   2.986   7.235
18803TIP3   OH256285   8.542   2.620   7.579
18803TIP3    H156286   8.449   2.588   7.577
18803TIP3    H256287   8.591   2.535   7.573
18804TIP3   OH256288   8.332   2.488   7.225
18804TIP3    H156289   8.360   2.546   7.152
18804TIP3    H256290   8.298   2.553   7.290
18805TIP3   OH256291   8.987   2.650   7.458
18805TIP3    H156292   9.041   2.707   7.400
18805TIP3    H256293   9.008   2.688   7.545
18806TIP3   OH256294   9.526   2.781   7.445
18806TIP3    H156295   9.523   2.793   7.349
18806TIP3    H256296   9.550   2.688   7.454
18807TIP3   OH256297   9.553   2.727   7.011
18807TIP3    H156298   9.465   2.769   7.016
18807TIP3    H256299   9.534   2.639   7.049
18808TIP3   OH256300   8.044   4.058   7.011
18808TIP3    H156301   7.961   4.025   6.972
18808TIP3    H256302   8.034   4.153   6.989
18809TIP3   OH256303   8.444   2.648   6.991
18809TIP3    H156304   8.493   2.587   6.932
18809TIP3    H256305   8.516   2.703   7.027
18810TIP3   OH256306   8.958   2.821   7.090
18810TIP3    H156307   9.020   2.776   7.148
18810TIP3    H256308   8.979   2.915   7.112
18811TIP3   OH256309   8.821   4.249   6.592
18811TIP3    H156310   8.907   4.272   6.552
18811TIP3    H256311   8.795   4.177   6.530
18812TIP3   OH256312   9.526   4.360   6.680
18812TIP3    H156313   9.520   4.263   6.664
18812TIP3    H256314   9.489   4.395   6.597
18813TIP3   OH256315   8.120   4.079   6.648
18813TIP3    H156316   8.127   4.118   6.736
18813TIP3    H256317   8.210   4.042   6.634
18814TIP3   OH256318   9.749   4.507   7.881
18814TIP3    H156319   9.675   4.482   7.821
18814TIP3    H256320   9.745   4.605   7.873
18815TIP3   OH256321   9.980   3.384   6.916
18815TIP3    H156322   9.925   3.465   6.912
18815TIP3    H256323   9.930   3.327   6.853
18816TIP3   OH256324  10.044   3.676   7.065
18816TIP3    H156325  10.123   3.626   7.088
18816TIP3    H256326  10.066   3.693   6.972
18817TIP3   OH256327   9.897   3.913   6.645
18817TIP3    H156328   9.874   3.926   6.552
18817TIP3    H256329   9.923   4.004   6.671
18818TIP3   OH256330  10.085   4.014   7.560
18818TIP3    H156331  10.014   4.004   7.493
18818TIP3    H256332  10.130   3.927   7.555
18819TIP3   OH256333   9.950   4.228   7.213
18819TIP3    H156334  10.041   4.239   7.184
18819TIP3    H256335   9.933   4.315   7.253
18820TIP3   OH256336  10.236   4.241   7.576
18820TIP3    H156337  10.262   4.217   7.666
18820TIP3    H256338  10.164   4.178   7.561
18821TIP3   OH256339  10.008   3.125   7.166
18821TIP3    H156340  10.089   3.174   7.185
18821TIP3    H256341   9.987   3.154   7.076
18822TIP3   OH256342   9.965   3.577   6.396
18822TIP3    H156343  10.029   3.602   6.464
18822TIP3    H256344   9.886   3.560   6.450
18823TIP3   OH256345  10.110   4.420   7.367
18823TIP3    H156346  10.168   4.344   7.378
18823TIP3    H256347  10.161   4.490   7.408
18824TIP3   OH256348   9.965   4.171   6.706
18824TIP3    H156349   9.899   4.226   6.751
18824TIP3    H256350   9.985   4.229   6.630
18825TIP3   OH256351  10.099   4.711   7.756
18825TIP3    H156352  10.184   4.688   7.794
18825TIP3    H256353  10.061   4.621   7.743
18826TIP3   OH256354   9.823   3.930   6.343
18826TIP3    H156355   9.920   3.923   6.347
18826TIP3    H256356   9.803   3.847   6.293
18827TIP3   OH256357   9.714   4.541   6.758
18827TIP3    H156358   9.660   4.465   6.728
18827TIP3    H256359   9.777   4.498   6.819
18828TIP3   OH256360   9.861   4.404   6.943
18828TIP3    H156361   9.890   4.331   6.999
18828TIP3    H256362   9.943   4.458   6.932
18829TIP3   OH256363  10.086   3.786   7.313
18829TIP3    H156364  10.063   3.766   7.220
18829TIP3    H256365  10.170   3.834   7.302
18830TIP3   OH256366  10.061   3.462   7.366
18830TIP3    H156367  10.047   3.483   7.273
18830TIP3    H256368  10.052   3.549   7.408
18831TIP3   OH256369   9.980   3.007   6.880
18831TIP3    H156370   9.886   2.984   6.874
18831TIP3    H256371  10.002   3.020   6.786
18832TIP3   OH256372  10.142   4.763   7.360
18832TIP3    H156373  10.054   4.796   7.331
18832TIP3    H256374  10.126   4.747   7.453
18833TIP3   OH256375  10.397   4.760   7.238
18833TIP3    H156376  10.302   4.752   7.262
18833TIP3    H256377  10.392   4.752   7.141
18834TIP3   OH256378   9.847   4.311   6.483
18834TIP3    H156379   9.759   4.283   6.452
18834TIP3    H256380   9.834   4.406   6.493
18835TIP3   OH256381   9.952   4.368   6.148
18835TIP3    H156382   9.909   4.380   6.234
18835TIP3    H256383   9.992   4.280   6.159
18836TIP3   OH256384   1.680   4.412   8.841
18836TIP3    H156385   1.658   4.505   8.820
18836TIP3    H256386   1.605   4.367   8.798
18837TIP3   OH256387   1.693   4.412   9.166
18837TIP3    H156388   1.657   4.392   9.255
18837TIP3    H256389   1.649   4.347   9.110
18838TIP3   OH256390   1.926   4.714   8.895
18838TIP3    H156391   1.915   4.651   8.967
18838TIP3    H256392   1.953   4.795   8.943
18839TIP3   OH256393   1.551   5.155   8.912
18839TIP3    H156394   1.620   5.101   8.868
18839TIP3    H256395   1.590   5.170   8.999
18840TIP3   OH256396   1.503   4.609   9.190
18840TIP3    H156397   1.584   4.562   9.161
18840TIP3    H256398   1.534   4.659   9.266
18841TIP3   OH256399   2.486   3.943   9.251
18841TIP3    H156400   2.501   4.020   9.306
18841TIP3    H256401   2.522   3.973   9.165
18842TIP3   OH256402   1.927   3.886   8.890
18842TIP3    H156403   2.003   3.877   8.953
18842TIP3    H256404   1.973   3.928   8.815
18843TIP3   OH256405   1.580   4.635   8.708
18843TIP3    H156406   1.536   4.618   8.624
18843TIP3    H256407   1.541   4.722   8.731
18844TIP3   OH256408   2.143   3.892   9.058
18844TIP3    H156409   2.154   3.863   9.149
18844TIP3    H256410   2.197   3.974   9.061
18845TIP3   OH256411   0.617   4.467   8.783
18845TIP3    H156412   0.536   4.489   8.733
18845TIP3    H256413   0.607   4.523   8.862
18846TIP3   OH256414   1.997   4.961   9.058
18846TIP3    H156415   1.913   4.954   9.108
18846TIP3    H256416   1.982   5.048   9.015
18847TIP3   OH256417   1.707   5.004   8.742
18847TIP3    H156418   1.759   4.926   8.714
18847TIP3    H256419   1.764   5.076   8.707
18848TIP3   OH256420   1.848   4.788   8.641
18848TIP3    H156421   1.802   4.711   8.606
18848TIP3    H256422   1.880   4.756   8.728
18849TIP3   OH256423   2.221   4.880   9.401
18849TIP3    H156424   2.208   4.807   9.337
18849TIP3    H256425   2.200   4.958   9.344
18850TIP3   OH256426   1.515   4.266   8.666
18850TIP3    H156427   1.435   4.318   8.645
18850TIP3    H256428   1.562   4.266   8.581
18851TIP3   OH256429   1.476   4.049   8.388
18851TIP3    H156430   1.545   4.101   8.434
18851TIP3    H256431   1.533   3.986   8.339
18852TIP3   OH256432   2.432   4.511   9.251
18852TIP3    H156433   2.343   4.547   9.260
18852TIP3    H256434   2.453   4.536   9.159
18853TIP3   OH256435   1.861   4.347   8.643
18853TIP3    H156436   1.808   4.374   8.721
18853TIP3    H256437   1.946   4.323   8.686
18854TIP3   OH256438   1.083   4.330   9.051
18854TIP3    H156439   1.040   4.280   8.978
18854TIP3    H256440   1.164   4.279   9.065
18855TIP3   OH256441   1.266   4.790   9.138
18855TIP3    H156442   1.234   4.720   9.079
18855TIP3    H256443   1.348   4.751   9.173
18856TIP3   OH256444   1.770   4.944   9.209
18856TIP3    H156445   1.735   5.034   9.219
18856TIP3    H256446   1.734   4.896   9.284
18857TIP3   OH256447   1.706   4.205   8.466
18857TIP3    H156448   1.764   4.265   8.518
18857TIP3    H256449   1.731   4.231   8.374
18858TIP3   OH256450   1.446   4.888   8.738
18858TIP3    H156451   1.519   4.944   8.770
18858TIP3    H256452   1.382   4.954   8.708
18859TIP3   OH256453   2.221   3.450   8.513
18859TIP3    H156454   2.140   3.472   8.564
18859TIP3    H256455   2.234   3.532   8.462
18860TIP3   OH256456   0.967   4.183   8.850
18860TIP3    H156457   0.902   4.227   8.791
18860TIP3    H256458   0.908   4.122   8.899
18861TIP3   OH256459   2.017   4.816   8.060
18861TIP3    H156460   2.025   4.913   8.048
18861TIP3    H256461   2.110   4.788   8.048
18862TIP3   OH256462   2.456   5.244   9.439
18862TIP3    H156463   2.464   5.145   9.436
18862TIP3    H256464   2.365   5.253   9.469
18863TIP3   OH256465   1.323   5.131   8.542
18863TIP3    H156466   1.281   5.119   8.455
18863TIP3    H256467   1.297   5.222   8.567
18864TIP3   OH256468   0.801   4.962   8.869
18864TIP3    H156469   0.817   4.961   8.966
18864TIP3    H256470   0.707   4.939   8.858
18865TIP3   OH256471   1.529   5.032   8.184
18865TIP3    H156472   1.589   4.964   8.149
18865TIP3    H256473   1.563   5.043   8.276
18866TIP3   OH256474   1.578   5.080   8.455
18866TIP3    H156475   1.491   5.090   8.500
18866TIP3    H256476   1.633   5.050   8.529
18867TIP3   OH256477   1.779   4.254   8.209
18867TIP3    H156478   1.748   4.228   8.120
18867TIP3    H256479   1.857   4.307   8.187
18868TIP3   OH256480   1.494   3.630   8.510
18868TIP3    H156481   1.460   3.627   8.602
18868TIP3    H256482   1.455   3.547   8.475
18869TIP3   OH256483   1.136   3.985   9.060
18869TIP3    H156484   1.069   3.916   9.071
18869TIP3    H256485   1.168   3.959   8.971
18870TIP3   OH256486   1.650   4.065   8.794
18870TIP3    H156487   1.599   4.140   8.756
18870TIP3    H256488   1.710   4.042   8.720
18871TIP3   OH256489   1.821   4.104   9.035
18871TIP3    H156490   1.757   4.133   8.968
18871TIP3    H256491   1.847   4.018   8.996
18872TIP3   OH256492   1.149   3.602   8.479
18872TIP3    H156493   1.140   3.597   8.576
18872TIP3    H256494   1.068   3.651   8.455
18873TIP3   OH256495   0.693   3.651   8.886
18873TIP3    H156496   0.723   3.676   8.796
18873TIP3    H256497   0.613   3.703   8.892
18874TIP3   OH256498   1.204   3.859   8.823
18874TIP3    H156499   1.293   3.875   8.788
18874TIP3    H256500   1.146   3.878   8.746
18875TIP3   OH256501   1.035   3.885   8.611
18875TIP3    H156502   0.961   3.843   8.563
18875TIP3    H256503   1.085   3.923   8.536
18876TIP3   OH256504   2.145   5.610   9.517
18876TIP3    H156505   2.144   5.620   9.419
18876TIP3    H256506   2.234   5.649   9.537
18877TIP3   OH256507   1.288   4.421   8.620
18877TIP3    H156508   1.215   4.356   8.608
18877TIP3    H256509   1.271   4.452   8.712
18878TIP3   OH256510   2.183   4.647   9.251
18878TIP3    H156511   2.219   4.696   9.173
18878TIP3    H256512   2.102   4.607   9.212
18879TIP3   OH256513   1.747   3.731   8.481
18879TIP3    H156514   1.650   3.718   8.483
18879TIP3    H256515   1.758   3.827   8.498
18880TIP3   OH256516   1.817   3.979   8.582
18880TIP3    H156517   1.913   3.985   8.596
18880TIP3    H256518   1.798   4.058   8.527
18881TIP3   OH256519   1.432   4.568   8.436
18881TIP3    H156520   1.385   4.655   8.442
18881TIP3    H256521   1.378   4.515   8.498
18882TIP3   OH256522   2.258   4.067   8.419
18882TIP3    H156523   2.196   4.022   8.358
18882TIP3    H256524   2.255   4.156   8.377
18883TIP3   OH256525   2.471   4.973   9.462
18883TIP3    H156526   2.380   4.938   9.453
18883TIP3    H256527   2.514   4.919   9.392
18884TIP3   OH256528   1.955   4.889   8.325
18884TIP3    H156529   1.932   4.820   8.389
18884TIP3    H256530   1.969   4.839   8.242
18885TIP3   OH256531   1.950   4.514   9.172
18885TIP3    H156532   1.856   4.487   9.165
18885TIP3    H256533   1.992   4.438   9.126
18886TIP3   OH256534   1.074   4.735   8.903
18886TIP3    H156535   1.099   4.820   8.863
18886TIP3    H256536   0.978   4.744   8.905
18887TIP3   OH256537   0.641   4.054   8.623
18887TIP3    H156538   0.711   4.124   8.628
18887TIP3    H256539   0.576   4.097   8.682
18888TIP3   OH256540   1.224   4.506   8.872
18888TIP3    H156541   1.188   4.597   8.878
18888TIP3    H256542   1.172   4.461   8.942
18889TIP3   OH256543   1.041   4.986   8.757
18889TIP3    H156544   0.949   4.989   8.793
18889TIP3    H256545   1.064   5.081   8.764
18890TIP3   OH256546   1.710   4.611   8.228
18890TIP3    H156547   1.763   4.587   8.307
18890TIP3    H256548   1.621   4.591   8.260
18891TIP3   OH256549   1.984   5.246   9.385
18891TIP3    H156550   1.890   5.229   9.364
18891TIP3    H256551   2.000   5.327   9.334
18892TIP3   OH256552   2.052   5.091   8.049
18892TIP3    H156553   2.090   5.165   7.998
18892TIP3    H256554   1.972   5.137   8.082
18893TIP3   OH256555   1.869   4.545   8.444
18893TIP3    H156556   1.862   4.481   8.517
18893TIP3    H256557   1.967   4.548   8.433
18894TIP3   OH256558   1.077   4.596   8.226
18894TIP3    H156559   1.094   4.504   8.198
18894TIP3    H256560   1.062   4.584   8.322
18895TIP3   OH256561   1.028   4.600   8.499
18895TIP3    H156562   1.097   4.577   8.562
18895TIP3    H256563   1.029   4.699   8.504
18896TIP3   OH256564   0.782   4.284   8.679
18896TIP3    H156565   0.718   4.335   8.735
18896TIP3    H256566   0.797   4.354   8.612
18897TIP3   OH256567   1.788   3.685   8.754
18897TIP3    H156568   1.773   3.708   8.660
18897TIP3    H256569   1.828   3.768   8.789
18898TIP3   OH256570   1.287   4.797   8.445
18898TIP3    H156571   1.203   4.828   8.484
18898TIP3    H256572   1.311   4.875   8.393
18899TIP3   OH256573   1.495   3.855   8.865
18899TIP3    H156574   1.554   3.922   8.825
18899TIP3    H256575   1.474   3.899   8.948
18900TIP3   OH256576   1.639   3.585   8.957
18900TIP3    H156577   1.638   3.661   9.018
18900TIP3    H256578   1.690   3.624   8.882
18901TIP3   OH256579   1.026   4.870   8.511
18901TIP3    H156580   0.999   4.942   8.449
18901TIP3    H256581   1.027   4.919   8.597
18902TIP3   OH256582   1.135   3.584   8.755
18902TIP3    H156583   1.130   3.674   8.792
18902TIP3    H256584   1.231   3.568   8.765
18903TIP3   OH256585   2.035   4.282   9.041
18903TIP3    H156586   1.960   4.220   9.054
18903TIP3    H256587   2.108   4.233   9.085
18904TIP3   OH256588   0.760   4.513   8.503
18904TIP3    H156589   0.828   4.581   8.513
18904TIP3    H256590   0.802   4.458   8.433
18905TIP3   OH256591   0.691   3.783   8.645
18905TIP3    H156592   0.689   3.881   8.640
18905TIP3    H256593   0.623   3.758   8.581
18906TIP3   OH256594   0.635   4.699   8.938
18906TIP3    H156595   0.569   4.753   8.890
18906TIP3    H256596   0.705   4.699   8.871
18907TIP3   OH256597   1.240   4.801   8.139
18907TIP3    H156598   1.186   4.731   8.181
18907TIP3    H256599   1.318   4.749   8.111
18908TIP3   OH256600   1.678   4.841   8.050
18908TIP3    H156601   1.727   4.782   8.109
18908TIP3    H256602   1.735   4.846   7.971
18909TIP3   OH256603   0.889   4.319   8.360
18909TIP3    H156604   0.943   4.285   8.433
18909TIP3    H256605   0.957   4.323   8.288
18910TIP3   OH256606   1.391   4.515   8.167
18910TIP3    H156607   1.395   4.529   8.264
18910TIP3    H256608   1.390   4.417   8.163
18911TIP3   OH256609   1.098   4.220   8.586
18911TIP3    H156610   1.064   4.181   8.668
18911TIP3    H256611   1.130   4.141   8.537
18912TIP3   OH256612   1.194   4.010   8.426
18912TIP3    H156613   1.166   4.014   8.332
18912TIP3    H256614   1.291   4.020   8.417
18913TIP3   OH256615   2.019   4.346   8.085
18913TIP3    H156616   1.996   4.299   8.002
18913TIP3    H256617   1.987   4.436   8.061
18914TIP3   OH256618   0.999   5.072   8.325
18914TIP3    H156619   1.096   5.072   8.310
18914TIP3    H256620   0.971   5.128   8.251
18915TIP3   OH256621   0.493   4.474   8.496
18915TIP3    H156622   0.589   4.484   8.515
18915TIP3    H256623   0.488   4.377   8.479
18916TIP3   OH256624   2.290   5.296   8.941
18916TIP3    H156625   2.252   5.337   9.020
18916TIP3    H256626   2.299   5.372   8.882
18917TIP3   OH256627   2.275   5.352   9.229
18917TIP3    H156628   2.243   5.261   9.213
18917TIP3    H256629   2.362   5.334   9.268
18918TIP3   OH256630   2.151   4.533   8.419
18918TIP3    H156631   2.219   4.598   8.392
18918TIP3    H256632   2.194   4.493   8.498
18919TIP3   OH256633   2.278   4.399   8.622
18919TIP3    H156634   2.213   4.359   8.683
18919TIP3    H256635   2.343   4.440   8.683
18920TIP3   OH256636   2.327   4.785   9.062
18920TIP3    H156637   2.382   4.729   9.004
18920TIP3    H256638   2.320   4.867   9.008
18921TIP3   OH256639   2.166   5.095   9.247
18921TIP3    H156640   2.096   5.144   9.294
18921TIP3    H256641   2.116   5.058   9.171
18922TIP3   OH256642   2.217   4.307   8.271
18922TIP3    H156643   2.145   4.311   8.203
18922TIP3    H256644   2.191   4.384   8.326
18923TIP3   OH256645   2.087   3.982   8.227
18923TIP3    H156646   2.048   4.023   8.150
18923TIP3    H256647   2.061   3.888   8.215
18924TIP3   OH256648   2.092   4.256   8.772
18924TIP3    H156649   2.102   4.160   8.768
18924TIP3    H256650   2.078   4.272   8.868
18925TIP3   OH256651   2.031   3.716   8.214
18925TIP3    H156652   2.108   3.685   8.265
18925TIP3    H256653   1.960   3.654   8.239
18926TIP3   OH256654   2.088   3.972   8.667
18926TIP3    H156655   2.130   3.884   8.682
18926TIP3    H256656   2.146   4.007   8.597
18927TIP3   OH256657   2.251   4.155   9.150
18927TIP3    H156658   2.340   4.179   9.115
18927TIP3    H256659   2.262   4.180   9.243
18928TIP3   OH256660   2.197   3.723   8.704
18928TIP3    H156661   2.249   3.706   8.785
18928TIP3    H256662   2.139   3.644   8.701
18929TIP3   OH256663   2.281   3.658   8.335
18929TIP3    H156664   2.321   3.585   8.283
18929TIP3    H256665   2.347   3.729   8.326
18930TIP3   OH256666   1.840   5.195   8.603
18930TIP3    H156667   1.894   5.180   8.523
18930TIP3    H256668   1.894   5.259   8.651
18931TIP3   OH256669   1.477   5.292   9.186
18931TIP3    H156670   1.401   5.293   9.124
18931TIP3    H256671   1.464   5.378   9.231
18932TIP3   OH256672   1.727   5.232   9.278
18932TIP3    H156673   1.638   5.256   9.245
18932TIP3    H256674   1.779   5.252   9.195
18933TIP3   OH256675   0.894   4.963   9.125
18933TIP3    H156676   0.922   4.881   9.171
18933TIP3    H256677   0.981   5.009   9.123
18934TIP3   OH256678   1.156   5.049   9.151
18934TIP3    H156679   1.213   4.971   9.133
18934TIP3    H256680   1.184   5.076   9.240
18935TIP3   OH256681   2.270   3.607   9.159
18935TIP3    H156682   2.315   3.643   9.079
18935TIP3    H256683   2.177   3.615   9.131
18936TIP3   OH256684   2.366   3.678   8.918
18936TIP3    H156685   2.440   3.628   8.876
18936TIP3    H256686   2.399   3.770   8.904
18937TIP3   OH256687   1.999   3.580   9.104
18937TIP3    H156688   1.986   3.588   9.009
18937TIP3    H256689   2.025   3.487   9.113
18938TIP3   OH256690   2.016   3.509   8.695
18938TIP3    H156691   1.928   3.551   8.696
18938TIP3    H256692   1.997   3.424   8.740
18939TIP3   OH256693   0.901   3.455   8.655
18939TIP3    H156694   0.950   3.381   8.615
18939TIP3    H256695   0.969   3.498   8.709
18940TIP3   OH256696   1.414   3.609   8.778
18940TIP3    H156697   1.475   3.563   8.836
18940TIP3    H256698   1.435   3.702   8.803
18941TIP3   OH256699   1.269   5.039   8.276
18941TIP3    H156700   1.358   5.061   8.242
18941TIP3    H256701   1.249   4.963   8.218
18942TIP3   OH256702   1.990   5.155   8.370
18942TIP3    H156703   1.979   5.058   8.356
18942TIP3    H256704   1.944   5.190   8.291
18943TIP3   OH256705   0.593   4.883   8.374
18943TIP3    H156706   0.614   4.976   8.392
18943TIP3    H256707   0.677   4.847   8.338
18944TIP3   OH256708   3.482   4.671   8.325
18944TIP3    H156709   3.455   4.763   8.306
18944TIP3    H256710   3.404   4.623   8.292
18945TIP3   OH256711   3.481   4.670   8.702
18945TIP3    H156712   3.510   4.641   8.790
18945TIP3    H256713   3.438   4.591   8.667
18946TIP3   OH256714   2.782   4.568   9.066
18946TIP3    H156715   2.814   4.505   9.133
18946TIP3    H256716   2.855   4.631   9.063
18947TIP3   OH256717   3.723   4.972   8.385
18947TIP3    H156718   3.709   4.903   8.451
18947TIP3    H256719   3.749   5.048   8.439
18948TIP3   OH256720   2.752   4.975   8.796
18948TIP3    H156721   2.741   4.878   8.800
18948TIP3    H256722   2.849   4.982   8.791
18949TIP3   OH256723   2.457   4.180   8.584
18949TIP3    H156724   2.410   4.264   8.596
18949TIP3    H256725   2.387   4.126   8.544
18950TIP3   OH256726   2.517   4.467   8.748
18950TIP3    H156727   2.567   4.392   8.788
18950TIP3    H256728   2.578   4.497   8.680
18951TIP3   OH256729   3.370   5.435   8.399
18951TIP3    H156730   3.420   5.363   8.355
18951TIP3    H256731   3.364   5.403   8.490
18952TIP3   OH256732   3.280   4.896   8.752
18952TIP3    H156733   3.317   4.820   8.704
18952TIP3    H256734   3.364   4.940   8.777
18953TIP3   OH256735   4.289   4.222   8.749
18953TIP3    H156736   4.310   4.305   8.796
18953TIP3    H256737   4.296   4.250   8.656
18954TIP3   OH256738   3.692   4.400   8.787
18954TIP3    H156739   3.733   4.314   8.807
18954TIP3    H256740   3.661   4.385   8.696
18955TIP3   OH256741   3.026   4.058   8.753
18955TIP3    H156742   3.007   4.131   8.690
18955TIP3    H256743   2.980   3.984   8.708
18956TIP3   OH256744   3.722   4.149   8.376
18956TIP3    H156745   3.795   4.132   8.439
18956TIP3    H256746   3.772   4.184   8.300
18957TIP3   OH256747   2.663   4.261   8.859
18957TIP3    H156748   2.746   4.241   8.905
18957TIP3    H256749   2.674   4.205   8.779
18958TIP3   OH256750   3.105   4.458   8.647
18958TIP3    H156751   3.198   4.432   8.663
18958TIP3    H256752   3.065   4.374   8.617
18959TIP3   OH256753   4.367   4.427   8.916
18959TIP3    H156754   4.283   4.475   8.901
18959TIP3    H256755   4.373   4.434   9.013
18960TIP3   OH256756   3.026   4.040   9.187
18960TIP3    H156757   2.968   4.080   9.120
18960TIP3    H256758   2.969   4.041   9.265
18961TIP3   OH256759   3.378   4.894   8.194
18961TIP3    H156760   3.330   4.869   8.113
18961TIP3    H256761   3.333   4.979   8.216
18962TIP3   OH256762   3.132   4.816   8.983
18962TIP3    H156763   3.068   4.880   9.021
18962TIP3    H256764   3.173   4.869   8.913
18963TIP3   OH256765   3.937   4.149   8.544
18963TIP3    H156766   3.925   4.099   8.625
18963TIP3    H256767   3.988   4.226   8.573
18964TIP3   OH256768   2.897   4.156   8.973
18964TIP3    H156769   2.958   4.230   8.993
18964TIP3    H256770   2.944   4.115   8.896
18965TIP3   OH256771   2.959   5.008   9.078
18965TIP3    H156772   2.934   5.094   9.038
18965TIP3    H256773   2.880   4.993   9.135
18966TIP3   OH256774   2.357   4.699   8.315
18966TIP3    H156775   2.314   4.727   8.232
18966TIP3    H256776   2.386   4.786   8.353
18967TIP3   OH256777   3.796   5.214   8.554
18967TIP3    H156778   3.706   5.206   8.594
18967TIP3    H256779   3.788   5.301   8.510
18968TIP3   OH256780   4.084   4.118   8.917
18968TIP3    H156781   3.995   4.147   8.891
18968TIP3    H256782   4.139   4.149   8.842
18969TIP3   OH256783   3.385   3.760   8.898
18969TIP3    H156784   3.372   3.665   8.915
18969TIP3    H256785   3.308   3.798   8.945
18970TIP3   OH256786   3.501   5.263   8.232
18970TIP3    H156787   3.550   5.181   8.208
18970TIP3    H256788   3.559   5.329   8.188
18971TIP3   OH256789   3.641   5.048   8.132
18971TIP3    H156790   3.598   4.970   8.095
18971TIP3    H256791   3.676   5.013   8.217
18972TIP3   OH256792   4.021   5.131   8.898
18972TIP3    H156793   4.010   5.053   8.839
18972TIP3    H256794   4.004   5.205   8.836
18973TIP3   OH256795   3.312   4.523   8.154
18973TIP3    H156796   3.231   4.573   8.132
18973TIP3    H256797   3.358   4.520   8.068
18974TIP3   OH256798   3.271   4.307   7.874
18974TIP3    H156799   3.340   4.356   7.921
18974TIP3    H256800   3.326   4.242   7.826
18975TIP3   OH256801   4.217   4.764   8.740
18975TIP3    H156802   4.134   4.817   8.748
18975TIP3    H256803   4.245   4.791   8.650
18976TIP3   OH256804   3.659   4.605   8.127
18976TIP3    H156805   3.604   4.631   8.205
18976TIP3    H256806   3.742   4.579   8.172
18977TIP3   OH256807   3.896   4.646   9.036
18977TIP3    H156808   3.893   4.728   9.088
18977TIP3    H256809   3.809   4.651   8.991
18978TIP3   OH256810   2.892   4.604   8.543
18978TIP3    H156811   2.850   4.547   8.475
18978TIP3    H256812   2.969   4.551   8.570
18979TIP3   OH256813   3.022   5.014   8.692
18979TIP3    H156814   3.001   4.969   8.609
18979TIP3    H256815   3.113   4.982   8.710
18980TIP3   OH256816   3.033   4.574   8.897
18980TIP3    H156817   3.064   4.557   8.805
18980TIP3    H256818   3.073   4.660   8.918
18981TIP3   OH256819   3.555   5.212   8.674
18981TIP3    H156820   3.539   5.292   8.727
18981TIP3    H256821   3.540   5.139   8.738
18982TIP3   OH256822   3.164   5.131   9.221
18982TIP3    H156823   3.104   5.195   9.266
18982TIP3    H256824   3.098   5.079   9.171
18983TIP3   OH256825   3.502   4.462   7.953
18983TIP3    H156826   3.560   4.522   8.005
18983TIP3    H256827   3.527   4.488   7.861
18984TIP3   OH256828   2.922   4.690   9.316
18984TIP3    H156829   2.923   4.773   9.368
18984TIP3    H256830   2.828   4.663   9.330
18985TIP3   OH256831   3.243   5.144   8.227
18985TIP3    H156832   3.318   5.200   8.251
18985TIP3    H256833   3.179   5.208   8.191
18986TIP3   OH256834   2.962   5.300   9.307
18986TIP3    H156835   2.926   5.300   9.216
18986TIP3    H256836   2.883   5.273   9.360
18987TIP3   OH256837   4.017   3.706   8.001
18987TIP3    H156838   3.935   3.724   8.051
18987TIP3    H256839   4.027   3.789   7.950
18988TIP3   OH256840   2.758   4.446   8.348
18988TIP3    H156841   2.694   4.493   8.291
18988TIP3    H256842   2.714   4.361   8.360
18989TIP3   OH256843   3.813   5.073   7.546
18989TIP3    H156844   3.822   5.170   7.535
18989TIP3    H256845   3.906   5.044   7.535
18990TIP3   OH256846   2.548   4.819   9.253
18990TIP3    H156847   2.482   4.801   9.183
18990TIP3    H256848   2.583   4.730   9.273
18991TIP3   OH256849   2.390   5.019   8.903
18991TIP3    H156850   2.485   5.032   8.889
18991TIP3    H256851   2.363   5.108   8.934
18992TIP3   OH256852   4.259   5.472   8.942
18992TIP3    H156853   4.257   5.376   8.956
18992TIP3    H256854   4.176   5.498   8.988
18993TIP3   OH256855   3.366   5.259   9.079
18993TIP3    H156856   3.365   5.353   9.109
18993TIP3    H256857   3.293   5.222   9.132
18994TIP3   OH256858   3.123   5.391   8.029
18994TIP3    H156859   3.077   5.372   7.946
18994TIP3    H256860   3.091   5.480   8.052
18995TIP3   OH256861   2.562   5.240   8.412
18995TIP3    H156862   2.611   5.229   8.496
18995TIP3    H256863   2.494   5.172   8.423
18996TIP3   OH256864   3.326   5.291   7.670
18996TIP3    H156865   3.386   5.221   7.635
18996TIP3    H256866   3.359   5.299   7.763
18997TIP3   OH256867   3.375   5.338   7.941
18997TIP3    H156868   3.287   5.348   7.983
18997TIP3    H256869   3.425   5.297   8.013
18998TIP3   OH256870   4.151   4.608   9.217
18998TIP3    H156871   4.068   4.621   9.168
18998TIP3    H256872   4.167   4.513   9.204
18999TIP3   OH256873   2.744   5.011   9.245
18999TIP3    H156874   2.789   4.997   9.331
18999TIP3    H256875   2.673   4.944   9.249
19000TIP3   OH256876   3.143   3.837   9.023
19000TIP3    H156877   3.053   3.806   8.999
19000TIP3    H256878   3.120   3.923   9.063
19001TIP3   OH256879   3.695   3.957   9.217
19001TIP3    H156880   3.755   3.917   9.284
19001TIP3    H256881   3.606   3.931   9.248
19002TIP3   OH256882   3.916   4.381   9.135
19002TIP3    H156883   3.871   4.375   9.223
19002TIP3    H256884   3.893   4.470   9.105
19003TIP3   OH256885   3.576   4.513   7.697
19003TIP3    H156886   3.544   4.485   7.609
19003TIP3    H256887   3.656   4.563   7.672
19004TIP3   OH256888   3.290   3.887   7.998
19004TIP3    H156889   3.257   3.885   8.090
19004TIP3    H256890   3.252   3.803   7.965
19005TIP3   OH256891   3.075   4.351   9.046
19005TIP3    H156892   3.027   4.374   9.128
19005TIP3    H256893   3.060   4.432   8.992
19006TIP3   OH256894   2.960   4.237   8.560
19006TIP3    H156895   2.866   4.212   8.576
19006TIP3    H256896   2.973   4.198   8.471
19007TIP3   OH256897   3.450   4.325   8.287
19007TIP3    H156898   3.396   4.396   8.246
19007TIP3    H256899   3.504   4.296   8.211
19008TIP3   OH256900   3.628   4.615   9.366
19008TIP3    H156901   3.601   4.535   9.417
19008TIP3    H256902   3.722   4.622   9.391
19009TIP3   OH256903   3.608   4.354   8.527
19009TIP3    H156904   3.549   4.385   8.456
19009TIP3    H256905   3.640   4.271   8.485
19010TIP3   OH256906   2.895   4.386   9.257
19010TIP3    H156907   2.916   4.456   9.320
19010TIP3    H256908   2.839   4.328   9.310
19011TIP3   OH256909   2.945   3.859   7.965
19011TIP3    H156910   2.938   3.855   8.062
19011TIP3    H256911   2.865   3.909   7.942
19012TIP3   OH256912   2.486   3.904   8.836
19012TIP3    H156913   2.562   3.936   8.889
19012TIP3    H256914   2.527   3.873   8.754
19013TIP3   OH256915   2.464   3.885   8.355
19013TIP3    H156916   2.509   3.924   8.277
19013TIP3    H256917   2.403   3.959   8.377
19014TIP3   OH256918   3.618   4.602   8.950
19014TIP3    H156919   3.651   4.529   8.893
19014TIP3    H256920   3.590   4.551   9.028
19015TIP3   OH256921   3.285   4.062   8.622
19015TIP3    H156922   3.202   4.058   8.674
19015TIP3    H256923   3.352   4.062   8.692
19016TIP3   OH256924   2.721   4.115   8.632
19016TIP3    H156925   2.626   4.122   8.604
19016TIP3    H256926   2.745   4.024   8.606
19017TIP3   OH256927   2.993   4.114   8.317
19017TIP3    H156928   3.087   4.128   8.296
19017TIP3    H256929   2.946   4.137   8.234
19018TIP3   OH256930   3.778   4.136   8.822
19018TIP3    H156931   3.743   4.148   8.913
19018TIP3    H256932   3.713   4.074   8.785
19019TIP3   OH256933   2.829   4.145   8.097
19019TIP3    H156934   2.757   4.101   8.049
19019TIP3    H256935   2.881   4.181   8.022
19020TIP3   OH256936   3.947   5.824   9.041
19020TIP3    H156937   3.944   5.848   8.947
19020TIP3    H256938   4.023   5.876   9.073
19021TIP3   OH256939   2.895   4.934   9.472
19021TIP3    H156940   2.958   5.002   9.500
19021TIP3    H256941   2.837   4.927   9.551
19022TIP3   OH256942   3.371   4.387   8.718
19022TIP3    H156943   3.442   4.348   8.666
19022TIP3    H256944   3.385   4.347   8.806
19023TIP3   OH256945   2.895   3.877   8.595
19023TIP3    H156946   2.864   3.796   8.639
19023TIP3    H256947   2.948   3.842   8.522
19024TIP3   OH256948   3.346   4.278   9.019
19024TIP3    H156949   3.258   4.320   9.025
19024TIP3    H256950   3.405   4.343   9.061
19025TIP3   OH256951   3.084   4.676   8.104
19025TIP3    H156952   3.011   4.612   8.093
19025TIP3    H256953   3.066   4.710   8.195
19026TIP3   OH256954   3.986   4.911   8.735
19026TIP3    H156955   4.009   4.961   8.653
19026TIP3    H256956   3.899   4.872   8.712
19027TIP3   OH256957   3.542   3.990   7.964
19027TIP3    H156958   3.445   3.974   7.971
19027TIP3    H256959   3.552   4.084   7.987
19028TIP3   OH256960   3.483   4.993   9.102
19028TIP3    H156961   3.504   4.972   9.193
19028TIP3    H256962   3.445   5.083   9.108
19029TIP3   OH256963   3.612   4.235   8.068
19029TIP3    H156964   3.709   4.241   8.083
19029TIP3    H256965   3.593   4.314   8.014
19030TIP3   OH256966   2.774   4.694   8.782
19030TIP3    H156967   2.813   4.668   8.696
19030TIP3    H256968   2.815   4.631   8.843
19031TIP3   OH256969   3.228   4.826   7.923
19031TIP3    H156970   3.181   4.912   7.931
19031TIP3    H256971   3.174   4.770   7.983
19032TIP3   OH256972   2.667   4.598   9.381
19032TIP3    H156973   2.645   4.630   9.470
19032TIP3    H256974   2.589   4.544   9.358
19033TIP3   OH256975   3.377   4.730   9.405
19033TIP3    H156976   3.321   4.669   9.354
19033TIP3    H256977   3.467   4.701   9.378
19034TIP3   OH256978   3.645   5.253   8.996
19034TIP3    H156979   3.548   5.252   9.008
19034TIP3    H256980   3.672   5.305   9.074
19035TIP3   OH256981   4.056   4.324   7.905
19035TIP3    H156982   3.993   4.278   7.845
19035TIP3    H256983   4.052   4.412   7.863
19036TIP3   OH256984   4.271   5.181   8.987
19036TIP3    H156985   4.173   5.177   8.979
19036TIP3    H256986   4.297   5.152   8.897
19037TIP3   OH256987   3.754   5.144   7.813
19037TIP3    H156988   3.728   5.076   7.876
19037TIP3    H256989   3.764   5.095   7.729
19038TIP3   OH256990   3.750   4.773   8.655
19038TIP3    H156991   3.656   4.748   8.667
19038TIP3    H256992   3.784   4.694   8.609
19039TIP3   OH256993   2.875   4.999   8.402
19039TIP3    H156994   2.877   5.082   8.351
19039TIP3    H256995   2.780   4.988   8.416
19040TIP3   OH256996   2.438   4.306   8.106
19040TIP3    H156997   2.485   4.390   8.126
19040TIP3    H256998   2.361   4.313   8.167
19041TIP3   OH256999   3.019   4.768   8.351
19041TIP3    H157000   2.981   4.857   8.366
19041TIP3    H257001   2.980   4.719   8.425
19042TIP3   OH257002   3.144   5.345   8.875
19042TIP3    H157003   3.183   5.419   8.824
19042TIP3    H257004   3.222   5.313   8.923
19043TIP3   OH257005   2.797   5.239   8.258
19043TIP3    H157006   2.710   5.246   8.303
19043TIP3    H257007   2.827   5.332   8.261
19044TIP3   OH257008   3.536   4.979   8.832
19044TIP3    H157009   3.526   4.978   8.930
19044TIP3    H257010   3.616   4.927   8.820
19045TIP3   OH257011   3.506   4.871   7.714
19045TIP3    H157012   3.559   4.846   7.793
19045TIP3    H257013   3.417   4.846   7.744
19046TIP3   OH257014   3.783   5.514   8.883
19046TIP3    H157015   3.704   5.457   8.875
19046TIP3    H257016   3.768   5.579   8.811
19047TIP3   OH257017   3.848   5.349   7.535
19047TIP3    H157018   3.886   5.422   7.484
19047TIP3    H257019   3.768   5.394   7.569
19048TIP3   OH257020   3.666   4.805   7.931
19048TIP3    H157021   3.656   4.740   8.003
19048TIP3    H257022   3.763   4.805   7.920
19049TIP3   OH257023   2.593   5.208   9.030
19049TIP3    H157024   2.640   5.134   9.069
19049TIP3    H257025   2.613   5.280   9.091
19050TIP3   OH257026   2.875   4.853   7.713
19050TIP3    H157027   2.889   4.761   7.684
19050TIP3    H257028   2.857   4.841   7.809
19051TIP3   OH257029   2.822   4.857   7.985
19051TIP3    H157030   2.889   4.831   8.049
19051TIP3    H257031   2.825   4.955   7.993
19052TIP3   OH257032   2.557   4.552   8.190
19052TIP3    H157033   2.491   4.597   8.247
19052TIP3    H257034   2.571   4.622   8.123
19053TIP3   OH257035   3.703   4.193   9.079
19053TIP3    H157036   3.783   4.234   9.116
19053TIP3    H257037   3.696   4.111   9.133
19054TIP3   OH257038   3.581   3.942   8.244
19054TIP3    H157039   3.569   3.965   8.150
19054TIP3    H257040   3.621   4.024   8.280
19055TIP3   OH257041   3.085   5.056   7.935
19055TIP3    H157042   2.999   5.084   7.971
19055TIP3    H257043   3.102   5.129   7.873
19056TIP3   OH257044   3.276   4.118   8.348
19056TIP3    H157045   3.340   4.189   8.330
19056TIP3    H257046   3.280   4.112   8.446
19057TIP3   OH257047   3.542   4.438   9.154
19057TIP3    H157048   3.557   4.492   9.234
19057TIP3    H257049   3.600   4.361   9.169
19058TIP3   OH257050   3.421   3.850   8.453
19058TIP3    H157051   3.413   3.927   8.512
19058TIP3    H257052   3.479   3.886   8.383
19059TIP3   OH257053   2.827   5.130   8.002
19059TIP3    H157054   2.797   5.200   7.939
19059TIP3    H257055   2.811   5.174   8.088
19060TIP3   OH257056   2.929   3.843   8.242
19060TIP3    H157057   2.928   3.934   8.276
19060TIP3    H257058   3.025   3.824   8.250
19061TIP3   OH257059   4.183   4.344   9.126
19061TIP3    H157060   4.086   4.341   9.141
19061TIP3    H257061   4.188   4.289   9.047
19062TIP3   OH257062   3.836   4.532   8.526
19062TIP3    H157063   3.759   4.473   8.538
19062TIP3    H257064   3.906   4.484   8.574
19063TIP3   OH257065   2.545   4.764   7.997
19063TIP3    H157066   2.606   4.839   8.006
19063TIP3    H257067   2.594   4.712   7.929
19064TIP3   OH257068   2.492   4.037   8.130
19064TIP3    H157069   2.491   4.135   8.124
19064TIP3    H257070   2.409   4.013   8.087
19065TIP3   OH257071   3.803   5.486   8.476
19065TIP3    H157072   3.760   5.533   8.401
19065TIP3    H257073   3.897   5.505   8.455
19066TIP3   OH257074   2.878   3.762   9.003
19066TIP3    H157075   2.848   3.727   8.916
19066TIP3    H257076   2.869   3.681   9.059
19067TIP3   OH257077   2.418   4.968   8.386
19067TIP3    H157078   2.347   5.006   8.440
19067TIP3    H257079   2.399   5.012   8.300
19068TIP3   OH257080   2.574   5.515   9.431
19068TIP3    H157081   2.652   5.501   9.487
19068TIP3    H257082   2.532   5.427   9.436
19069TIP3   OH257083   3.061   5.472   9.508
19069TIP3    H157084   3.157   5.465   9.502
19069TIP3    H257085   3.033   5.421   9.430
19070TIP3   OH257086   3.038   5.058   7.628
19070TIP3    H157087   2.981   4.988   7.667
19070TIP3    H257088   3.113   5.004   7.597
19071TIP3   OH257089   3.697   5.388   9.231
19071TIP3    H157090   3.687   5.317   9.298
19071TIP3    H257091   3.774   5.437   9.263
19072TIP3   OH257092   3.475   5.099   7.538
19072TIP3    H157093   3.519   5.035   7.597
19072TIP3    H257094   3.534   5.100   7.460
19073TIP3   OH257095   2.682   4.575   7.846
19073TIP3    H157096   2.736   4.541   7.919
19073TIP3    H257097   2.750   4.579   7.775
19074TIP3   OH257098   3.326   5.003   9.411
19074TIP3    H157099   3.277   5.014   9.327
19074TIP3    H257100   3.350   4.908   9.410
19075TIP3   OH257101   3.189   4.772   7.653
19075TIP3    H157102   3.191   4.786   7.750
19075TIP3    H257103   3.188   4.674   7.650
19076TIP3   OH257104   3.806   5.013   9.032
19076TIP3    H157105   3.879   5.061   8.989
19076TIP3    H257106   3.733   5.077   9.022
19077TIP3   OH257107   2.892   4.477   8.072
19077TIP3    H157108   2.865   4.434   8.155
19077TIP3    H257109   2.926   4.400   8.020
19078TIP3   OH257110   3.162   4.539   9.302
19078TIP3    H157111   3.085   4.600   9.306
19078TIP3    H257112   3.207   4.571   9.220
19079TIP3   OH257113   2.989   4.269   7.912
19079TIP3    H157114   2.963   4.270   7.818
19079TIP3    H257115   3.087   4.276   7.904
19080TIP3   OH257116   3.675   4.943   9.428
19080TIP3    H157117   3.758   4.929   9.381
19080TIP3    H257118   3.680   4.877   9.499
19081TIP3   OH257119   3.815   4.604   7.571
19081TIP3    H157120   3.792   4.555   7.490
19081TIP3    H257121   3.783   4.693   7.546
19082TIP3   OH257122   3.260   4.310   9.436
19082TIP3    H157123   3.266   4.244   9.364
19082TIP3    H257124   3.221   4.387   9.390
19083TIP3   OH257125   3.284   4.112   9.235
19083TIP3    H157126   3.313   4.159   9.154
19083TIP3    H257127   3.190   4.091   9.213
19084TIP3   OH257128   3.315   4.651   9.103
19084TIP3    H157129   3.397   4.660   9.053
19084TIP3    H257130   3.258   4.719   9.062
19085TIP3   OH257131   3.903   4.607   9.478
19085TIP3    H157132   3.953   4.525   9.494
19085TIP3    H257133   3.974   4.669   9.457
19086TIP3   OH257134   3.936   4.870   9.221
19086TIP3    H157135   3.878   4.923   9.161
19086TIP3    H257136   4.024   4.890   9.181
19087TIP3   OH257137   3.437   3.880   9.242
19087TIP3    H157138   3.383   3.961   9.232
19087TIP3    H257139   3.369   3.815   9.268
19088TIP3   OH257140   3.523   4.388   9.467
19088TIP3    H157141   3.557   4.325   9.535
19088TIP3    H257142   3.429   4.361   9.460
19089TIP3   OH257143   3.788   4.328   9.365
19089TIP3    H157144   3.709   4.327   9.421
19089TIP3    H257145   3.859   4.314   9.431
19090TIP3   OH257146   4.000   4.312   9.549
19090TIP3    H157147   4.013   4.215   9.534
19090TIP3    H257148   4.004   4.317   9.645
19091TIP3   OH257149   3.588   3.783   9.508
19091TIP3    H157150   3.651   3.855   9.493
19091TIP3    H257151   3.503   3.824   9.479
19092TIP3   OH257152   2.797   5.332   7.814
19092TIP3    H157153   2.892   5.331   7.795
19092TIP3    H257154   2.765   5.381   7.736
19093TIP3   OH257155   2.277   4.714   8.032
19093TIP3    H157156   2.372   4.737   8.020
19093TIP3    H257157   2.273   4.626   7.990
19094TIP3   OH257158   2.196   5.326   8.441
19094TIP3    H157159   2.124   5.266   8.410
19094TIP3    H257160   2.238   5.271   8.510
19095TIP3   OH257161   2.332   5.182   8.630
19095TIP3    H157162   2.309   5.112   8.692
19095TIP3    H257163   2.379   5.244   8.689
19096TIP3   OH257164   4.055   5.579   8.430
19096TIP3    H157165   4.080   5.612   8.518
19096TIP3    H257166   4.113   5.628   8.371
19097TIP3   OH257167   4.086   5.600   8.711
19097TIP3    H157168   4.042   5.512   8.708
19097TIP3    H257169   4.159   5.579   8.771
19098TIP3   OH257170   4.131   5.276   9.284
19098TIP3    H157171   4.057   5.283   9.347
19098TIP3    H257172   4.172   5.365   9.291
19099TIP3   OH257173   3.947   4.790   7.907
19099TIP3    H157174   4.017   4.853   7.880
19099TIP3    H257175   3.989   4.749   7.986
19100TIP3   OH257176   4.074   4.657   8.109
19100TIP3    H157177   4.009   4.614   8.168
19100TIP3    H257178   4.137   4.697   8.173
19101TIP3   OH257179   4.128   5.047   8.543
19101TIP3    H157180   4.181   4.986   8.489
19101TIP3    H257181   4.117   5.123   8.482
19102TIP3   OH257182   3.961   5.349   8.738
19102TIP3    H157183   3.891   5.392   8.790
19102TIP3    H257184   3.910   5.301   8.670
19103TIP3   OH257185   4.013   4.564   7.758
19103TIP3    H157186   3.942   4.567   7.690
19103TIP3    H257187   3.986   4.641   7.813
19104TIP3   OH257188   3.884   4.238   7.713
19104TIP3    H157189   3.843   4.277   7.635
19104TIP3    H257190   3.858   4.144   7.703
19105TIP3   OH257191   3.891   4.512   8.257
19105TIP3    H157192   3.897   4.415   8.252
19105TIP3    H257193   3.876   4.527   8.353
19106TIP3   OH257194   2.517   4.586   9.001
19106TIP3    H157195   2.515   4.559   8.907
19106TIP3    H257196   2.614   4.588   9.017
19107TIP3   OH257197   4.178   4.936   9.112
19107TIP3    H157198   4.251   4.872   9.105
19107TIP3    H257199   4.207   5.008   9.054
19108TIP3   OH257200   4.366   4.745   9.130
19108TIP3    H157201   4.292   4.696   9.171
19108TIP3    H257202   4.438   4.680   9.144
19109TIP3   OH257203   3.828   3.973   7.701
19109TIP3    H157204   3.903   3.941   7.754
19109TIP3    H257205   3.755   3.912   7.725
19110TIP3   OH257206   3.885   4.229   8.154
19110TIP3    H157207   3.925   4.140   8.169
19110TIP3    H257208   3.943   4.261   8.083
19111TIP3   OH257209   4.050   4.403   8.647
19111TIP3    H157210   4.135   4.433   8.608
19111TIP3    H257211   4.059   4.442   8.736
19112TIP3   OH257212   4.114   4.546   8.877
19112TIP3    H157213   4.038   4.579   8.929
19112TIP3    H257214   4.146   4.629   8.835
19113TIP3   OH257215   4.615   4.176   9.430
19113TIP3    H157216   4.591   4.082   9.423
19113TIP3    H257217   4.559   4.215   9.360
19114TIP3   OH257218   3.994   3.978   8.191
19114TIP3    H157219   4.041   3.961   8.274
19114TIP3    H257220   3.933   3.901   8.188
19115TIP3   OH257221   2.693   3.967   9.009
19115TIP3    H157222   2.754   3.891   9.018
19115TIP3    H257223   2.756   4.040   9.001
19116TIP3   OH257224   2.501   4.238   9.086
19116TIP3    H157225   2.550   4.235   9.001
19116TIP3    H257226   2.524   4.326   9.118
19117TIP3   OH257227   4.443   4.282   9.239
19117TIP3    H157228   4.357   4.305   9.280
19117TIP3    H257229   4.417   4.205   9.187
19118TIP3   OH257230   4.078   3.915   7.822
19118TIP3    H157231   4.116   3.841   7.770
19118TIP3    H257232   4.145   3.985   7.811
19119TIP3   OH257233   2.479   3.745   8.584
19119TIP3    H157234   2.385   3.743   8.606
19119TIP3    H257235   2.481   3.802   8.504
19120TIP3   OH257236   3.640   5.444   8.088
19120TIP3    H157237   3.691   5.429   8.007
19120TIP3    H257238   3.692   5.513   8.133
19121TIP3   OH257239   2.746   5.235   9.480
19121TIP3    H157240   2.653   5.229   9.453
19121TIP3    H257241   2.740   5.271   9.569
19122TIP3   OH257242   2.919   5.279   9.023
19122TIP3    H157243   2.866   5.352   8.985
19122TIP3    H257244   3.003   5.296   8.977
19123TIP3   OH257245   3.365   5.525   9.157
19123TIP3    H157246   3.406   5.530   9.246
19123TIP3    H257247   3.430   5.577   9.105
19124TIP3   OH257248   3.544   5.676   9.017
19124TIP3    H157249   3.617   5.626   8.977
19124TIP3    H257250   3.594   5.735   9.078
19125TIP3   OH257251   4.349   4.041   9.095
19125TIP3    H157252   4.253   4.038   9.078
19125TIP3    H257253   4.372   3.945   9.090
19126TIP3   OH257254   2.600   5.538   9.048
19126TIP3    H157255   2.512   5.571   9.019
19126TIP3    H257256   2.604   5.576   9.136
19127TIP3   OH257257   2.833   5.517   8.902
19127TIP3    H157258   2.748   5.529   8.949
19127TIP3    H257259   2.810   5.551   8.813
19128TIP3   OH257260   3.259   5.548   8.699
19128TIP3    H157261   3.188   5.569   8.635
19128TIP3    H257262   3.271   5.635   8.743
19129TIP3   OH257263   3.526   5.487   8.750
19129TIP3    H157264   3.431   5.503   8.732
19129TIP3    H257265   3.566   5.566   8.711
19130TIP3   OH257266   3.737   5.680   8.669
19130TIP3    H157267   3.721   5.765   8.621
19130TIP3    H257268   3.760   5.620   8.595
19131TIP3   OH257269   2.520   5.342   8.780
19131TIP3    H157270   2.528   5.314   8.874
19131TIP3    H257271   2.591   5.288   8.739
19132TIP3   OH257272   2.704   5.198   8.640
19132TIP3    H157273   2.719   5.116   8.693
19132TIP3    H257274   2.794   5.238   8.640
19133TIP3   OH257275   2.966   5.301   8.647
19133TIP3    H157276   2.998   5.209   8.636
19133TIP3    H257277   3.006   5.323   8.733
19134TIP3   OH257278   3.542   3.956   8.737
19134TIP3    H157279   3.498   3.887   8.790
19134TIP3    H257280   3.612   3.906   8.691
19135TIP3   OH257281   4.068   3.839   8.646
19135TIP3    H157282   4.103   3.888   8.568
19135TIP3    H257283   3.972   3.852   8.638
19136TIP3   OH257284   4.160   3.936   8.408
19136TIP3    H157285   4.232   3.884   8.366
19136TIP3    H257286   4.193   4.028   8.391
19137TIP3   OH257287   2.792   3.666   8.755
19137TIP3    H157288   2.700   3.632   8.754
19137TIP3    H257289   2.842   3.581   8.753
19138TIP3   OH257290   2.577   3.533   8.402
19138TIP3    H157291   2.608   3.589   8.329
19138TIP3    H257292   2.547   3.599   8.468
19139TIP3   OH257293   3.232   3.699   8.634
19139TIP3    H157294   3.292   3.748   8.576
19139TIP3    H257295   3.256   3.733   8.722
19140TIP3   OH257296   3.786   3.843   8.618
19140TIP3    H157297   3.779   3.808   8.529
19140TIP3    H257298   3.770   3.762   8.673
19141TIP3   OH257299   3.812   3.765   8.181
19141TIP3    H157300   3.723   3.805   8.188
19141TIP3    H257301   3.797   3.680   8.227
19142TIP3   OH257302   2.296   5.102   8.183
19142TIP3    H157303   2.211   5.070   8.147
19142TIP3    H257304   2.283   5.197   8.173
19143TIP3   OH257305   2.693   3.694   8.167
19143TIP3    H157306   2.741   3.631   8.110
19143TIP3    H257307   2.766   3.748   8.203
19144TIP3   OH257308   3.207   3.868   8.264
19144TIP3    H157309   3.266   3.820   8.324
19144TIP3    H257310   3.229   3.960   8.290
19145TIP3   OH257311   3.066   5.295   7.763
19145TIP3    H157312   3.154   5.318   7.727
19145TIP3    H257313   3.044   5.220   7.704
19146TIP3   OH257314   3.786   5.411   7.856
19146TIP3    H157315   3.776   5.314   7.842
19146TIP3    H257316   3.740   5.445   7.776
19147TIP3   OH257317   2.370   5.131   7.822
19147TIP3    H157318   2.366   5.160   7.915
19147TIP3    H257319   2.459   5.092   7.815
19148TIP3   OH257320   4.038   4.043   9.511
19148TIP3    H157321   4.079   3.983   9.578
19148TIP3    H257322   4.116   4.060   9.453
19149TIP3   OH257323   4.014   5.556   9.043
19149TIP3    H157324   3.934   5.523   8.997
19149TIP3    H257325   3.993   5.652   9.047
19150TIP3   OH257326   5.278   4.929   7.813
19150TIP3    H157327   5.250   5.020   7.792
19150TIP3    H257328   5.203   4.878   7.779
19151TIP3   OH257329   5.276   4.929   8.190
19151TIP3    H157330   5.305   4.896   8.276
19151TIP3    H257331   5.235   4.850   8.150
19152TIP3   OH257332   4.578   4.825   8.554
19152TIP3    H157333   4.611   4.761   8.620
19152TIP3    H257334   4.652   4.886   8.549
19153TIP3   OH257335   5.519   5.230   7.871
19153TIP3    H157336   5.505   5.159   7.935
19153TIP3    H257337   5.546   5.304   7.928
19154TIP3   OH257338   4.547   5.233   8.283
19154TIP3    H157339   4.538   5.135   8.286
19154TIP3    H257340   4.643   5.241   8.278
19155TIP3   OH257341   4.254   4.438   8.072
19155TIP3    H157342   4.204   4.522   8.081
19155TIP3    H257343   4.185   4.382   8.032
19156TIP3   OH257344   4.316   4.724   8.237
19156TIP3    H157345   4.364   4.647   8.274
19156TIP3    H257346   4.372   4.749   8.162
19157TIP3   OH257347   5.166   5.692   7.887
19157TIP3    H157348   5.216   5.620   7.841
19157TIP3    H257349   5.161   5.658   7.977
19158TIP3   OH257350   5.076   5.153   8.239
19158TIP3    H157351   5.112   5.077   8.192
19158TIP3    H257352   5.160   5.197   8.263
19159TIP3   OH257353   6.088   4.474   8.237
19159TIP3    H157354   6.116   4.557   8.280
19159TIP3    H257355   6.108   4.493   8.144
19160TIP3   OH257356   5.486   4.655   8.275
19160TIP3    H157357   5.529   4.570   8.293
19160TIP3    H257358   5.456   4.642   8.183
19161TIP3   OH257359   4.824   4.313   8.240
19161TIP3    H157360   4.805   4.387   8.178
19161TIP3    H257361   4.779   4.240   8.192
19162TIP3   OH257362   5.520   4.416   7.865
19162TIP3    H157363   5.593   4.393   7.927
19162TIP3    H257364   5.571   4.443   7.787
19163TIP3   OH257365   4.459   4.514   8.347
19163TIP3    H157366   4.545   4.499   8.390
19163TIP3    H257367   4.472   4.462   8.264
19164TIP3   OH257368   4.900   4.715   8.135
19164TIP3    H157369   4.994   4.689   8.148
19164TIP3    H257370   4.861   4.631   8.103
19165TIP3   OH257371   6.161   4.681   8.407
19165TIP3    H157372   6.078   4.729   8.388
19165TIP3    H257373   6.174   4.705   8.500
19166TIP3   OH257374   5.174   5.151   7.681
19166TIP3    H157375   5.127   5.123   7.602
19166TIP3    H257376   5.128   5.235   7.701
19167TIP3   OH257377   4.928   5.072   8.470
19167TIP3    H157378   4.864   5.137   8.508
19167TIP3    H257379   4.970   5.125   8.399
19168TIP3   OH257380   5.735   4.406   8.030
19168TIP3    H157381   5.727   4.351   8.109
19168TIP3    H257382   5.788   4.481   8.061
19169TIP3   OH257383   4.692   4.407   8.460
19169TIP3    H157384   4.754   4.477   8.491
19169TIP3    H257385   4.745   4.370   8.386
19170TIP3   OH257386   4.755   5.265   8.565
19170TIP3    H157387   4.729   5.351   8.525
19170TIP3    H257388   4.676   5.250   8.623
19171TIP3   OH257389   4.154   4.956   7.802
19171TIP3    H157390   4.110   4.983   7.719
19171TIP3    H257391   4.182   5.042   7.839
19172TIP3   OH257392   5.592   5.471   8.042
19172TIP3    H157393   5.502   5.463   8.082
19172TIP3    H257394   5.583   5.557   7.997
19173TIP3   OH257395   5.881   4.376   8.405
19173TIP3    H157396   5.792   4.402   8.374
19173TIP3    H257397   5.938   4.405   8.332
19174TIP3   OH257398   5.188   4.014   8.375
19174TIP3    H157399   5.180   3.919   8.393
19174TIP3    H257400   5.117   4.051   8.429
19175TIP3   OH257401   5.296   5.520   7.718
19175TIP3    H157402   5.345   5.438   7.696
19175TIP3    H257403   5.355   5.586   7.675
19176TIP3   OH257404   5.437   5.305   7.618
19176TIP3    H157405   5.394   5.226   7.582
19176TIP3    H257406   5.472   5.270   7.704
19177TIP3   OH257407   5.818   5.387   8.385
19177TIP3    H157408   5.807   5.309   8.326
19177TIP3    H257409   5.801   5.461   8.323
19178TIP3   OH257410   5.109   4.782   7.641
19178TIP3    H157411   5.027   4.829   7.616
19178TIP3    H257412   5.155   4.774   7.555
19179TIP3   OH257413   5.066   4.565   7.358
19179TIP3    H157414   5.137   4.611   7.408
19179TIP3    H257415   5.119   4.498   7.312
19180TIP3   OH257416   6.013   5.022   8.229
19180TIP3    H157417   5.930   5.074   8.235
19180TIP3    H257418   6.041   5.045   8.138
19181TIP3   OH257419   5.456   4.864   7.614
19181TIP3    H157420   5.400   4.887   7.692
19181TIP3    H257421   5.538   4.835   7.659
19182TIP3   OH257422   5.691   4.903   8.523
19182TIP3    H157423   5.688   4.987   8.572
19182TIP3    H257424   5.605   4.906   8.477
19183TIP3   OH257425   4.688   4.861   8.030
19183TIP3    H157426   4.645   4.804   7.963
19183TIP3    H257427   4.765   4.807   8.057
19184TIP3   OH257428   4.818   5.272   8.178
19184TIP3    H157429   4.797   5.225   8.096
19184TIP3    H257430   4.908   5.239   8.197
19185TIP3   OH257431   4.830   4.827   8.385
19185TIP3    H157432   4.860   4.811   8.294
19185TIP3    H257433   4.869   4.915   8.405
19186TIP3   OH257434   5.350   5.469   8.161
19186TIP3    H157435   5.335   5.548   8.215
19186TIP3    H257436   5.336   5.395   8.224
19187TIP3   OH257437   4.961   5.388   8.708
19187TIP3    H157438   4.902   5.451   8.755
19187TIP3    H257439   4.894   5.335   8.660
19188TIP3   OH257440   5.298   4.719   7.440
19188TIP3    H157441   5.357   4.778   7.493
19188TIP3    H257442   5.323   4.745   7.348
19189TIP3   OH257443   4.714   4.944   8.806
19189TIP3    H157444   4.720   5.030   8.853
19189TIP3    H257445   4.619   4.927   8.818
19190TIP3   OH257446   5.038   5.401   7.713
19190TIP3    H157447   5.115   5.456   7.737
19190TIP3    H257448   4.976   5.466   7.677
19191TIP3   OH257449   4.757   5.558   8.795
19191TIP3    H157450   4.721   5.554   8.704
19191TIP3    H257451   4.677   5.536   8.849
19192TIP3   OH257452   5.813   3.963   7.488
19192TIP3    H157453   5.729   3.975   7.537
19192TIP3    H257454   5.820   4.047   7.439
19193TIP3   OH257455   4.551   4.704   7.840
19193TIP3    H157456   4.488   4.748   7.779
19193TIP3    H257457   4.515   4.615   7.844
19194TIP3   OH257458   5.610   5.329   7.033
19194TIP3    H157459   5.618   5.427   7.022
19194TIP3    H257460   5.703   5.301   7.022
19195TIP3   OH257461   4.336   5.086   8.742
19195TIP3    H157462   4.270   5.064   8.673
19195TIP3    H257463   4.372   4.998   8.767
19196TIP3   OH257464   4.189   5.279   8.376
19196TIP3    H157465   4.285   5.275   8.367
19196TIP3    H257466   4.177   5.359   8.428
19197TIP3   OH257467   6.054   5.729   8.428
19197TIP3    H157468   6.053   5.632   8.442
19197TIP3    H257469   5.971   5.754   8.475
19198TIP3   OH257470   5.161   5.517   8.565
19198TIP3    H157471   5.161   5.610   8.597
19198TIP3    H257472   5.089   5.478   8.619
19199TIP3   OH257473   4.919   5.648   7.516
19199TIP3    H157474   4.873   5.628   7.432
19199TIP3    H257475   4.887   5.737   7.538
19200TIP3   OH257476   4.358   5.496   7.899
19200TIP3    H157477   4.406   5.486   7.984
19200TIP3    H257478   4.297   5.421   7.905
19201TIP3   OH257479   5.122   5.547   7.157
19201TIP3    H157480   5.181   5.477   7.122
19201TIP3    H257481   5.156   5.556   7.249
19202TIP3   OH257482   5.171   5.595   7.428
19202TIP3    H157483   5.083   5.605   7.470
19202TIP3    H257484   5.221   5.552   7.499
19203TIP3   OH257485   5.945   4.863   8.704
19203TIP3    H157486   5.865   4.877   8.651
19203TIP3    H257487   5.959   4.767   8.693
19204TIP3   OH257488   4.541   5.269   8.733
19204TIP3    H157489   4.591   5.253   8.815
19204TIP3    H257490   4.467   5.206   8.740
19205TIP3   OH257491   5.475   4.209   8.708
19205TIP3    H157492   5.543   4.183   8.772
19205TIP3    H257493   5.391   4.188   8.755
19206TIP3   OH257494   5.715   4.638   8.627
19206TIP3    H157495   5.666   4.634   8.712
19206TIP3    H257496   5.689   4.725   8.592
19207TIP3   OH257497   5.373   4.771   7.184
19207TIP3    H157498   5.340   4.741   7.097
19207TIP3    H257499   5.452   4.821   7.158
19208TIP3   OH257500   4.870   4.604   8.535
19208TIP3    H157501   4.819   4.632   8.614
19208TIP3    H257502   4.857   4.683   8.477
19209TIP3   OH257503   4.756   4.493   8.048
19209TIP3    H157504   4.663   4.467   8.061
19209TIP3    H257505   4.773   4.454   7.959
19210TIP3   OH257506   5.252   4.586   7.776
19210TIP3    H157507   5.194   4.653   7.734
19210TIP3    H257508   5.302   4.553   7.700
19211TIP3   OH257509   5.420   4.860   8.861
19211TIP3    H157510   5.398   4.788   8.923
19211TIP3    H257511   5.514   4.875   8.883
19212TIP3   OH257512   5.402   4.613   8.015
19212TIP3    H157513   5.344   4.640   7.941
19212TIP3    H257514   5.438   4.532   7.975
19213TIP3   OH257515   4.690   4.644   8.741
19213TIP3    H157516   4.714   4.711   8.808
19213TIP3    H257517   4.668   4.567   8.796
19214TIP3   OH257518   4.751   4.136   7.451
19214TIP3    H157519   4.751   4.109   7.544
19214TIP3    H257520   4.659   4.157   7.434
19215TIP3   OH257521   4.285   4.160   8.326
19215TIP3    H157522   4.364   4.200   8.361
19215TIP3    H257523   4.312   4.126   8.238
19216TIP3   OH257524   4.261   4.141   7.843
19216TIP3    H157525   4.306   4.180   7.764
19216TIP3    H257526   4.199   4.214   7.863
19217TIP3   OH257527   5.415   4.857   8.438
19217TIP3    H157528   5.447   4.784   8.380
19217TIP3    H257529   5.386   4.806   8.516
19218TIP3   OH257530   5.084   4.318   8.108
19218TIP3    H157531   5.000   4.314   8.157
19218TIP3    H257532   5.150   4.321   8.179
19219TIP3   OH257533   4.515   4.368   8.123
19219TIP3    H157534   4.422   4.377   8.091
19219TIP3    H257535   4.542   4.280   8.089
19220TIP3   OH257536   4.789   4.364   7.805
19220TIP3    H157537   4.886   4.374   7.791
19220TIP3    H257538   4.750   4.393   7.720
19221TIP3   OH257539   5.575   4.392   8.312
19221TIP3    H157540   5.536   4.404   8.401
19221TIP3    H257541   5.512   4.328   8.274
19222TIP3   OH257542   4.619   4.409   7.584
19222TIP3    H157543   4.551   4.360   7.535
19222TIP3    H257544   4.677   4.437   7.510
19223TIP3   OH257545   5.743   6.081   8.528
19223TIP3    H157546   5.741   6.104   8.433
19223TIP3    H257547   5.821   6.131   8.559
19224TIP3   OH257548   4.702   5.191   8.951
19224TIP3    H157549   4.781   5.222   8.999
19224TIP3    H257550   4.637   5.190   9.024
19225TIP3   OH257551   5.168   4.644   8.204
19225TIP3    H157552   5.237   4.607   8.147
19225TIP3    H257553   5.187   4.602   8.290
19226TIP3   OH257554   4.692   4.135   8.081
19226TIP3    H157555   4.659   4.053   8.125
19226TIP3    H257556   4.741   4.099   8.006
19227TIP3   OH257557   5.145   4.537   8.507
19227TIP3    H157558   5.057   4.580   8.511
19227TIP3    H257559   5.204   4.602   8.549
19228TIP3   OH257560   4.878   4.935   7.589
19228TIP3    H157561   4.807   4.868   7.580
19228TIP3    H257562   4.862   4.967   7.682
19229TIP3   OH257563   5.781   5.169   8.222
19229TIP3    H157564   5.805   5.217   8.140
19229TIP3    H257565   5.695   5.128   8.198
19230TIP3   OH257566   5.320   4.258   7.432
19230TIP3    H157567   5.247   4.213   7.479
19230TIP3    H257568   5.337   4.339   7.485
19231TIP3   OH257569   5.281   5.251   8.588
19231TIP3    H157570   5.298   5.227   8.680
19231TIP3    H257571   5.240   5.339   8.595
19232TIP3   OH257572   5.407   4.491   7.559
19232TIP3    H157573   5.504   4.495   7.572
19232TIP3    H257574   5.390   4.568   7.502
19233TIP3   OH257575   4.572   4.954   8.269
19233TIP3    H157576   4.610   4.926   8.183
19233TIP3    H257577   4.609   4.888   8.329
19234TIP3   OH257578   5.024   5.082   7.409
19234TIP3    H157579   4.977   5.169   7.418
19234TIP3    H257580   4.970   5.026   7.469
19235TIP3   OH257581   4.452   4.873   8.879
19235TIP3    H157582   4.472   4.861   8.974
19235TIP3    H257583   4.380   4.808   8.866
19236TIP3   OH257584   5.176   4.988   8.899
19236TIP3    H157585   5.118   4.929   8.848
19236TIP3    H257586   5.265   4.956   8.872
19237TIP3   OH257587   5.441   5.511   8.482
19237TIP3    H157588   5.344   5.508   8.494
19237TIP3    H257589   5.468   5.562   8.561
19238TIP3   OH257590   5.853   4.579   7.390
19238TIP3    H157591   5.789   4.533   7.330
19238TIP3    H257592   5.847   4.668   7.350
19239TIP3   OH257593   6.068   5.438   8.474
19239TIP3    H157594   5.970   5.434   8.465
19239TIP3    H257595   6.093   5.409   8.383
19240TIP3   OH257596   5.550   5.401   7.300
19240TIP3    H157597   5.524   5.332   7.363
19240TIP3    H257598   5.560   5.352   7.216
19241TIP3   OH257599   5.546   5.030   8.142
19241TIP3    H157600   5.452   5.004   8.154
19241TIP3    H257601   5.580   4.951   8.096
19242TIP3   OH257602   4.671   5.256   7.890
19242TIP3    H157603   4.673   5.339   7.838
19242TIP3    H257604   4.576   5.243   7.900
19243TIP3   OH257605   4.233   4.563   7.592
19243TIP3    H157606   4.281   4.646   7.613
19243TIP3    H257607   4.157   4.569   7.654
19244TIP3   OH257608   4.815   5.025   7.838
19244TIP3    H157609   4.778   5.114   7.855
19244TIP3    H257610   4.777   4.975   7.912
19245TIP3   OH257611   4.940   5.602   8.362
19245TIP3    H157612   4.981   5.675   8.311
19245TIP3    H257613   5.017   5.569   8.411
19246TIP3   OH257614   4.593   5.496   7.744
19246TIP3    H157615   4.506   5.504   7.790
19246TIP3    H257616   4.623   5.589   7.747
19247TIP3   OH257617   5.332   5.237   8.319
19247TIP3    H157618   5.324   5.235   8.417
19247TIP3    H257619   5.411   5.182   8.305
19248TIP3   OH257620   5.302   5.128   7.201
19248TIP3    H157621   5.356   5.103   7.280
19248TIP3    H257622   5.214   5.101   7.231
19249TIP3   OH257623   5.579   5.772   8.371
19249TIP3    H157624   5.501   5.714   8.363
19249TIP3    H257625   5.563   5.836   8.298
19250TIP3   OH257626   5.644   5.605   7.022
19250TIP3    H157627   5.682   5.678   6.970
19250TIP3    H257628   5.564   5.650   7.055
19251TIP3   OH257629   4.658   4.336   8.884
19251TIP3    H157630   4.583   4.388   8.920
19251TIP3    H257631   4.708   4.317   8.968
19252TIP3   OH257632   5.463   5.063   7.417
19252TIP3    H157633   5.452   4.997   7.489
19252TIP3    H257634   5.560   5.061   7.407
19253TIP3   OH257635   4.381   5.466   8.520
19253TIP3    H157636   4.431   5.389   8.551
19253TIP3    H257637   4.408   5.533   8.585
19254TIP3   OH257638   4.670   5.109   7.200
19254TIP3    H157639   4.686   5.017   7.171
19254TIP3    H257640   4.652   5.097   7.295
19255TIP3   OH257641   4.617   5.114   7.473
19255TIP3    H157642   4.686   5.085   7.533
19255TIP3    H257643   4.622   5.212   7.481
19256TIP3   OH257644   4.353   4.808   7.676
19256TIP3    H157645   4.288   4.853   7.734
19256TIP3    H257646   4.369   4.879   7.610
19257TIP3   OH257647   5.496   4.448   8.571
19257TIP3    H157648   5.579   4.484   8.606
19257TIP3    H257649   5.485   4.365   8.623
19258TIP3   OH257650   5.390   4.198   7.740
19258TIP3    H157651   5.349   4.206   7.653
19258TIP3    H257652   5.417   4.289   7.763
19259TIP3   OH257653   4.881   5.313   7.422
19259TIP3    H157654   4.795   5.341   7.458
19259TIP3    H257655   4.898   5.385   7.360
19260TIP3   OH257656   5.062   4.387   7.836
19260TIP3    H157657   5.138   4.446   7.818
19260TIP3    H257658   5.074   4.366   7.931
19261TIP3   OH257659   5.338   4.695   8.645
19261TIP3    H157660   5.357   4.749   8.724
19261TIP3    H257661   5.396   4.618   8.658
19262TIP3   OH257662   5.236   4.108   7.960
19262TIP3    H157663   5.198   4.193   7.989
19262TIP3    H257664   5.277   4.135   7.874
19263TIP3   OH257665   4.623   5.388   7.489
19263TIP3    H157666   4.593   5.457   7.426
19263TIP3    H257667   4.607   5.431   7.575
19264TIP3   OH257668   4.729   4.095   7.731
19264TIP3    H157669   4.734   4.188   7.760
19264TIP3    H257670   4.823   4.069   7.733
19265TIP3   OH257671   5.982   4.594   8.623
19265TIP3    H157672   5.884   4.593   8.631
19265TIP3    H257673   5.991   4.555   8.535
19266TIP3   OH257674   5.631   4.790   8.013
19266TIP3    H157675   5.555   4.730   8.023
19266TIP3    H257676   5.702   4.741   8.060
19267TIP3   OH257677   4.342   5.021   7.482
19267TIP3    H157678   4.406   5.093   7.492
19267TIP3    H257679   4.390   4.967   7.416
19268TIP3   OH257680   4.287   4.293   7.618
19268TIP3    H157681   4.287   4.391   7.610
19268TIP3    H257682   4.205   4.269   7.574
19269TIP3   OH257683   5.599   5.744   7.963
19269TIP3    H157684   5.556   5.790   7.888
19269TIP3    H257685   5.693   5.762   7.942
19270TIP3   OH257686   4.217   5.233   7.874
19270TIP3    H157687   4.141   5.264   7.925
19270TIP3    H257688   4.196   5.271   7.786
19271TIP3   OH257689   4.369   5.770   8.941
19271TIP3    H157690   4.455   5.769   8.988
19271TIP3    H257691   4.347   5.675   8.940
19272TIP3   OH257692   4.856   5.741   8.984
19272TIP3    H157693   4.949   5.718   8.993
19272TIP3    H257694   4.829   5.683   8.910
19273TIP3   OH257695   4.834   5.314   7.115
19273TIP3    H157696   4.777   5.243   7.154
19273TIP3    H257697   4.909   5.260   7.085
19274TIP3   OH257698   5.493   5.644   8.718
19274TIP3    H157699   5.483   5.574   8.787
19274TIP3    H257700   5.570   5.694   8.750
19275TIP3   OH257701   5.271   5.356   7.025
19275TIP3    H157702   5.315   5.292   7.083
19275TIP3    H257703   5.329   5.357   6.946
19276TIP3   OH257704   4.502   5.180   9.141
19276TIP3    H157705   4.518   5.084   9.147
19276TIP3    H257706   4.413   5.182   9.100
19277TIP3   OH257707   4.478   4.832   7.333
19277TIP3    H157708   4.530   4.794   7.406
19277TIP3    H257709   4.547   4.836   7.263
19278TIP3   OH257710   5.111   5.263   8.914
19278TIP3    H157711   5.067   5.277   8.828
19278TIP3    H257712   5.141   5.170   8.909
19279TIP3   OH257713   4.984   5.029   7.140
19279TIP3    H157714   4.988   5.042   7.237
19279TIP3    H257715   4.985   4.931   7.136
19280TIP3   OH257716   5.603   5.269   8.521
19280TIP3    H157717   5.675   5.317   8.476
19280TIP3    H257718   5.530   5.332   8.510
19281TIP3   OH257719   4.621   4.912   9.122
19281TIP3    H157720   4.693   4.849   9.109
19281TIP3    H257721   4.642   4.946   9.212
19282TIP3   OH257722   4.688   4.733   7.559
19282TIP3    H157723   4.662   4.688   7.640
19282TIP3    H257724   4.723   4.659   7.505
19283TIP3   OH257725   4.956   4.796   8.784
19283TIP3    H157726   4.880   4.858   8.790
19283TIP3    H257727   5.003   4.831   8.704
19284TIP3   OH257728   4.786   4.529   7.399
19284TIP3    H157729   4.760   4.523   7.305
19284TIP3    H257730   4.883   4.533   7.391
19285TIP3   OH257731   5.471   5.200   8.920
19285TIP3    H157732   5.553   5.180   8.873
19285TIP3    H257733   5.471   5.132   8.990
19286TIP3   OH257734   5.613   4.861   7.056
19286TIP3    H157735   5.586   4.811   6.977
19286TIP3    H257736   5.579   4.950   7.032
19287TIP3   OH257737   5.079   4.586   8.913
19287TIP3    H157738   5.078   4.506   8.858
19287TIP3    H257739   5.036   4.653   8.855
19288TIP3   OH257740   5.071   4.367   8.710
19288TIP3    H157741   5.118   4.412   8.636
19288TIP3    H257742   4.980   4.374   8.680
19289TIP3   OH257743   5.111   4.908   8.590
19289TIP3    H157744   5.193   4.917   8.539
19289TIP3    H257745   5.054   4.976   8.548
19290TIP3   OH257746   5.693   4.876   8.975
19290TIP3    H157747   5.741   4.793   8.983
19290TIP3    H257748   5.761   4.936   8.940
19291TIP3   OH257749   5.733   5.127   8.710
19291TIP3    H157750   5.675   5.180   8.650
19291TIP3    H257751   5.820   5.147   8.669
19292TIP3   OH257752   4.954   4.703   9.139
19292TIP3    H157753   4.886   4.635   9.156
19292TIP3    H257754   4.991   4.673   9.054
19293TIP3   OH257755   5.211   4.140   8.784
19293TIP3    H157756   5.167   4.224   8.762
19293TIP3    H257757   5.137   4.078   8.770
19294TIP3   OH257758   5.340   4.643   9.002
19294TIP3    H157759   5.331   4.632   9.098
19294TIP3    H257760   5.249   4.618   8.975
19295TIP3   OH257761   5.579   4.589   8.856
19295TIP3    H157762   5.503   4.592   8.917
19295TIP3    H257763   5.651   4.559   8.915
19296TIP3   OH257764   5.810   4.530   9.009
19296TIP3    H157765   5.820   4.435   9.029
19296TIP3    H257766   5.804   4.571   9.098
19297TIP3   OH257767   4.798   4.479   9.190
19297TIP3    H157768   4.806   4.385   9.164
19297TIP3    H257769   4.832   4.473   9.282
19298TIP3   OH257770   5.310   4.144   9.042
19298TIP3    H157771   5.379   4.075   9.035
19298TIP3    H257772   5.269   4.140   8.953
19299TIP3   OH257773   5.375   4.363   9.200
19299TIP3    H157774   5.349   4.291   9.137
19299TIP3    H257775   5.297   4.421   9.196
19300TIP3   OH257776   4.593   5.590   7.301
19300TIP3    H157777   4.689   5.587   7.282
19300TIP3    H257778   4.562   5.639   7.222
19301TIP3   OH257779   4.074   4.972   7.518
19301TIP3    H157780   4.169   4.993   7.506
19301TIP3    H257781   4.069   4.882   7.477
19302TIP3   OH257782   3.988   5.584   7.930
19302TIP3    H157783   3.919   5.522   7.896
19302TIP3    H257784   4.032   5.528   7.997
19303TIP3   OH257785   4.125   5.439   8.117
19303TIP3    H157786   4.112   5.363   8.177
19303TIP3    H257787   4.174   5.499   8.176
19304TIP3   OH257788   5.850   5.837   7.916
19304TIP3    H157789   5.877   5.869   8.004
19304TIP3    H257790   5.912   5.884   7.858
19305TIP3   OH257791   5.882   5.857   8.198
19305TIP3    H157792   5.838   5.769   8.195
19305TIP3    H257793   5.956   5.835   8.257
19306TIP3   OH257794   5.927   5.533   8.772
19306TIP3    H157795   5.854   5.540   8.836
19306TIP3    H257796   5.968   5.622   8.777
19307TIP3   OH257797   5.744   5.047   7.393
19307TIP3    H157798   5.814   5.109   7.368
19307TIP3    H257799   5.784   5.006   7.473
19308TIP3   OH257800   5.870   4.914   7.596
19308TIP3    H157801   5.805   4.870   7.655
19308TIP3    H257802   5.934   4.952   7.660
19309TIP3   OH257803   5.924   5.304   8.029
19309TIP3    H157804   5.978   5.241   7.978
19309TIP3    H257805   5.913   5.378   7.967
19310TIP3   OH257806   5.758   5.606   8.224
19310TIP3    H157807   5.687   5.647   8.277
19310TIP3    H257808   5.707   5.557   8.156
19311TIP3   OH257809   5.810   4.821   7.244
19311TIP3    H157810   5.738   4.824   7.177
19311TIP3    H257811   5.783   4.897   7.300
19312TIP3   OH257812   5.683   4.493   7.197
19312TIP3    H157813   5.634   4.530   7.122
19312TIP3    H257814   5.656   4.399   7.191
19313TIP3   OH257815   5.687   4.768   7.743
19313TIP3    H157816   5.692   4.671   7.738
19313TIP3    H257817   5.673   4.783   7.839
19314TIP3   OH257818   4.313   4.841   8.489
19314TIP3    H157819   4.311   4.814   8.395
19314TIP3    H257820   4.410   4.844   8.505
19315TIP3   OH257821   5.974   5.194   8.600
19315TIP3    H157822   6.047   5.129   8.592
19315TIP3    H257823   6.002   5.264   8.539
19316TIP3   OH257824   6.161   5.002   8.621
19316TIP3    H157825   6.086   4.951   8.659
19316TIP3    H257826   6.233   4.937   8.634
19317TIP3   OH257827   5.623   4.227   7.185
19317TIP3    H157828   5.696   4.196   7.242
19317TIP3    H257829   5.548   4.171   7.211
19318TIP3   OH257830   5.682   4.485   7.640
19318TIP3    H157831   5.721   4.395   7.656
19318TIP3    H257832   5.741   4.516   7.570
19319TIP3   OH257833   5.845   4.662   8.134
19319TIP3    H157834   5.931   4.689   8.094
19319TIP3    H257835   5.857   4.698   8.224
19320TIP3   OH257836   5.912   4.804   8.368
19320TIP3    H157837   5.833   4.838   8.415
19320TIP3    H257838   5.943   4.884   8.322
19321TIP3   OH257839   4.533   4.530   9.157
19321TIP3    H157840   4.629   4.523   9.173
19321TIP3    H257841   4.502   4.449   9.203
19322TIP3   OH257842   6.364   4.393   8.924
19322TIP3    H157843   6.421   4.327   8.879
19322TIP3    H257844   6.336   4.450   8.849
19323TIP3   OH257845   5.790   4.234   7.677
19323TIP3    H157846   5.836   4.217   7.761
19323TIP3    H257847   5.727   4.159   7.674
19324TIP3   OH257848   4.532   4.205   8.540
19324TIP3    H157849   4.544   4.142   8.466
19324TIP3    H257850   4.564   4.288   8.498
19325TIP3   OH257851   4.300   4.492   8.572
19325TIP3    H157852   4.345   4.494   8.485
19325TIP3    H257853   4.317   4.583   8.602
19326TIP3   OH257854   6.236   4.536   8.731
19326TIP3    H157855   6.148   4.574   8.750
19326TIP3    H257856   6.210   4.465   8.670
19327TIP3   OH257857   5.874   4.173   7.307
19327TIP3    H157858   5.912   4.098   7.258
19327TIP3    H257859   5.942   4.242   7.298
19328TIP3   OH257860   4.275   4.011   8.078
19328TIP3    H157861   4.180   3.998   8.094
19328TIP3    H257862   4.276   4.060   7.993
19329TIP3   OH257863   5.435   5.702   7.575
19329TIP3    H157864   5.487   5.685   7.494
19329TIP3    H257865   5.489   5.768   7.620
19330TIP3   OH257866   4.497   4.094   8.860
19330TIP3    H157867   4.473   4.069   8.951
19330TIP3    H257868   4.408   4.114   8.826
19331TIP3   OH257869   4.537   5.504   8.963
19331TIP3    H157870   4.445   5.477   8.945
19331TIP3    H257871   4.545   5.486   9.057
19332TIP3   OH257872   4.714   5.535   8.510
19332TIP3    H157873   4.664   5.610   8.471
19332TIP3    H257874   4.799   5.551   8.465
19333TIP3   OH257875   5.162   5.783   8.647
19333TIP3    H157876   5.203   5.785   8.736
19333TIP3    H257877   5.228   5.834   8.595
19334TIP3   OH257878   5.340   5.934   8.504
19334TIP3    H157879   5.412   5.882   8.464
19334TIP3    H257880   5.391   5.991   8.565
19335TIP3   OH257881   6.133   4.298   8.606
19335TIP3    H157882   6.042   4.295   8.571
19335TIP3    H257883   6.162   4.205   8.592
19336TIP3   OH257884   4.393   5.797   8.531
19336TIP3    H157885   4.304   5.831   8.507
19336TIP3    H257886   4.398   5.826   8.623
19337TIP3   OH257887   4.628   5.774   8.389
19337TIP3    H157888   4.543   5.787   8.435
19337TIP3    H257889   4.607   5.808   8.300
19338TIP3   OH257890   5.055   5.805   8.186
19338TIP3    H157891   4.984   5.826   8.122
19338TIP3    H257892   5.067   5.892   8.230
19339TIP3   OH257893   5.322   5.744   8.237
19339TIP3    H157894   5.227   5.759   8.219
19339TIP3    H257895   5.363   5.822   8.197
19340TIP3   OH257896   5.533   5.937   8.156
19340TIP3    H157897   5.517   6.021   8.108
19340TIP3    H257898   5.556   5.876   8.082
19341TIP3   OH257899   4.304   5.591   8.278
19341TIP3    H157900   4.329   5.565   8.369
19341TIP3    H257901   4.375   5.546   8.227
19342TIP3   OH257902   4.496   5.460   8.132
19342TIP3    H157903   4.511   5.376   8.181
19342TIP3    H257904   4.586   5.498   8.128
19343TIP3   OH257905   4.762   5.557   8.134
19343TIP3    H157906   4.793   5.466   8.122
19343TIP3    H257907   4.803   5.578   8.220
19344TIP3   OH257908   5.347   4.217   8.238
19344TIP3    H157909   5.298   4.143   8.276
19344TIP3    H257910   5.394   4.174   8.164
19345TIP3   OH257911   5.866   4.098   8.135
19345TIP3    H157912   5.900   4.147   8.057
19345TIP3    H257913   5.769   4.106   8.123
19346TIP3   OH257914   5.958   4.194   7.895
19346TIP3    H157915   6.030   4.143   7.852
19346TIP3    H257916   5.990   4.286   7.879
19347TIP3   OH257917   4.585   3.929   8.238
19347TIP3    H157918   4.495   3.891   8.242
19347TIP3    H257919   4.639   3.848   8.246
19348TIP3   OH257920   4.373   3.789   7.888
19348TIP3    H157921   4.404   3.846   7.815
19348TIP3    H257922   4.344   3.854   7.954
19349TIP3   OH257923   5.029   3.957   8.121
19349TIP3    H157924   5.082   3.999   8.050
19349TIP3    H257925   5.073   3.990   8.200
19350TIP3   OH257926   5.590   4.098   8.103
19350TIP3    H157927   5.566   4.069   8.014
19350TIP3    H257928   5.566   4.019   8.157
19351TIP3   OH257929   5.609   4.021   7.667
19351TIP3    H157930   5.519   4.058   7.671
19351TIP3    H257931   5.591   3.934   7.710
19352TIP3   OH257932   4.092   5.358   7.669
19352TIP3    H157933   4.006   5.326   7.634
19352TIP3    H257934   4.079   5.454   7.657
19353TIP3   OH257935   4.489   3.951   7.653
19353TIP3    H157936   4.538   3.887   7.597
19353TIP3    H257937   4.563   4.004   7.689
19354TIP3   OH257938   4.862   5.552   7.250
19354TIP3    H157939   4.951   5.574   7.214
19354TIP3    H257940   4.840   5.476   7.191
19355TIP3   OH257941   5.582   5.668   7.342
19355TIP3    H157942   5.573   5.570   7.330
19355TIP3    H257943   5.536   5.701   7.263
19356TIP3   OH257944   4.797   4.210   9.121
19356TIP3    H157945   4.755   4.139   9.173
19356TIP3    H257946   4.888   4.204   9.156
19357TIP3   OH257947   5.040   4.198   9.249
19357TIP3    H157948   5.128   4.171   9.219
19357TIP3    H257949   5.022   4.132   9.319
19358TIP3   OH257950   4.166   5.390   7.309
19358TIP3    H157951   4.162   5.416   7.402
19358TIP3    H257952   4.255   5.349   7.302
19359TIP3   OH257953   5.867   4.258   9.038
19359TIP3    H157954   5.888   4.229   9.130
19359TIP3    H257955   5.955   4.256   8.995
19360TIP3   OH257956   5.810   5.813   8.531
19360TIP3    H157957   5.730   5.780   8.485
19360TIP3    H257958   5.789   5.909   8.534
19361TIP3   OH257959   7.074   5.184   7.299
19361TIP3    H157960   7.047   5.276   7.280
19361TIP3    H257961   6.997   5.135   7.267
19362TIP3   OH257962   7.071   5.184   7.677
19362TIP3    H157963   7.102   5.153   7.764
19362TIP3    H257964   7.031   5.105   7.640
19363TIP3   OH257965   6.373   5.081   8.043
19363TIP3    H157966   6.405   5.015   8.107
19363TIP3    H257967   6.451   5.139   8.037
19364TIP3   OH257968   7.315   5.486   7.359
19364TIP3    H157969   7.302   5.415   7.423
19364TIP3    H257970   7.342   5.560   7.415
19365TIP3   OH257971   6.342   5.489   7.770
19365TIP3    H157972   6.333   5.392   7.773
19365TIP3    H257973   6.439   5.497   7.766
19366TIP3   OH257974   6.051   4.697   7.556
19366TIP3    H157975   5.999   4.779   7.568
19366TIP3    H257976   5.982   4.638   7.523
19367TIP3   OH257977   6.111   4.981   7.723
19367TIP3    H157978   6.158   4.904   7.763
19367TIP3    H257979   6.169   5.005   7.650
19368TIP3   OH257980   6.962   5.949   7.374
19368TIP3    H157981   7.011   5.877   7.329
19368TIP3    H257982   6.958   5.915   7.465
19369TIP3   OH257983   6.872   5.410   7.725
19369TIP3    H157984   6.909   5.333   7.679
19369TIP3    H257985   6.956   5.454   7.749
19370TIP3   OH257986   7.882   4.731   7.723
19370TIP3    H157987   7.912   4.814   7.767
19370TIP3    H257988   7.906   4.749   7.631
19371TIP3   OH257989   7.284   4.913   7.761
19371TIP3    H157990   7.326   4.828   7.781
19371TIP3    H257991   7.254   4.898   7.669
19372TIP3   OH257992   6.619   4.571   7.726
19372TIP3    H157993   6.599   4.644   7.663
19372TIP3    H257994   6.572   4.497   7.681
19373TIP3   OH257995   7.314   4.662   7.348
19373TIP3    H157996   7.386   4.646   7.413
19373TIP3    H257997   7.365   4.697   7.274
19374TIP3   OH257998   6.255   4.774   7.831
19374TIP3    H157999   6.338   4.753   7.879
19374TIP3    H258000   6.266   4.718   7.752
19375TIP3   OH258001   6.697   4.972   7.622
19375TIP3    H158002   6.790   4.946   7.637
19375TIP3    H258003   6.657   4.888   7.591
19376TIP3   OH258004   7.958   4.938   7.893
19376TIP3    H158005   7.874   4.986   7.875
19376TIP3    H258006   7.968   4.956   7.988
19377TIP3   OH258007   6.618   4.555   8.159
19377TIP3    H158008   6.558   4.591   8.092
19377TIP3    H258009   6.567   4.573   8.240
19378TIP3   OH258010   6.968   5.406   7.169
19378TIP3    H158011   6.924   5.381   7.087
19378TIP3    H258012   6.924   5.491   7.189
19379TIP3   OH258013   6.725   5.329   7.957
19379TIP3    H158014   6.660   5.393   7.995
19379TIP3    H258015   6.766   5.383   7.886
19380TIP3   OH258016   7.526   4.663   7.517
19380TIP3    H158017   7.522   4.611   7.598
19380TIP3    H258018   7.583   4.738   7.544
19381TIP3   OH258019   6.488   4.670   7.944
19381TIP3    H158020   6.551   4.742   7.966
19381TIP3    H258021   6.537   4.628   7.869
19382TIP3   OH258022   6.551   5.521   8.051
19382TIP3    H158023   6.525   5.608   8.013
19382TIP3    H258024   6.472   5.507   8.109
19383TIP3   OH258025   5.951   5.213   7.288
19383TIP3    H158026   5.906   5.240   7.206
19383TIP3    H258027   5.979   5.299   7.326
19384TIP3   OH258028   7.388   5.728   7.529
19384TIP3    H158029   7.298   5.719   7.569
19384TIP3    H258030   7.379   5.814   7.484
19385TIP3   OH258031   7.677   4.632   7.891
19385TIP3    H158032   7.589   4.661   7.861
19385TIP3    H258033   7.735   4.663   7.818
19386TIP3   OH258034   6.977   4.276   7.872
19386TIP3    H158035   6.965   4.180   7.889
19386TIP3    H258036   6.899   4.312   7.918
19387TIP3   OH258037   7.092   5.777   7.205
19387TIP3    H158038   7.141   5.694   7.183
19387TIP3    H258039   7.151   5.842   7.161
19388TIP3   OH258040   7.232   5.562   7.106
19388TIP3    H158041   7.196   5.482   7.066
19388TIP3    H258042   7.267   5.527   7.191
19389TIP3   OH258043   7.615   5.644   7.871
19389TIP3    H158044   7.603   5.566   7.813
19389TIP3    H258045   7.596   5.718   7.809
19390TIP3   OH258046   6.904   5.036   7.127
19390TIP3    H158047   6.824   5.087   7.103
19390TIP3    H258048   6.952   5.033   7.042
19391TIP3   OH258049   6.863   4.820   6.846
19391TIP3    H158050   6.932   4.869   6.895
19391TIP3    H258051   6.920   4.755   6.799
19392TIP3   OH258052   7.810   5.281   7.717
19392TIP3    H158053   7.726   5.332   7.723
19392TIP3    H258054   7.836   5.301   7.625
19393TIP3   OH258055   7.251   5.119   7.101
19393TIP3    H158056   7.197   5.143   7.179
19393TIP3    H258057   7.334   5.091   7.144
19394TIP3   OH258058   7.488   5.160   8.009
19394TIP3    H158059   7.484   5.243   8.059
19394TIP3    H258060   7.401   5.163   7.964
19395TIP3   OH258061   6.485   5.118   7.516
19395TIP3    H158062   6.443   5.059   7.449
19395TIP3    H258063   6.561   5.064   7.545
19396TIP3   OH258064   6.615   5.530   7.665
19396TIP3    H158065   6.593   5.481   7.584
19396TIP3    H258066   6.705   5.497   7.684
19397TIP3   OH258067   6.623   5.087   7.871
19397TIP3    H158068   6.655   5.068   7.781
19397TIP3    H258069   6.665   5.173   7.892
19398TIP3   OH258070   7.146   5.725   7.647
19398TIP3    H158071   7.132   5.805   7.701
19398TIP3    H258072   7.132   5.652   7.711
19399TIP3   OH258073   6.757   5.645   8.194
19399TIP3    H158074   6.699   5.708   8.241
19399TIP3    H258075   6.691   5.591   8.147
19400TIP3   OH258076   7.093   4.978   6.926
19400TIP3    H158077   7.153   5.035   6.979
19400TIP3    H258078   7.119   5.003   6.834
19401TIP3   OH258079   6.511   5.203   8.293
19401TIP3    H158080   6.515   5.289   8.340
19401TIP3    H258081   6.416   5.184   8.302
19402TIP3   OH258082   6.834   5.658   7.200
19402TIP3    H158083   6.911   5.712   7.224
19402TIP3    H258084   6.772   5.723   7.165
19403TIP3   OH258085   6.553   5.814   8.281
19403TIP3    H158086   6.517   5.810   8.190
19403TIP3    H258087   6.473   5.793   8.335
19404TIP3   OH258088   7.609   4.219   6.974
19404TIP3    H158089   7.528   4.239   7.025
19404TIP3    H258090   7.620   4.302   6.923
19405TIP3   OH258091   6.351   4.960   7.321
19405TIP3    H158092   6.284   5.003   7.264
19405TIP3    H258093   6.309   4.874   7.337
19406TIP3   OH258094   7.406   5.586   6.523
19406TIP3    H158095   7.416   5.683   6.508
19406TIP3    H258096   7.499   5.556   6.509
19407TIP3   OH258097   6.132   5.343   8.228
19407TIP3    H158098   6.067   5.320   8.159
19407TIP3    H258099   6.168   5.256   8.254
19408TIP3   OH258100   5.985   5.537   7.861
19408TIP3    H158101   6.081   5.530   7.853
19408TIP3    H258102   5.976   5.615   7.916
19409TIP3   OH258103   7.852   5.987   7.914
19409TIP3    H158104   7.850   5.890   7.929
19409TIP3    H258105   7.768   6.012   7.961
19410TIP3   OH258106   6.957   5.775   8.051
19410TIP3    H158107   6.957   5.867   8.084
19410TIP3    H258108   6.886   5.736   8.106
19411TIP3   OH258109   6.714   5.904   7.002
19411TIP3    H158110   6.669   5.884   6.919
19411TIP3    H258111   6.682   5.994   7.024
19412TIP3   OH258112   6.154   5.753   7.386
19412TIP3    H158113   6.202   5.743   7.471
19412TIP3    H258114   6.094   5.677   7.391
19413TIP3   OH258115   6.918   5.803   6.645
19413TIP3    H158116   6.977   5.734   6.608
19413TIP3    H258117   6.953   5.811   6.736
19414TIP3   OH258118   6.967   5.852   6.915
19414TIP3    H158119   6.879   5.860   6.958
19414TIP3    H258120   7.018   5.808   6.986
19415TIP3   OH258121   7.742   5.121   8.189
19415TIP3    H158122   7.660   5.133   8.138
19415TIP3    H258123   7.757   5.025   8.181
19416TIP3   OH258124   6.337   5.526   8.219
19416TIP3    H158125   6.387   5.509   8.302
19416TIP3    H258126   6.263   5.462   8.227
19417TIP3   OH258127   6.736   4.350   7.999
19417TIP3    H158128   6.646   4.319   7.975
19417TIP3    H258129   6.712   4.433   8.044
19418TIP3   OH258130   7.269   4.466   8.195
19418TIP3    H158131   7.337   4.439   8.260
19418TIP3    H258132   7.185   4.445   8.241
19419TIP3   OH258133   7.511   4.895   8.114
19419TIP3    H158134   7.463   4.890   8.200
19419TIP3    H258135   7.484   4.982   8.079
19420TIP3   OH258136   7.167   5.030   6.670
19420TIP3    H158137   7.137   4.999   6.582
19420TIP3    H258138   7.250   5.074   6.645
19421TIP3   OH258139   6.880   4.402   6.970
19421TIP3    H158140   6.851   4.399   7.063
19421TIP3    H258141   6.845   4.316   6.939
19422TIP3   OH258142   6.668   4.865   8.020
19422TIP3    H158143   6.617   4.886   8.101
19422TIP3    H258144   6.652   4.945   7.966
19423TIP3   OH258145   6.551   4.752   7.534
19423TIP3    H158146   6.458   4.724   7.551
19423TIP3    H258147   6.565   4.711   7.445
19424TIP3   OH258148   7.042   4.838   7.260
19424TIP3    H158149   6.989   4.909   7.219
19424TIP3    H258150   7.097   4.809   7.185
19425TIP3   OH258151   7.217   5.118   8.349
19425TIP3    H158152   7.194   5.045   8.410
19425TIP3    H258153   7.311   5.131   8.370
19426TIP3   OH258154   7.201   4.868   7.501
19426TIP3    H158155   7.142   4.897   7.429
19426TIP3    H258156   7.233   4.785   7.460
19427TIP3   OH258157   6.486   4.895   8.229
19427TIP3    H158158   6.513   4.958   8.298
19427TIP3    H258159   6.475   4.813   8.280
19428TIP3   OH258160   6.535   4.371   6.938
19428TIP3    H158161   6.533   4.366   7.036
19428TIP3    H258162   6.454   4.420   6.920
19429TIP3   OH258163   6.079   4.420   7.808
19429TIP3    H158164   6.157   4.447   7.861
19429TIP3    H258165   6.116   4.382   7.728
19430TIP3   OH258166   6.058   4.399   7.327
19430TIP3    H158167   6.104   4.439   7.250
19430TIP3    H258168   5.996   4.470   7.350
19431TIP3   OH258169   7.211   5.114   7.925
19431TIP3    H158170   7.243   5.041   7.867
19431TIP3    H258171   7.183   5.063   8.003
19432TIP3   OH258172   6.877   4.576   7.596
19432TIP3    H158173   6.794   4.572   7.648
19432TIP3    H258174   6.944   4.574   7.665
19433TIP3   OH258175   6.314   4.629   7.604
19433TIP3    H158176   6.219   4.635   7.578
19433TIP3    H258177   6.336   4.536   7.581
19434TIP3   OH258178   6.585   4.627   7.291
19434TIP3    H158179   6.680   4.641   7.271
19434TIP3    H258180   6.540   4.650   7.207
19435TIP3   OH258181   7.371   4.650   7.797
19435TIP3    H158182   7.334   4.661   7.888
19435TIP3    H258183   7.307   4.587   7.759
19436TIP3   OH258184   6.420   4.659   7.071
19436TIP3    H158185   6.345   4.617   7.025
19436TIP3    H258186   6.472   4.693   6.995
19437TIP3   OH258187   7.541   6.338   8.014
19437TIP3    H158188   7.537   6.364   7.921
19437TIP3    H258189   7.615   6.392   8.047
19438TIP3   OH258190   6.498   5.448   8.438
19438TIP3    H158191   6.577   5.479   8.486
19438TIP3    H258192   6.433   5.448   8.511
19439TIP3   OH258193   6.963   4.901   7.693
19439TIP3    H158194   7.034   4.860   7.641
19439TIP3    H258195   6.974   4.860   7.780
19440TIP3   OH258196   6.488   4.390   7.569
19440TIP3    H158197   6.454   4.310   7.614
19440TIP3    H258198   6.541   4.352   7.498
19441TIP3   OH258199   6.939   4.796   7.984
19441TIP3    H158200   6.850   4.833   7.997
19441TIP3    H258201   6.997   4.856   8.034
19442TIP3   OH258202   6.675   5.191   7.076
19442TIP3    H158203   6.603   5.124   7.067
19442TIP3    H258204   6.659   5.223   7.168
19443TIP3   OH258205   7.577   5.425   7.709
19443TIP3    H158206   7.600   5.474   7.627
19443TIP3    H258207   7.491   5.384   7.685
19444TIP3   OH258208   7.134   4.503   6.937
19444TIP3    H158209   7.037   4.488   6.945
19444TIP3    H258210   7.145   4.597   6.961
19445TIP3   OH258211   7.077   5.508   8.074
19445TIP3    H158212   7.094   5.483   8.166
19445TIP3    H258213   7.037   5.596   8.083
19446TIP3   OH258214   7.204   4.749   7.041
19446TIP3    H158215   7.301   4.753   7.057
19446TIP3    H258216   7.188   4.827   6.986
19447TIP3   OH258217   6.368   5.211   7.755
19447TIP3    H158218   6.406   5.182   7.669
19447TIP3    H258219   6.405   5.146   7.816
19448TIP3   OH258220   6.820   5.338   6.895
19448TIP3    H158221   6.774   5.425   6.905
19448TIP3    H258222   6.767   5.283   6.956
19449TIP3   OH258223   6.246   5.132   8.367
19449TIP3    H158224   6.269   5.118   8.461
19449TIP3    H258225   6.178   5.065   8.352
19450TIP3   OH258226   6.972   5.244   8.387
19450TIP3    H158227   6.914   5.186   8.335
19450TIP3    H258228   7.061   5.212   8.360
19451TIP3   OH258229   7.237   5.767   7.968
19451TIP3    H158230   7.140   5.765   7.981
19451TIP3    H258231   7.264   5.818   8.047
19452TIP3   OH258232   7.646   4.837   6.880
19452TIP3    H158233   7.584   4.791   6.820
19452TIP3    H258234   7.645   4.924   6.836
19453TIP3   OH258235   7.865   5.696   7.959
19453TIP3    H158236   7.766   5.691   7.952
19453TIP3    H258237   7.889   5.665   7.869
19454TIP3   OH258238   7.345   5.658   6.787
19454TIP3    H158239   7.322   5.586   6.848
19454TIP3    H258240   7.358   5.611   6.702
19455TIP3   OH258241   7.342   5.287   7.628
19455TIP3    H158242   7.249   5.261   7.641
19455TIP3    H258243   7.377   5.207   7.583
19456TIP3   OH258244   6.467   5.513   7.376
19456TIP3    H158245   6.469   5.595   7.325
19456TIP3    H258246   6.372   5.499   7.387
19457TIP3   OH258247   6.028   4.820   7.077
19457TIP3    H158248   6.076   4.902   7.100
19457TIP3    H258249   5.952   4.825   7.140
19458TIP3   OH258250   6.611   5.282   7.323
19458TIP3    H158251   6.574   5.370   7.342
19458TIP3    H258252   6.574   5.231   7.398
19459TIP3   OH258253   6.737   5.858   7.849
19459TIP3    H158254   6.778   5.931   7.798
19459TIP3    H258255   6.813   5.825   7.898
19460TIP3   OH258256   6.388   5.753   7.230
19460TIP3    H158257   6.302   5.760   7.277
19460TIP3    H258258   6.418   5.846   7.234
19461TIP3   OH258259   7.128   5.493   7.805
19461TIP3    H158260   7.119   5.491   7.903
19461TIP3    H258261   7.207   5.439   7.792
19462TIP3   OH258262   7.098   5.385   6.689
19462TIP3    H158263   7.153   5.361   6.767
19462TIP3    H258264   7.010   5.358   6.721
19463TIP3   OH258265   7.378   6.025   7.856
19463TIP3    H158266   7.298   5.969   7.850
19463TIP3    H258267   7.360   6.091   7.785
19464TIP3   OH258268   7.441   5.861   6.509
19464TIP3    H158269   7.479   5.932   6.455
19464TIP3    H258270   7.361   5.908   6.541
19465TIP3   OH258271   6.461   4.638   8.376
19465TIP3    H158272   6.365   4.643   8.390
19465TIP3    H258273   6.488   4.576   8.446
19466TIP3   OH258274   7.258   5.321   6.907
19466TIP3    H158275   7.249   5.253   6.977
19466TIP3    H258276   7.355   5.318   6.893
19467TIP3   OH258277   6.176   5.723   8.008
19467TIP3    H158278   6.227   5.645   8.037
19467TIP3    H258279   6.205   5.789   8.072
19468TIP3   OH258280   6.466   5.367   6.687
19468TIP3    H158281   6.483   5.276   6.658
19468TIP3    H258282   6.449   5.354   6.783
19469TIP3   OH258283   6.413   5.371   6.960
19469TIP3    H158284   6.483   5.342   7.021
19469TIP3    H258285   6.419   5.468   6.968
19470TIP3   OH258286   6.149   5.064   7.162
19470TIP3    H158287   6.084   5.108   7.221
19470TIP3    H258288   6.164   5.136   7.097
19471TIP3   OH258289   7.294   4.702   8.056
19471TIP3    H158290   7.375   4.739   8.095
19471TIP3    H258291   7.280   4.621   8.109
19472TIP3   OH258292   7.173   4.456   7.218
19472TIP3    H158293   7.162   4.479   7.124
19472TIP3    H258294   7.214   4.537   7.255
19473TIP3   OH258295   6.677   5.569   6.909
19473TIP3    H158296   6.591   5.598   6.945
19473TIP3    H258297   6.695   5.639   6.845
19474TIP3   OH258298   6.867   4.632   7.322
19474TIP3    H158299   6.933   4.702   7.304
19474TIP3    H258300   6.872   4.625   7.420
19475TIP3   OH258301   7.135   4.952   8.132
19475TIP3    H158302   7.154   5.006   8.211
19475TIP3    H258303   7.191   4.874   8.146
19476TIP3   OH258304   7.012   4.363   7.427
19476TIP3    H158305   7.007   4.439   7.487
19476TIP3    H258306   7.072   4.399   7.357
19477TIP3   OH258307   6.419   5.645   6.975
19477TIP3    H158308   6.389   5.715   6.913
19477TIP3    H258309   6.403   5.687   7.062
19478TIP3   OH258310   6.523   4.356   7.214
19478TIP3    H158311   6.520   4.446   7.251
19478TIP3    H258312   6.619   4.337   7.224
19479TIP3   OH258313   7.778   4.852   8.108
19479TIP3    H158314   7.680   4.851   8.118
19479TIP3    H258315   7.786   4.808   8.022
19480TIP3   OH258316   7.427   5.047   7.499
19480TIP3    H158317   7.352   4.986   7.511
19480TIP3    H258318   7.499   4.999   7.547
19481TIP3   OH258319   6.138   5.278   6.969
19481TIP3    H158320   6.203   5.350   6.980
19481TIP3    H258321   6.185   5.224   6.902
19482TIP3   OH258322   6.087   4.551   7.098
19482TIP3    H158323   6.080   4.649   7.095
19482TIP3    H258324   5.999   4.524   7.070
19483TIP3   OH258325   7.395   6.000   7.449
19483TIP3    H158326   7.352   6.047   7.374
19483TIP3    H258327   7.489   6.018   7.429
19484TIP3   OH258328   6.472   4.270   7.978
19484TIP3    H158329   6.440   4.237   7.891
19484TIP3    H258330   6.461   4.191   8.035
19485TIP3   OH258331   6.014   5.491   7.360
19485TIP3    H158332   5.937   5.521   7.412
19485TIP3    H258333   5.992   5.529   7.272
19486TIP3   OH258334   6.165   6.027   8.428
19486TIP3    H158335   6.251   6.026   8.475
19486TIP3    H258336   6.144   5.932   8.427
19487TIP3   OH258337   6.650   5.997   8.473
19487TIP3    H158338   6.745   5.978   8.481
19487TIP3    H258339   6.626   5.939   8.398
19488TIP3   OH258340   6.631   5.571   6.603
19488TIP3    H158341   6.574   5.500   6.641
19488TIP3    H258342   6.706   5.519   6.570
19489TIP3   OH258343   7.290   5.899   8.204
19489TIP3    H158344   7.280   5.830   8.274
19489TIP3    H258345   7.364   5.952   8.237
19490TIP3   OH258346   7.067   5.613   6.512
19490TIP3    H158347   7.112   5.549   6.569
19490TIP3    H258348   7.123   5.613   6.432
19491TIP3   OH258349   6.298   5.435   8.629
19491TIP3    H158350   6.315   5.339   8.632
19491TIP3    H258351   6.209   5.438   8.586
19492TIP3   OH258352   6.274   5.088   6.820
19492TIP3    H158353   6.326   5.053   6.894
19492TIP3    H258354   6.342   5.093   6.750
19493TIP3   OH258355   6.907   5.519   8.401
19493TIP3    H158356   6.864   5.533   8.315
19493TIP3    H258357   6.937   5.426   8.396
19494TIP3   OH258358   6.778   5.283   6.627
19494TIP3    H158359   6.784   5.298   6.724
19494TIP3    H258360   6.780   5.185   6.624
19495TIP3   OH258361   7.399   5.526   8.007
19495TIP3    H158362   7.471   5.574   7.963
19495TIP3    H258363   7.325   5.589   7.997
19496TIP3   OH258364   6.416   5.168   8.609
19496TIP3    H158365   6.490   5.109   8.591
19496TIP3    H258366   6.440   5.201   8.698
19497TIP3   OH258367   6.483   4.990   7.045
19497TIP3    H158368   6.457   4.949   7.129
19497TIP3    H258369   6.519   4.913   6.995
19498TIP3   OH258370   6.751   5.054   8.272
19498TIP3    H158371   6.674   5.115   8.277
19498TIP3    H258372   6.798   5.087   8.193
19499TIP3   OH258373   6.582   4.782   6.886
19499TIP3    H158374   6.557   4.783   6.791
19499TIP3    H258375   6.680   4.789   6.879
19500TIP3   OH258376   7.268   5.456   8.407
19500TIP3    H158377   7.348   5.435   8.358
19500TIP3    H258378   7.267   5.388   8.476
19501TIP3   OH258379   7.405   5.116   6.546
19501TIP3    H158380   7.387   5.067   6.464
19501TIP3    H258381   7.373   5.206   6.519
19502TIP3   OH258382   6.873   4.841   8.401
19502TIP3    H158383   6.874   4.761   8.345
19502TIP3    H258384   6.831   4.907   8.341
19503TIP3   OH258385   6.877   4.628   8.205
19503TIP3    H158386   6.904   4.669   8.121
19503TIP3    H258387   6.783   4.605   8.187
19504TIP3   OH258388   6.907   5.166   8.078
19504TIP3    H158389   6.989   5.171   8.026
19504TIP3    H258390   6.851   5.233   8.035
19505TIP3   OH258391   7.487   5.133   8.459
19505TIP3    H158392   7.534   5.050   8.479
19505TIP3    H258393   7.559   5.189   8.426
19506TIP3   OH258394   7.529   5.385   8.198
19506TIP3    H158395   7.471   5.437   8.137
19506TIP3    H258396   7.616   5.404   8.156
19507TIP3   OH258397   6.750   4.958   8.627
19507TIP3    H158398   6.682   4.889   8.641
19507TIP3    H258399   6.787   4.932   8.541
19508TIP3   OH258400   7.010   4.393   8.271
19508TIP3    H158401   6.961   4.476   8.249
19508TIP3    H258402   6.940   4.326   8.259
19509TIP3   OH258403   7.135   4.900   8.488
19509TIP3    H158404   7.128   4.888   8.584
19509TIP3    H258405   7.045   4.873   8.461
19510TIP3   OH258406   7.375   4.846   8.342
19510TIP3    H158407   7.300   4.848   8.404
19510TIP3    H258408   7.449   4.815   8.400
19511TIP3   OH258409   7.605   4.785   8.493
19511TIP3    H158410   7.617   4.690   8.515
19511TIP3    H258411   7.600   4.827   8.581
19512TIP3   OH258412   6.592   4.737   8.680
19512TIP3    H158413   6.600   4.647   8.643
19512TIP3    H258414   6.627   4.724   8.770
19513TIP3   OH258415   7.104   4.402   8.528
19513TIP3    H158416   7.173   4.333   8.523
19513TIP3    H258417   7.065   4.395   8.439
19514TIP3   OH258418   7.169   4.617   8.689
19514TIP3    H158419   7.146   4.546   8.624
19514TIP3    H258420   7.092   4.677   8.681
19515TIP3   OH258421   6.389   5.849   6.788
19515TIP3    H158422   6.485   5.845   6.769
19515TIP3    H258423   6.358   5.894   6.707
19516TIP3   OH258424   5.870   5.229   7.004
19516TIP3    H158425   5.965   5.251   6.993
19516TIP3    H258426   5.866   5.140   6.964
19517TIP3   OH258427   5.784   5.841   7.417
19517TIP3    H158428   5.716   5.779   7.383
19517TIP3    H258429   5.828   5.785   7.484
19518TIP3   OH258430   5.920   5.696   7.605
19518TIP3    H158431   5.909   5.620   7.664
19518TIP3    H258432   5.970   5.756   7.663
19519TIP3   OH258433   7.647   6.092   7.403
19519TIP3    H158434   7.672   6.124   7.492
19519TIP3    H258435   7.707   6.142   7.346
19520TIP3   OH258436   7.680   6.112   7.683
19520TIP3    H158437   7.634   6.025   7.681
19520TIP3    H258438   7.750   6.091   7.747
19521TIP3   OH258439   7.724   5.789   8.259
19521TIP3    H158440   7.649   5.796   8.321
19521TIP3    H258441   7.763   5.878   8.264
19522TIP3   OH258442   7.538   5.305   6.881
19522TIP3    H158443   7.609   5.365   6.853
19522TIP3    H258444   7.580   5.263   6.960
19523TIP3   OH258445   7.666   5.173   7.084
19523TIP3    H158446   7.601   5.127   7.142
19523TIP3    H258447   7.729   5.210   7.148
19524TIP3   OH258448   7.720   5.561   7.517
19524TIP3    H158449   7.774   5.497   7.466
19524TIP3    H258450   7.709   5.634   7.453
19525TIP3   OH258451   7.555   5.862   7.711
19525TIP3    H158452   7.484   5.905   7.764
19525TIP3    H258453   7.503   5.813   7.644
19526TIP3   OH258454   7.605   5.079   6.731
19526TIP3    H158455   7.534   5.080   6.664
19526TIP3    H258456   7.577   5.155   6.786
19527TIP3   OH258457   7.472   4.754   6.690
19527TIP3    H158458   7.442   4.790   6.605
19527TIP3    H258459   7.448   4.659   6.679
19528TIP3   OH258460   7.482   5.025   7.230
19528TIP3    H158461   7.491   4.928   7.225
19528TIP3    H258462   7.469   5.039   7.326
19529TIP3   OH258463   6.109   5.100   7.976
19529TIP3    H158464   6.107   5.071   7.883
19529TIP3    H258465   6.206   5.102   7.993
19530TIP3   OH258466   7.770   5.450   8.087
19530TIP3    H158467   7.843   5.385   8.079
19530TIP3    H258468   7.798   5.520   8.025
19531TIP3   OH258469   7.959   5.260   8.108
19531TIP3    H158470   7.883   5.209   8.145
19531TIP3    H258471   8.030   5.194   8.121
19532TIP3   OH258472   7.419   4.488   6.678
19532TIP3    H158473   7.498   4.455   6.725
19532TIP3    H258474   7.350   4.424   6.700
19533TIP3   OH258475   7.477   4.742   7.126
19533TIP3    H158476   7.517   4.653   7.143
19533TIP3    H258477   7.536   4.774   7.056
19534TIP3   OH258478   7.640   4.919   7.620
19534TIP3    H158479   7.727   4.945   7.581
19534TIP3    H258480   7.653   4.954   7.710
19535TIP3   OH258481   7.707   5.060   7.854
19535TIP3    H158482   7.629   5.094   7.902
19535TIP3    H258483   7.739   5.141   7.809
19536TIP3   OH258484   6.324   4.788   8.652
19536TIP3    H158485   6.422   4.780   8.652
19536TIP3    H258486   6.300   4.703   8.695
19537TIP3   OH258487   8.159   4.649   8.409
19537TIP3    H158488   8.217   4.583   8.366
19537TIP3    H258489   8.133   4.707   8.334
19538TIP3   OH258490   7.585   4.492   7.165
19538TIP3    H158491   7.635   4.475   7.247
19538TIP3    H258492   7.526   4.414   7.163
19539TIP3   OH258493   6.287   4.478   7.983
19539TIP3    H158494   6.349   4.403   7.993
19539TIP3    H258495   6.349   4.553   7.978
19540TIP3   OH258496   6.091   4.753   8.057
19540TIP3    H158497   6.139   4.743   7.973
19540TIP3    H258498   6.121   4.841   8.085
19541TIP3   OH258499   8.033   4.794   8.215
19541TIP3    H158500   7.945   4.830   8.238
19541TIP3    H258501   8.007   4.721   8.157
19542TIP3   OH258502   7.670   4.428   6.794
19542TIP3    H158503   7.710   4.355   6.743
19542TIP3    H258504   7.738   4.498   6.786
19543TIP3   OH258505   6.072   4.262   7.561
19543TIP3    H158506   5.978   4.254   7.583
19543TIP3    H258507   6.070   4.316   7.479
19544TIP3   OH258508   7.230   5.960   7.061
19544TIP3    H158509   7.282   5.942   6.980
19544TIP3    H258510   7.286   6.024   7.108
19545TIP3   OH258511   6.292   4.336   8.373
19545TIP3    H158512   6.241   4.331   8.455
19545TIP3    H258513   6.226   4.374   8.312
19546TIP3   OH258514   6.333   5.762   8.449
19546TIP3    H158515   6.241   5.733   8.432
19546TIP3    H258516   6.341   5.744   8.544
19547TIP3   OH258517   6.509   5.792   7.996
19547TIP3    H158518   6.461   5.868   7.957
19547TIP3    H258519   6.596   5.807   7.952
19548TIP3   OH258520   6.958   6.040   8.134
19548TIP3    H158521   6.999   6.043   8.223
19548TIP3    H258522   7.023   6.091   8.081
19549TIP3   OH258523   7.133   6.188   7.985
19549TIP3    H158524   7.207   6.137   7.951
19549TIP3    H258525   7.180   6.245   8.049
19550TIP3   OH258526   7.929   4.555   8.092
19550TIP3    H158527   7.838   4.549   8.060
19550TIP3    H258528   7.959   4.461   8.080
19551TIP3   OH258529   6.188   6.054   8.017
19551TIP3    H158530   6.099   6.088   7.995
19551TIP3    H258531   6.196   6.082   8.109
19552TIP3   OH258532   6.424   6.031   7.876
19552TIP3    H158533   6.338   6.044   7.922
19552TIP3    H258534   6.403   6.064   7.786
19553TIP3   OH258535   6.851   6.062   7.673
19553TIP3    H158536   6.780   6.084   7.609
19553TIP3    H258537   6.864   6.148   7.718
19554TIP3   OH258538   7.118   5.999   7.722
19554TIP3    H158539   7.023   6.016   7.705
19554TIP3    H258540   7.159   6.080   7.687
19555TIP3   OH258541   7.329   6.193   7.643
19555TIP3    H158542   7.314   6.278   7.595
19555TIP3    H258543   7.352   6.132   7.570
19556TIP3   OH258544   6.100   5.847   7.765
19556TIP3    H158545   6.126   5.822   7.856
19556TIP3    H258546   6.171   5.802   7.714
19557TIP3   OH258547   6.292   5.717   7.619
19557TIP3    H158548   6.307   5.633   7.668
19557TIP3    H258549   6.383   5.754   7.616
19558TIP3   OH258550   6.558   5.814   7.621
19558TIP3    H158551   6.589   5.722   7.610
19558TIP3    H258552   6.600   5.835   7.707
19559TIP3   OH258553   7.133   4.469   7.709
19559TIP3    H158554   7.090   4.400   7.763
19559TIP3    H258555   7.205   4.420   7.665
19560TIP3   OH258556   7.660   4.351   7.619
19560TIP3    H158557   7.696   4.401   7.543
19560TIP3    H258558   7.564   4.367   7.610
19561TIP3   OH258559   7.753   4.451   7.382
19561TIP3    H158560   7.825   4.399   7.340
19561TIP3    H258561   7.787   4.542   7.365
19562TIP3   OH258562   6.384   4.179   7.729
19562TIP3    H158563   6.292   4.145   7.728
19562TIP3    H258564   6.433   4.094   7.725
19563TIP3   OH258565   6.171   4.046   7.375
19563TIP3    H158566   6.198   4.105   7.303
19563TIP3    H258567   6.138   4.109   7.442
19564TIP3   OH258568   6.824   4.212   7.607
19564TIP3    H158569   6.885   4.262   7.550
19564TIP3    H258570   6.846   4.247   7.694
19565TIP3   OH258571   7.376   4.356   7.592
19565TIP3    H158572   7.372   4.320   7.503
19565TIP3    H258573   7.361   4.275   7.646
19566TIP3   OH258574   7.403   4.278   7.154
19566TIP3    H158575   7.315   4.318   7.162
19566TIP3    H258576   7.390   4.193   7.201
19567TIP3   OH258577   5.888   5.615   7.155
19567TIP3    H158578   5.803   5.582   7.121
19567TIP3    H258579   5.874   5.710   7.144
19568TIP3   OH258580   6.285   4.211   7.136
19568TIP3    H158581   6.334   4.145   7.084
19568TIP3    H258582   6.359   4.262   7.176
19569TIP3   OH258583   6.800   4.381   7.237
19569TIP3    H158584   6.859   4.333   7.298
19569TIP3    H258585   6.822   4.473   7.263
19570TIP3   OH258586   6.658   5.810   6.735
19570TIP3    H158587   6.747   5.830   6.701
19570TIP3    H258588   6.636   5.733   6.678
19571TIP3   OH258589   7.377   5.924   6.830
19571TIP3    H158590   7.369   5.826   6.817
19571TIP3    H258591   7.333   5.957   6.749
19572TIP3   OH258592   6.591   4.459   8.619
19572TIP3    H158593   6.558   4.388   8.677
19572TIP3    H258594   6.686   4.460   8.644
19573TIP3   OH258595   6.839   4.456   8.738
19573TIP3    H158596   6.925   4.433   8.698
19573TIP3    H258597   6.829   4.384   8.804
19574TIP3   OH258598   5.964   5.647   6.796
19574TIP3    H158599   5.959   5.670   6.890
19574TIP3    H258600   6.052   5.605   6.788
19575TIP3   OH258601   7.663   4.514   8.526
19575TIP3    H158602   7.683   4.484   8.618
19575TIP3    H258603   7.752   4.511   8.485
19576TIP3   OH258604   7.607   6.070   8.016
19576TIP3    H158605   7.527   6.037   7.972
19576TIP3    H258606   7.585   6.166   8.021
19577TIP3   OH258607   8.842   5.450   6.801
19577TIP3    H158608   8.859   5.498   6.718
19577TIP3    H258609   8.797   5.371   6.764
19578TIP3   OH258610   8.865   5.436   7.150
19578TIP3    H158611   8.893   5.423   7.242
19578TIP3    H258612   8.825   5.349   7.132
19579TIP3   OH258613   8.169   5.337   7.529
19579TIP3    H158614   8.198   5.269   7.593
19579TIP3    H258615   8.248   5.392   7.523
19580TIP3   OH258616   9.089   5.735   6.861
19580TIP3    H158617   9.118   5.666   6.922
19580TIP3    H258618   9.133   5.813   6.899
19581TIP3   OH258619   8.135   5.747   7.258
19581TIP3    H158620   8.125   5.649   7.260
19581TIP3    H258621   8.232   5.753   7.258
19582TIP3   OH258622   7.845   4.954   7.045
19582TIP3    H158623   7.792   5.035   7.053
19582TIP3    H258624   7.779   4.894   7.007
19583TIP3   OH258625   7.910   5.239   7.211
19583TIP3    H158626   7.955   5.161   7.249
19583TIP3    H258627   7.960   5.252   7.129
19584TIP3   OH258628   8.765   6.203   6.870
19584TIP3    H158629   8.808   6.140   6.807
19584TIP3    H258630   8.765   6.149   6.950
19585TIP3   OH258631   9.674   4.988   7.209
19585TIP3    H158632   9.707   5.069   7.253
19585TIP3    H258633   9.703   5.003   7.117
19586TIP3   OH258634   9.080   5.172   7.247
19586TIP3    H158635   9.123   5.087   7.268
19586TIP3    H258636   9.049   5.154   7.156
19587TIP3   OH258637   8.415   4.829   7.213
19587TIP3    H158638   8.395   4.900   7.148
19587TIP3    H258639   8.371   4.753   7.167
19588TIP3   OH258640   9.109   4.923   6.836
19588TIP3    H158641   9.182   4.905   6.899
19588TIP3    H258642   9.160   4.953   6.759
19589TIP3   OH258643   8.052   5.031   7.318
19589TIP3    H158644   8.134   5.008   7.365
19589TIP3    H258645   8.061   4.974   7.239
19590TIP3   OH258646   8.494   5.230   7.110
19590TIP3    H158647   8.586   5.201   7.124
19590TIP3    H258648   8.452   5.146   7.079
19591TIP3   OH258649   9.752   5.192   7.381
19591TIP3    H158650   9.669   5.240   7.366
19591TIP3    H258651   9.779   5.227   7.468
19592TIP3   OH258652   8.415   4.812   7.646
19592TIP3    H158653   8.353   4.846   7.578
19592TIP3    H258654   8.363   4.829   7.727
19593TIP3   OH258655   8.734   5.671   6.689
19593TIP3    H158656   8.724   5.642   6.597
19593TIP3    H258657   8.703   5.765   6.681
19594TIP3   OH258658   8.522   5.592   7.436
19594TIP3    H158659   8.447   5.635   7.482
19594TIP3    H258660   8.576   5.668   7.417
19595TIP3   OH258661   9.318   4.923   7.006
19595TIP3    H158662   9.329   4.858   7.076
19595TIP3    H258663   9.384   4.991   7.030
19596TIP3   OH258664   8.284   4.927   7.431
19596TIP3    H158665   8.349   4.997   7.453
19596TIP3    H258666   8.331   4.884   7.355
19597TIP3   OH258667   8.347   5.777   7.539
19597TIP3    H158668   8.319   5.864   7.503
19597TIP3    H258669   8.270   5.759   7.597
19598TIP3   OH258670   7.745   5.469   6.775
19598TIP3    H158671   7.703   5.492   6.690
19598TIP3    H258672   7.773   5.555   6.810
19599TIP3   OH258673   9.178   5.984   7.019
19599TIP3    H158674   9.085   5.979   7.051
19599TIP3    H258675   9.177   6.069   6.970
19600TIP3   OH258676   9.472   4.890   7.379
19600TIP3    H158677   9.385   4.916   7.346
19600TIP3    H258678   9.532   4.918   7.307
19601TIP3   OH258679   8.773   4.532   7.359
19601TIP3    H158680   8.762   4.437   7.374
19601TIP3    H258681   8.694   4.567   7.405
19602TIP3   OH258682   8.883   6.036   6.689
19602TIP3    H158683   8.930   5.952   6.666
19602TIP3    H258684   8.945   6.100   6.648
19603TIP3   OH258685   9.008   5.809   6.599
19603TIP3    H158686   9.021   5.739   6.532
19603TIP3    H258687   9.052   5.772   6.678
19604TIP3   OH258688   9.402   5.906   7.359
19604TIP3    H158689   9.403   5.824   7.305
19604TIP3    H258690   9.401   5.975   7.290
19605TIP3   OH258691   8.711   5.308   6.613
19605TIP3    H158692   8.625   5.337   6.577
19605TIP3    H258693   8.757   5.280   6.531
19606TIP3   OH258694   9.608   5.539   7.204
19606TIP3    H158695   9.525   5.591   7.211
19606TIP3    H258696   9.633   5.555   7.111
19607TIP3   OH258697   9.049   5.387   6.601
19607TIP3    H158698   9.006   5.382   6.687
19607TIP3    H258699   9.136   5.349   6.625
19608TIP3   OH258700   9.283   5.415   7.497
19608TIP3    H158701   9.283   5.498   7.548
19608TIP3    H258702   9.197   5.420   7.451
19609TIP3   OH258703   8.285   5.378   6.997
19609TIP3    H158704   8.235   5.319   6.936
19609TIP3    H258705   8.356   5.318   7.028
19610TIP3   OH258706   8.403   5.799   7.143
19610TIP3    H158707   8.372   5.745   7.069
19610TIP3    H258708   8.484   5.753   7.170
19611TIP3   OH258709   8.420   5.343   7.359
19611TIP3    H158710   8.450   5.318   7.268
19611TIP3    H258711   8.462   5.430   7.373
19612TIP3   OH258712   8.927   5.988   7.136
19612TIP3    H158713   8.934   6.056   7.204
19612TIP3    H258714   8.931   5.906   7.190
19613TIP3   OH258715   8.554   5.908   7.672
19613TIP3    H158716   8.497   5.965   7.728
19613TIP3    H258717   8.485   5.851   7.632
19614TIP3   OH258718   8.894   5.241   6.419
19614TIP3    H158719   8.960   5.299   6.461
19614TIP3    H258720   8.910   5.257   6.323
19615TIP3   OH258721   8.307   5.465   7.776
19615TIP3    H158722   8.310   5.547   7.829
19615TIP3    H258723   8.213   5.440   7.787
19616TIP3   OH258724   8.631   5.921   6.703
19616TIP3    H158725   8.708   5.980   6.704
19616TIP3    H258726   8.567   5.971   6.650
19617TIP3   OH258727   8.347   6.075   7.771
19617TIP3    H158728   8.312   6.068   7.680
19617TIP3    H258729   8.269   6.051   7.825
19618TIP3   OH258730   9.404   4.477   6.460
19618TIP3    H158731   9.323   4.495   6.512
19618TIP3    H258732   9.414   4.560   6.410
19619TIP3   OH258733   8.140   5.220   6.820
19619TIP3    H158734   8.078   5.259   6.755
19619TIP3    H258735   8.113   5.128   6.819
19620TIP3   OH258736   9.203   5.843   6.013
19620TIP3    H158737   9.212   5.939   5.994
19620TIP3    H258738   9.295   5.812   5.997
19621TIP3   OH258739   7.930   5.600   7.714
19621TIP3    H158740   7.863   5.577   7.646
19621TIP3    H258741   7.965   5.513   7.741
19622TIP3   OH258742   7.781   5.793   7.347
19622TIP3    H158743   7.877   5.788   7.341
19622TIP3    H258744   7.768   5.873   7.401
19623TIP3   OH258745   8.744   6.061   7.542
19623TIP3    H158746   8.782   6.103   7.621
19623TIP3    H258747   8.676   6.003   7.584
19624TIP3   OH258748   8.512   6.158   6.492
19624TIP3    H158749   8.468   6.136   6.407
19624TIP3    H258750   8.480   6.249   6.509
19625TIP3   OH258751   7.950   6.011   6.872
19625TIP3    H158752   7.995   5.999   6.958
19625TIP3    H258753   7.892   5.933   6.872
19626TIP3   OH258754   8.715   6.060   6.132
19626TIP3    H158755   8.773   5.990   6.093
19626TIP3    H258756   8.751   6.068   6.222
19627TIP3   OH258757   8.765   6.111   6.402
19627TIP3    H158758   8.676   6.117   6.444
19627TIP3    H258759   8.816   6.065   6.470
19628TIP3   OH258760   9.544   5.381   7.669
19628TIP3    H158761   9.463   5.390   7.618
19628TIP3    H258762   9.559   5.284   7.664
19629TIP3   OH258763   8.134   5.783   7.707
19629TIP3    H158764   8.183   5.765   7.790
19629TIP3    H258765   8.060   5.719   7.713
19630TIP3   OH258766   8.532   4.607   7.487
19630TIP3    H158767   8.443   4.575   7.461
19630TIP3    H258768   8.507   4.690   7.531
19631TIP3   OH258769   9.065   4.724   7.682
19631TIP3    H158770   9.133   4.694   7.745
19631TIP3    H258771   8.981   4.701   7.727
19632TIP3   OH258772   9.306   5.150   7.601
19632TIP3    H158773   9.257   5.147   7.686
19632TIP3    H258774   9.281   5.237   7.565
19633TIP3   OH258775   8.969   5.297   6.164
19633TIP3    H158776   8.931   5.251   6.086
19633TIP3    H258777   9.052   5.332   6.126
19634TIP3   OH258778   8.465   5.121   7.509
19634TIP3    H158779   8.412   5.140   7.589
19634TIP3    H258780   8.447   5.201   7.454
19635TIP3   OH258781   8.347   5.013   7.022
19635TIP3    H158782   8.255   4.981   7.037
19635TIP3    H258783   8.364   4.974   6.933
19636TIP3   OH258784   8.846   5.107   6.749
19636TIP3    H158785   8.784   5.161   6.698
19636TIP3    H258786   8.897   5.064   6.676
19637TIP3   OH258787   9.012   5.377   7.838
19637TIP3    H158788   8.989   5.302   7.898
19637TIP3    H258789   9.107   5.385   7.855
19638TIP3   OH258790   8.996   5.125   6.985
19638TIP3    H158791   8.935   5.141   6.909
19638TIP3    H258792   9.036   5.042   6.951
19639TIP3   OH258793   8.282   5.152   7.716
19639TIP3    H158794   8.309   5.211   7.788
19639TIP3    H258795   8.269   5.067   7.764
19640TIP3   OH258796   8.309   4.600   6.428
19640TIP3    H158797   8.321   4.619   6.522
19640TIP3    H258798   8.257   4.676   6.397
19641TIP3   OH258799   7.875   4.677   7.296
19641TIP3    H158800   7.954   4.704   7.347
19641TIP3    H258801   7.912   4.639   7.215
19642TIP3   OH258802   7.852   4.654   6.819
19642TIP3    H158803   7.897   4.691   6.740
19642TIP3    H258804   7.791   4.727   6.838
19643TIP3   OH258805   9.001   5.375   7.406
19643TIP3    H158806   9.035   5.302   7.349
19643TIP3    H258807   8.978   5.322   7.486
19644TIP3   OH258808   8.677   4.841   7.085
19644TIP3    H158809   8.594   4.829   7.135
19644TIP3    H258810   8.744   4.825   7.153
19645TIP3   OH258811   8.110   4.884   7.092
19645TIP3    H158812   8.016   4.890   7.064
19645TIP3    H258813   8.136   4.794   7.066
19646TIP3   OH258814   8.381   4.896   6.778
19646TIP3    H158815   8.477   4.892   6.757
19646TIP3    H258816   8.339   4.908   6.690
19647TIP3   OH258817   9.165   4.910   7.289
19647TIP3    H158818   9.123   4.917   7.377
19647TIP3    H258819   9.108   4.844   7.245
19648TIP3   OH258820   8.214   4.922   6.556
19648TIP3    H158821   8.147   4.871   6.506
19648TIP3    H258822   8.270   4.952   6.482
19649TIP3   OH258823   8.296   5.707   7.926
19649TIP3    H158824   8.374   5.735   7.977
19649TIP3    H258825   8.229   5.703   7.998
19650TIP3   OH258826   8.762   5.165   7.180
19650TIP3    H158827   8.825   5.115   7.126
19650TIP3    H258828   8.769   5.118   7.266
19651TIP3   OH258829   8.287   4.648   7.054
19651TIP3    H158830   8.256   4.565   7.095
19651TIP3    H258831   8.336   4.615   6.977
19652TIP3   OH258832   8.735   5.054   7.466
19652TIP3    H158833   8.645   5.088   7.484
19652TIP3    H258834   8.793   5.112   7.520
19653TIP3   OH258835   8.463   5.455   6.566
19653TIP3    H158836   8.398   5.382   6.552
19653TIP3    H258837   8.453   5.474   6.661
19654TIP3   OH258838   9.374   5.686   7.196
19654TIP3    H158839   9.401   5.731   7.113
19654TIP3    H258840   9.290   5.643   7.169
19655TIP3   OH258841   8.916   4.761   6.433
19655TIP3    H158842   8.820   4.772   6.411
19655TIP3    H258843   8.939   4.854   6.452
19656TIP3   OH258844   8.864   5.762   7.560
19656TIP3    H158845   8.896   5.723   7.642
19656TIP3    H258846   8.833   5.848   7.588
19657TIP3   OH258847   9.000   5.008   6.535
19657TIP3    H158848   9.097   5.014   6.538
19657TIP3    H258849   8.974   5.077   6.472
19658TIP3   OH258850   8.171   5.473   7.241
19658TIP3    H158851   8.203   5.438   7.155
19658TIP3    H258852   8.195   5.402   7.302
19659TIP3   OH258853   8.620   5.600   6.390
19659TIP3    H158854   8.571   5.685   6.396
19659TIP3    H258855   8.563   5.541   6.443
19660TIP3   OH258856   8.044   5.389   7.853
19660TIP3    H158857   8.064   5.374   7.947
19660TIP3    H258858   7.975   5.322   7.837
19661TIP3   OH258859   8.768   5.503   7.872
19661TIP3    H158860   8.709   5.441   7.825
19661TIP3    H258861   8.856   5.468   7.847
19662TIP3   OH258862   9.032   6.033   7.444
19662TIP3    H158863   8.938   6.021   7.465
19662TIP3    H258864   9.065   6.074   7.527
19663TIP3   OH258865   9.443   5.093   6.366
19663TIP3    H158866   9.381   5.046   6.305
19663TIP3    H258867   9.441   5.180   6.322
19664TIP3   OH258868   9.658   5.942   7.454
19664TIP3    H158869   9.562   5.947   7.439
19664TIP3    H258870   9.688   5.919   7.364
19665TIP3   OH258871   9.137   5.911   6.274
19665TIP3    H158872   9.122   5.831   6.325
19665TIP3    H258873   9.155   5.875   6.184
19666TIP3   OH258874   9.137   5.545   7.107
19666TIP3    H158875   9.048   5.511   7.126
19666TIP3    H258876   9.177   5.464   7.068
19667TIP3   OH258877   8.263   5.768   6.863
19667TIP3    H158878   8.262   5.850   6.810
19667TIP3    H258879   8.168   5.750   6.870
19668TIP3   OH258880   7.827   5.077   6.565
19668TIP3    H158881   7.875   5.159   6.587
19668TIP3    H258882   7.750   5.081   6.627
19669TIP3   OH258883   8.442   5.554   6.845
19669TIP3    H158884   8.382   5.632   6.840
19669TIP3    H258885   8.386   5.492   6.896
19670TIP3   OH258886   8.538   6.117   7.344
19670TIP3    H158887   8.577   6.174   7.277
19670TIP3    H258888   8.615   6.078   7.389
19671TIP3   OH258889   8.186   6.009   6.721
19671TIP3    H158890   8.099   6.016   6.764
19671TIP3    H258891   8.215   6.102   6.721
19672TIP3   OH258892   8.942   5.761   7.292
19672TIP3    H158893   8.920   5.747   7.386
19672TIP3    H258894   9.012   5.695   7.279
19673TIP3   OH258895   8.896   5.645   6.178
19673TIP3    H158896   8.946   5.618   6.258
19673TIP3    H258897   8.809   5.608   6.199
19674TIP3   OH258898   9.148   6.308   7.371
19674TIP3    H158899   9.094   6.235   7.337
19674TIP3    H258900   9.159   6.366   7.294
19675TIP3   OH258901   9.236   6.117   5.996
19675TIP3    H158902   9.275   6.185   5.938
19675TIP3    H258903   9.157   6.167   6.026
19676TIP3   OH258904   8.257   4.896   7.863
19676TIP3    H158905   8.161   4.899   7.877
19676TIP3    H258906   8.285   4.833   7.932
19677TIP3   OH258907   9.058   5.593   6.409
19677TIP3    H158908   9.047   5.514   6.467
19677TIP3    H258909   9.152   5.581   6.382
19678TIP3   OH258910   7.975   5.980   7.493
19678TIP3    H158911   8.021   5.901   7.524
19678TIP3    H258912   7.998   6.043   7.563
19679TIP3   OH258913   8.263   5.623   6.175
19679TIP3    H158914   8.276   5.533   6.140
19679TIP3    H258915   8.241   5.604   6.269
19680TIP3   OH258916   8.207   5.628   6.449
19680TIP3    H158917   8.282   5.597   6.501
19680TIP3    H258918   8.215   5.725   6.456
19681TIP3   OH258919   7.947   5.322   6.649
19681TIP3    H158920   7.880   5.366   6.706
19681TIP3    H258921   7.961   5.391   6.582
19682TIP3   OH258922   9.084   4.965   7.549
19682TIP3    H158923   9.172   4.995   7.577
19682TIP3    H258924   9.074   4.880   7.598
19683TIP3   OH258925   8.966   4.711   6.706
19683TIP3    H158926   8.943   4.729   6.612
19683TIP3    H258927   9.008   4.795   6.734
19684TIP3   OH258928   8.478   5.831   6.405
19684TIP3    H158929   8.388   5.858   6.432
19684TIP3    H258930   8.490   5.887   6.328
19685TIP3   OH258931   8.664   4.892   6.808
19685TIP3    H158932   8.736   4.955   6.790
19685TIP3    H258933   8.668   4.881   6.905
19686TIP3   OH258934   8.933   5.212   7.616
19686TIP3    H158935   8.953   5.258   7.699
19686TIP3    H258936   8.986   5.130   7.624
19687TIP3   OH258937   8.814   4.619   6.916
19687TIP3    H158938   8.803   4.699   6.970
19687TIP3    H258939   8.871   4.653   6.843
19688TIP3   OH258940   8.218   5.902   6.462
19688TIP3    H158941   8.187   5.970   6.398
19688TIP3    H258942   8.200   5.946   6.548
19689TIP3   OH258943   8.310   4.614   6.709
19689TIP3    H158944   8.315   4.706   6.739
19689TIP3    H258945   8.405   4.590   6.716
19690TIP3   OH258946   9.572   5.108   7.599
19690TIP3    H158947   9.474   5.106   7.603
19690TIP3    H258948   9.587   5.070   7.511
19691TIP3   OH258949   9.221   5.305   6.988
19691TIP3    H158950   9.149   5.240   6.997
19691TIP3    H258951   9.295   5.259   7.033
19692TIP3   OH258952   7.934   5.534   6.456
19692TIP3    H158953   8.001   5.604   6.463
19692TIP3    H258954   7.979   5.477   6.389
19693TIP3   OH258955   7.878   4.808   6.597
19693TIP3    H158956   7.878   4.904   6.584
19693TIP3    H258957   7.806   4.779   6.539
19694TIP3   OH258958   9.191   6.251   6.930
19694TIP3    H158959   9.151   6.302   6.856
19694TIP3    H258960   9.285   6.273   6.914
19695TIP3   OH258961   8.266   4.528   7.466
19695TIP3    H158962   8.236   4.495   7.378
19695TIP3    H258963   8.257   4.448   7.522
19696TIP3   OH258964   7.813   5.752   6.848
19696TIP3    H158965   7.734   5.778   6.898
19696TIP3    H258966   7.789   5.786   6.759
19697TIP3   OH258967   7.963   6.280   7.907
19697TIP3    H158968   8.046   6.277   7.959
19697TIP3    H258969   7.936   6.187   7.910
19698TIP3   OH258970   8.467   6.262   7.939
19698TIP3    H158971   8.551   6.216   7.953
19698TIP3    H258972   8.422   6.198   7.880
19699TIP3   OH258973   8.430   5.824   6.096
19699TIP3    H158974   8.367   5.755   6.128
19699TIP3    H258975   8.503   5.766   6.068
19700TIP3   OH258976   9.098   6.143   7.686
19700TIP3    H158977   9.068   6.085   7.760
19700TIP3    H258978   9.158   6.203   7.732
19701TIP3   OH258979   8.862   5.870   6.001
19701TIP3    H158980   8.906   5.804   6.058
19701TIP3    H258981   8.921   5.874   5.923
19702TIP3   OH258982   8.094   5.692   8.114
19702TIP3    H158983   8.111   5.596   8.120
19702TIP3    H258984   8.006   5.694   8.072
19703TIP3   OH258985   8.070   5.348   6.307
19703TIP3    H158986   8.122   5.303   6.376
19703TIP3    H258987   8.136   5.348   6.234
19704TIP3   OH258988   8.704   5.776   7.886
19704TIP3    H158989   8.659   5.781   7.800
19704TIP3    H258990   8.737   5.684   7.887
19705TIP3   OH258991   8.579   5.549   6.111
19705TIP3    H158992   8.582   5.557   6.208
19705TIP3    H258993   8.582   5.451   6.101
19706TIP3   OH258994   9.192   5.784   7.494
19706TIP3    H158995   9.268   5.825   7.448
19706TIP3    H258996   9.122   5.848   7.474
19707TIP3   OH258997   8.215   5.427   8.094
19707TIP3    H158998   8.285   5.361   8.080
19707TIP3    H258999   8.237   5.458   8.184
19708TIP3   OH259000   8.288   5.245   6.537
19708TIP3    H159001   8.256   5.191   6.610
19708TIP3    H259002   8.323   5.176   6.476
19709TIP3   OH259003   8.548   5.313   7.762
19709TIP3    H159004   8.469   5.372   7.764
19709TIP3    H259005   8.594   5.344   7.681
19710TIP3   OH259006   8.380   5.042   6.373
19710TIP3    H159007   8.353   5.035   6.280
19710TIP3    H259008   8.463   4.987   6.372
19711TIP3   OH259009   9.065   5.714   7.890
19711TIP3    H159010   9.151   5.694   7.850
19711TIP3    H259011   9.061   5.647   7.961
19712TIP3   OH259012   9.202   5.375   6.032
19712TIP3    H159013   9.182   5.324   5.951
19712TIP3    H259014   9.170   5.463   6.003
19713TIP3   OH259015   8.670   5.097   7.888
19713TIP3    H159016   8.671   5.016   7.833
19713TIP3    H259017   8.626   5.162   7.828
19714TIP3   OH259018   8.673   4.887   7.692
19714TIP3    H159019   8.701   4.923   7.606
19714TIP3    H259020   8.580   4.862   7.674
19715TIP3   OH259021   8.702   5.424   7.566
19715TIP3    H159022   8.784   5.417   7.515
19715TIP3    H259023   8.649   5.487   7.514
19716TIP3   OH259024   9.294   5.389   7.959
19716TIP3    H159025   9.335   5.302   7.943
19716TIP3    H259026   9.362   5.448   7.923
19717TIP3   OH259027   9.325   5.638   7.679
19717TIP3    H159028   9.268   5.692   7.620
19717TIP3    H259029   9.413   5.656   7.638
19718TIP3   OH259030   8.544   5.216   8.111
19718TIP3    H159031   8.477   5.146   8.127
19718TIP3    H259032   8.582   5.186   8.026
19719TIP3   OH259033   8.806   4.651   7.758
19719TIP3    H159034   8.757   4.733   7.736
19719TIP3    H259035   8.737   4.583   7.746
19720TIP3   OH259036   8.930   5.158   7.976
19720TIP3    H159037   8.920   5.143   8.072
19720TIP3    H259038   8.840   5.130   7.947
19721TIP3   OH259039   9.174   5.112   7.834
19721TIP3    H159040   9.095   5.103   7.891
19721TIP3    H259041   9.245   5.074   7.891
19722TIP3   OH259042   9.392   5.043   7.993
19722TIP3    H159043   9.407   4.947   8.006
19722TIP3    H259044   9.393   5.078   8.084
19723TIP3   OH259045   8.390   4.994   8.166
19723TIP3    H159046   8.396   4.903   8.131
19723TIP3    H259047   8.424   4.980   8.257
19724TIP3   OH259048   8.901   4.660   8.015
19724TIP3    H159049   8.969   4.590   8.010
19724TIP3    H259050   8.861   4.653   7.926
19725TIP3   OH259051   8.969   4.877   8.171
19725TIP3    H159052   8.944   4.804   8.110
19725TIP3    H259053   8.889   4.934   8.168
19726TIP3   OH259054   8.186   6.106   6.277
19726TIP3    H159055   8.281   6.103   6.255
19726TIP3    H259056   8.153   6.149   6.197
19727TIP3   OH259057   7.666   5.483   6.494
19727TIP3    H159058   7.761   5.505   6.479
19727TIP3    H259059   7.660   5.395   6.452
19728TIP3   OH259060   7.579   6.098   6.904
19728TIP3    H159061   7.512   6.035   6.870
19728TIP3    H259062   7.624   6.042   6.971
19729TIP3   OH259063   7.715   5.954   7.092
19729TIP3    H159064   7.704   5.876   7.149
19729TIP3    H259065   7.764   6.013   7.153
19730TIP3   OH259066   9.438   6.352   6.885
19730TIP3    H159067   9.477   6.378   6.971
19730TIP3    H259068   9.499   6.396   6.824
19731TIP3   OH259069   9.480   6.366   7.163
19731TIP3    H159070   9.447   6.274   7.157
19731TIP3    H259071   9.530   6.363   7.245
19732TIP3   OH259072   9.332   5.563   6.369
19732TIP3    H159073   9.403   5.623   6.337
19732TIP3    H259074   9.377   5.521   6.446
19733TIP3   OH259075   9.460   5.431   6.572
19733TIP3    H159076   9.399   5.383   6.631
19733TIP3    H259077   9.529   5.463   6.632
19734TIP3   OH259078   9.509   5.814   6.997
19734TIP3    H159079   9.570   5.752   6.951
19734TIP3    H259080   9.514   5.893   6.939
19735TIP3   OH259081   9.351   6.124   7.195
19735TIP3    H159082   9.283   6.147   7.259
19735TIP3    H259083   9.302   6.071   7.129
19736TIP3   OH259084   9.401   5.336   6.218
19736TIP3    H159085   9.330   5.336   6.150
19736TIP3    H259086   9.373   5.413   6.272
19737TIP3   OH259087   9.269   5.011   6.174
19737TIP3    H159088   9.234   5.043   6.090
19737TIP3    H259089   9.247   4.915   6.167
19738TIP3   OH259090   9.276   5.279   6.716
19738TIP3    H159091   9.286   5.182   6.706
19738TIP3    H259092   9.268   5.289   6.814
19739TIP3   OH259093   7.904   5.358   7.462
19739TIP3    H159094   7.903   5.326   7.369
19739TIP3    H259095   8.001   5.358   7.480
19740TIP3   OH259096   9.559   5.706   7.566
19740TIP3    H159097   9.638   5.648   7.576
19740TIP3    H259098   9.601   5.787   7.533
19741TIP3   OH259099   9.761   5.527   7.596
19741TIP3    H159100   9.683   5.473   7.622
19741TIP3    H259101   9.831   5.460   7.612
19742TIP3   OH259102   9.215   4.746   6.164
19742TIP3    H159103   9.290   4.708   6.215
19742TIP3    H259104   9.141   4.686   6.183
19743TIP3   OH259105   9.279   5.002   6.614
19743TIP3    H159106   9.315   4.912   6.632
19743TIP3    H259107   9.337   5.027   6.540
19744TIP3   OH259108   9.436   5.183   7.105
19744TIP3    H159109   9.523   5.205   7.066
19744TIP3    H259110   9.452   5.211   7.197
19745TIP3   OH259111   9.505   5.318   7.343
19745TIP3    H159112   9.425   5.352   7.389
19745TIP3    H259113   9.538   5.398   7.297
19746TIP3   OH259114   8.123   5.046   8.141
19746TIP3    H159115   8.220   5.037   8.141
19746TIP3    H259116   8.097   4.961   8.181
19747TIP3   OH259117   9.997   4.936   7.878
19747TIP3    H159118  10.019   4.848   7.841
19747TIP3    H259119   9.940   4.974   7.808
19748TIP3   OH259120   9.380   4.750   6.653
19748TIP3    H159121   9.432   4.731   6.734
19748TIP3    H259122   9.322   4.670   6.650
19749TIP3   OH259123   8.082   4.736   7.473
19749TIP3    H159124   8.144   4.660   7.480
19749TIP3    H259125   8.146   4.809   7.465
19750TIP3   OH259126   7.886   5.011   7.543
19750TIP3    H159127   7.934   4.998   7.459
19750TIP3    H259128   7.920   5.096   7.571
19751TIP3   OH259129   9.817   5.040   7.706
19751TIP3    H159130   9.729   5.083   7.707
19751TIP3    H259131   9.799   4.971   7.639
19752TIP3   OH259132   9.466   4.686   6.282
19752TIP3    H159133   9.504   4.610   6.232
19752TIP3    H259134   9.535   4.754   6.271
19753TIP3   OH259135   7.868   4.519   7.050
19753TIP3    H159136   7.773   4.512   7.068
19753TIP3    H259137   7.870   4.572   6.968
19754TIP3   OH259138   9.029   6.216   6.553
19754TIP3    H159139   9.073   6.195   6.467
19754TIP3    H259140   9.090   6.282   6.588
19755TIP3   OH259141   8.089   4.595   7.860
19755TIP3    H159142   8.038   4.587   7.942
19755TIP3    H259143   8.021   4.631   7.799
19756TIP3   OH259144   8.131   6.020   7.939
19756TIP3    H159145   8.040   5.991   7.918
19756TIP3    H259146   8.137   5.995   8.032
19757TIP3   OH259147   8.307   6.046   7.486
19757TIP3    H159148   8.252   6.117   7.446
19757TIP3    H259149   8.392   6.067   7.442
19758TIP3   OH259150   8.918   6.443   7.466
19758TIP3    H159151   8.992   6.388   7.436
19758TIP3    H259152   8.966   6.526   7.476
19759TIP3   OH259153   9.723   4.808   7.579
19759TIP3    H159154   9.633   4.801   7.544
19759TIP3    H259155   9.757   4.716   7.566
19760TIP3   OH259156   7.985   6.314   7.505
19760TIP3    H159157   7.896   6.348   7.481
19760TIP3    H259158   7.986   6.334   7.600
19761TIP3   OH259159   8.212   6.265   7.356
19761TIP3    H159160   8.132   6.292   7.406
19761TIP3    H259161   8.204   6.321   7.276
19762TIP3   OH259162   8.638   6.351   7.181
19762TIP3    H159163   8.560   6.333   7.124
19762TIP3    H259164   8.673   6.428   7.132
19763TIP3   OH259165   8.897   6.264   7.232
19763TIP3    H159166   8.820   6.268   7.174
19763TIP3    H259167   8.961   6.320   7.181
19764TIP3   OH259168   9.071   6.430   7.105
19764TIP3    H159169   9.074   6.520   7.065
19764TIP3    H259170   9.117   6.377   7.035
19765TIP3   OH259171   7.896   6.105   7.252
19765TIP3    H159172   7.923   6.079   7.343
19765TIP3    H259173   7.967   6.060   7.201
19766TIP3   OH259174   8.087   5.974   7.106
19766TIP3    H159175   8.101   5.890   7.155
19766TIP3    H259176   8.177   6.010   7.100
19767TIP3   OH259177   8.358   6.075   7.102
19767TIP3    H159178   8.383   5.981   7.094
19767TIP3    H259179   8.377   6.091   7.196
19768TIP3   OH259180   8.928   4.727   7.199
19768TIP3    H159181   8.887   4.655   7.250
19768TIP3    H259182   8.997   4.680   7.149
19769TIP3   OH259183   9.455   4.616   7.112
19769TIP3    H159184   9.494   4.659   7.033
19769TIP3    H259185   9.359   4.622   7.095
19770TIP3   OH259186   9.545   4.714   6.873
19770TIP3    H159187   9.614   4.656   6.832
19770TIP3    H259188   9.584   4.803   6.853
19771TIP3   OH259189   8.179   4.436   7.219
19771TIP3    H159190   8.087   4.402   7.215
19771TIP3    H259191   8.229   4.351   7.213
19772TIP3   OH259192   7.965   4.302   6.860
19772TIP3    H159193   7.999   4.358   6.788
19772TIP3    H259194   7.938   4.369   6.926
19773TIP3   OH259195   8.620   4.467   7.098
19773TIP3    H159196   8.675   4.514   7.033
19773TIP3    H259197   8.651   4.505   7.182
19774TIP3   OH259198   9.171   4.613   7.078
19774TIP3    H159199   9.168   4.578   6.988
19774TIP3    H259200   9.157   4.532   7.132
19775TIP3   OH259201   9.200   4.535   6.641
19775TIP3    H159202   9.111   4.574   6.645
19775TIP3    H259203   9.185   4.450   6.687
19776TIP3   OH259204   7.683   5.872   6.644
19776TIP3    H159205   7.599   5.837   6.608
19776TIP3    H259206   7.669   5.967   6.627
19777TIP3   OH259207   8.082   4.460   6.631
19777TIP3    H159208   8.130   4.403   6.568
19777TIP3    H259209   8.155   4.517   6.662
19778TIP3   OH259210   8.577   4.630   6.756
19778TIP3    H159211   8.657   4.587   6.790
19778TIP3    H259212   8.611   4.719   6.738
19779TIP3   OH259213   8.455   6.067   6.224
19779TIP3    H159214   8.544   6.087   6.188
19779TIP3    H259215   8.432   5.991   6.165
19780TIP3   OH259216   9.167   6.178   6.318
19780TIP3    H159217   9.161   6.081   6.302
19780TIP3    H259218   9.129   6.213   6.235
19781TIP3   OH259219   8.387   4.717   8.106
19781TIP3    H159220   8.354   4.645   8.163
19781TIP3    H259221   8.482   4.717   8.132
19782TIP3   OH259222   8.636   4.713   8.224
19782TIP3    H159223   8.721   4.687   8.186
19782TIP3    H259224   8.624   4.642   8.292
19783TIP3   OH259225   7.761   5.905   6.283
19783TIP3    H159226   7.759   5.926   6.377
19783TIP3    H259227   7.848   5.860   6.272
19784TIP3   OH259228   9.458   4.776   8.008
19784TIP3    H159229   9.479   4.743   8.099
19784TIP3    H259230   9.546   4.770   7.965
19785TIP3   OH259231   9.964   5.575   6.998
19785TIP3    H159232   9.995   5.508   7.062
19785TIP3    H259233  10.012   5.653   7.032
19786TIP3   OH259234   9.931   6.001   6.756
19786TIP3    H159235   9.928   5.903   6.754
19786TIP3    H259236  10.025   6.016   6.735
19787TIP3   OH259237   9.641   5.212   6.530
19787TIP3    H159238   9.588   5.292   6.537
19787TIP3    H259239   9.575   5.149   6.497
19788TIP3   OH259240   9.701   5.494   6.698
19788TIP3    H159241   9.749   5.418   6.737
19788TIP3    H259242   9.758   5.516   6.623
19789TIP3   OH259243  10.403   5.927   6.666
19789TIP3    H159244  10.444   5.860   6.609
19789TIP3    H259245  10.469   5.935   6.738
19790TIP3   OH259246  10.195   5.088   6.709
19790TIP3    H159247  10.193   5.150   6.634
19790TIP3    H259248  10.169   5.005   6.665
19791TIP3   OH259249   9.844   5.288   6.803
19791TIP3    H159250   9.926   5.266   6.852
19791TIP3    H259251   9.857   5.230   6.725
19792TIP3   OH259252  10.251   5.503   6.578
19792TIP3    H159253  10.345   5.482   6.597
19792TIP3    H259254  10.217   5.414   6.554
19793TIP3   OH259255  10.193   5.058   7.132
19793TIP3    H159256  10.141   5.105   7.064
19793TIP3    H259257  10.145   5.082   7.213
19794TIP3   OH259258  10.271   5.843   6.939
19794TIP3    H159259  10.219   5.907   6.987
19794TIP3    H259260  10.350   5.894   6.916
19795TIP3   OH259261  10.067   5.182   6.922
19795TIP3    H159262  10.133   5.253   6.942
19795TIP3    H259263  10.115   5.140   6.846
19796TIP3   OH259264   9.539   5.725   6.263
19796TIP3    H159265   9.501   5.750   6.176
19796TIP3    H259266   9.569   5.811   6.298
19797TIP3   OH259267  10.052   5.649   6.475
19797TIP3    H159268  10.014   5.587   6.410
19797TIP3    H259269  10.128   5.596   6.510
19798TIP3   OH259270  10.176   6.058   6.626
19798TIP3    H159271  10.149   6.018   6.541
19798TIP3    H259272  10.259   6.006   6.645
19799TIP3   OH259273  10.235   5.592   6.844
19799TIP3    H159274  10.241   5.590   6.747
19799TIP3    H259275  10.249   5.687   6.866
19800TIP3   OH259276  10.021   5.757   7.200
19800TIP3    H159277  10.031   5.845   7.241
19800TIP3    H259278   9.951   5.715   7.255
19801TIP3   OH259279  10.403   6.203   6.205
19801TIP3    H159280  10.458   6.277   6.232
19801TIP3    H259281  10.342   6.245   6.142
19802TIP3   OH259282   9.940   5.471   6.292
19802TIP3    H159283   9.874   5.514   6.235
19802TIP3    H259284   9.899   5.385   6.307
19803TIP3   OH259285   9.719   5.851   7.204
19803TIP3    H159286   9.661   5.827   7.129
19803TIP3    H259287   9.752   5.764   7.233
19804TIP3   OH259288   9.579   6.045   6.845
19804TIP3    H159289   9.672   6.037   6.820
19804TIP3    H259290   9.577   6.132   6.887
19805TIP3   OH259291  10.307   6.407   5.988
19805TIP3    H159292  10.274   6.386   5.899
19805TIP3    H259293  10.268   6.495   6.003
19806TIP3   OH259294   9.745   6.263   6.357
19806TIP3    H159295   9.794   6.255   6.441
19806TIP3    H259296   9.686   6.186   6.364
19807TIP3   OH259297   9.902   6.053   7.190
19807TIP3    H159298   9.949   6.039   7.274
19807TIP3    H259299   9.837   5.979   7.192
19808TIP3   OH259300  10.323   4.867   6.972
19808TIP3    H159301  10.263   4.801   6.934
19808TIP3    H259302  10.264   4.925   7.023
19809TIP3   OH259303  10.260   5.360   6.975
19809TIP3    H159304  10.238   5.398   7.063
19809TIP3    H259305  10.251   5.442   6.920
19810TIP3   OH259306  10.141   5.263   6.503
19810TIP3    H159307  10.051   5.232   6.529
19810TIP3    H259308  10.146   5.232   6.411
19811TIP3   OH259309  10.054   5.401   7.206
19811TIP3    H159310  10.098   5.452   7.276
19811TIP3    H259311  10.049   5.313   7.247
19812TIP3   OH259312  10.118   4.915   5.918
19812TIP3    H159313  10.085   4.870   5.996
19812TIP3    H259314  10.040   4.921   5.862
19813TIP3   OH259315   9.670   4.939   6.781
19813TIP3    H159316   9.751   4.956   6.832
19813TIP3    H259317   9.702   4.890   6.702
19814TIP3   OH259318   9.650   4.912   6.301
19814TIP3    H159319   9.692   4.952   6.221
19814TIP3    H259320   9.587   4.983   6.324
19815TIP3   OH259321   9.905   5.142   6.575
19815TIP3    H159322   9.809   5.146   6.552
19815TIP3    H259323   9.927   5.048   6.561
19816TIP3   OH259324  10.162   5.170   6.244
19816TIP3    H159325  10.230   5.168   6.176
19816TIP3    H259326  10.083   5.178   6.186
19817TIP3   OH259327   9.989   5.176   6.041
19817TIP3    H159328   9.923   5.128   5.988
19817TIP3    H259329  10.054   5.198   5.971
19818TIP3   OH259330  10.079   4.897   6.540
19818TIP3    H159331  10.066   4.814   6.590
19818TIP3    H259332  10.137   4.867   6.469
19819TIP3   OH259333  10.291   5.661   6.076
19819TIP3    H159334  10.204   5.627   6.049
19819TIP3    H259335  10.269   5.722   6.149
19820TIP3   OH259336   9.961   5.727   6.732
19820TIP3    H159337   9.992   5.698   6.645
19820TIP3    H259338   9.991   5.656   6.791
19821TIP3   OH259339   9.828   5.636   7.350
19821TIP3    H159340   9.823   5.611   7.445
19821TIP3    H259341   9.762   5.574   7.312
19822TIP3   OH259342  10.059   6.026   6.354
19822TIP3    H159343  10.066   6.109   6.301
19822TIP3    H259344   9.964   6.013   6.354
19823TIP3   OH259345   9.623   5.333   6.053
19823TIP3    H159346   9.670   5.416   6.074
19823TIP3    H259347   9.546   5.339   6.114
19824TIP3   OH259348  10.225   5.808   6.314
19824TIP3    H159349  10.174   5.891   6.320
19824TIP3    H259350  10.170   5.751   6.372
19825TIP3   OH259351   9.981   6.262   6.204
19825TIP3    H159352   9.895   6.274   6.249
19825TIP3    H259353  10.017   6.354   6.210
19826TIP3   OH259354  10.045   5.151   7.345
19826TIP3    H159355   9.949   5.155   7.362
19826TIP3    H259356  10.075   5.090   7.414
19827TIP3   OH259357   9.762   6.239   6.997
19827TIP3    H159358   9.797   6.154   7.029
19827TIP3    H259359   9.826   6.301   7.035
19828TIP3   OH259360  10.066   5.877   5.661
19828TIP3    H159361  10.075   5.784   5.634
19828TIP3    H259362  10.047   5.867   5.756
19829TIP3   OH259363  10.006   5.885   5.934
19829TIP3    H159364  10.085   5.862   5.984
19829TIP3    H259365  10.006   5.983   5.940
19830TIP3   OH259366   9.741   5.579   6.137
19830TIP3    H159367   9.675   5.624   6.194
19830TIP3    H259368   9.757   5.649   6.070
19831TIP3   OH259369  10.263   6.096   5.889
19831TIP3    H159370  10.174   6.121   5.919
19831TIP3    H259371  10.287   6.171   5.834
19832TIP3   OH259372  10.001   6.158   5.948
19832TIP3    H159373   9.973   6.229   5.886
19832TIP3    H259374   9.989   6.203   6.035
19833TIP3   OH259375  10.116   4.872   6.198
19833TIP3    H159376  10.079   4.955   6.231
19833TIP3    H259377  10.202   4.904   6.165
19834TIP3   OH259378   9.730   5.792   5.946
19834TIP3    H159379   9.796   5.863   5.954
19834TIP3    H259380   9.774   5.737   5.878
19835TIP3   OH259381   9.678   5.064   6.078
19835TIP3    H159382   9.674   5.161   6.069
19835TIP3    H259383   9.599   5.035   6.031
19836TIP3   OH259384   9.605   6.002   6.338
19836TIP3    H159385   9.524   6.036   6.376
19836TIP3    H259386   9.597   6.038   6.247
19837TIP3   OH259387  10.212   6.093   5.575
19837TIP3    H159388  10.160   6.018   5.613
19837TIP3    H259389  10.303   6.059   5.589
19838TIP3   OH259390   9.865   5.605   5.798
19838TIP3    H159391   9.920   5.569   5.870
19838TIP3    H259392   9.932   5.612   5.726
19839TIP3   OH259393  10.065   5.501   6.017
19839TIP3    H159394  10.043   5.464   6.105
19839TIP3    H259395  10.102   5.423   5.972
19840TIP3   OH259396  10.319   5.534   7.187
19840TIP3    H159397  10.305   5.599   7.259
19840TIP3    H259398  10.332   5.593   7.111
19841TIP3   OH259399  10.168   5.294   5.864
19841TIP3    H159400  10.123   5.280   5.778
19841TIP3    H259401  10.258   5.312   5.834
19842TIP3   OH259402  10.447   5.329   7.319
19842TIP3    H159403  10.459   5.238   7.281
19842TIP3    H259404  10.375   5.365   7.263
19843TIP3   OH259405  10.459   5.115   7.164
19843TIP3    H159406  10.494   5.107   7.074
19843TIP3    H259407  10.372   5.072   7.155
19844TIP3   OH259408  10.164   5.277   7.600
19844TIP3    H159409  10.172   5.179   7.599
19844TIP3    H259410  10.205   5.303   7.683
19845TIP3   OH259411   9.979   6.359   5.760
19845TIP3    H159412  10.076   6.360   5.744
19845TIP3    H259413   9.949   6.409   5.681
19846TIP3   OH259414   9.462   5.739   5.982
19846TIP3    H159415   9.556   5.763   5.966
19846TIP3    H259416   9.457   5.651   5.939
19847TIP3   OH259417   9.369   6.353   6.394
19847TIP3    H159418   9.306   6.288   6.357
19847TIP3    H259419   9.418   6.297   6.459
19848TIP3   OH259420   9.508   6.211   6.579
19848TIP3    H159421   9.507   6.132   6.634
19848TIP3    H259422   9.564   6.270   6.633
19849TIP3   OH259423   9.700   5.618   6.948
19849TIP3    H159424   9.695   5.585   6.855
19849TIP3    H259425   9.797   5.611   6.962
19850TIP3   OH259426   9.892   5.291   7.607
19850TIP3    H159427   9.990   5.300   7.601
19850TIP3    H259428   9.884   5.215   7.667
19851TIP3   OH259429   9.877   4.984   6.961
19851TIP3    H159430   9.935   4.906   6.965
19851TIP3    H259431   9.942   5.057   6.952
19852TIP3   OH259432   9.682   5.271   7.029
19852TIP3    H159433   9.729   5.253   6.945
19852TIP3    H259434   9.726   5.351   7.057
19853TIP3   OH259435   9.663   4.787   6.539
19853TIP3    H159436   9.569   4.768   6.554
19853TIP3    H259437   9.662   4.833   6.452
19854TIP3   OH259438   9.882   4.856   7.350
19854TIP3    H159439   9.827   4.842   7.429
19854TIP3    H259440   9.815   4.887   7.286
19855TIP3   OH259441   9.689   6.354   6.740
19855TIP3    H159442   9.723   6.342   6.830
19855TIP3    H259443   9.762   6.313   6.688
19856TIP3   OH259444   9.872   6.224   6.592
19856TIP3    H159445   9.898   6.144   6.643
19856TIP3    H259446   9.961   6.266   6.576
19857TIP3   OH259447  10.121   6.321   6.561
19857TIP3    H159448  10.160   6.233   6.572
19857TIP3    H259449  10.165   6.373   6.630
19858TIP3   OH259450   9.752   4.561   6.339
19858TIP3    H159451   9.786   4.624   6.273
19858TIP3    H259452   9.734   4.618   6.416
19859TIP3   OH259453   9.476   6.131   6.136
19859TIP3    H159454   9.393   6.097   6.096
19859TIP3    H259455   9.468   6.225   6.113
19860TIP3   OH259456   9.873   4.729   6.114
19860TIP3    H159457   9.911   4.657   6.059
19860TIP3    H259458   9.952   4.767   6.156
19861TIP3   OH259459  10.253   6.327   5.715
19861TIP3    H159460  10.348   6.341   5.701
19861TIP3    H259461  10.233   6.254   5.652
19862TIP3   OH259462  10.150   4.999   7.599
19862TIP3    H159463  10.106   4.922   7.638
19862TIP3    H259464  10.238   4.958   7.581
19863TIP3   OH259465  10.382   4.872   7.650
19863TIP3    H159466  10.451   4.931   7.612
19863TIP3    H259467  10.384   4.904   7.741
19864TIP3   OH259468   9.557   6.159   5.771
19864TIP3    H159469   9.560   6.188   5.863
19864TIP3    H259470   9.644   6.117   5.758
19865TIP3   OH259471   1.324   6.229   8.475
19865TIP3    H159472   1.296   6.321   8.455
19865TIP3    H259473   1.245   6.181   8.445
19866TIP3   OH259474   1.341   6.218   8.840
19866TIP3    H159475   1.346   6.197   8.934
19866TIP3    H259476   1.278   6.152   8.808
19867TIP3   OH259477   1.564   6.531   8.535
19867TIP3    H159478   1.549   6.460   8.598
19867TIP3    H259479   1.591   6.604   8.592
19868TIP3   OH259480   1.214   6.996   8.548
19868TIP3    H159481   1.261   6.921   8.506
19868TIP3    H259482   1.190   6.960   8.634
19869TIP3   OH259483   1.138   6.420   8.923
19869TIP3    H159484   1.161   6.375   8.841
19869TIP3    H259485   1.207   6.487   8.929
19870TIP3   OH259486   2.136   5.774   8.897
19870TIP3    H159487   2.159   5.855   8.946
19870TIP3    H259488   2.154   5.801   8.805
19871TIP3   OH259489   1.531   5.958   8.940
19871TIP3    H159490   1.578   5.873   8.955
19871TIP3    H259491   1.501   5.947   8.848
19872TIP3   OH259492   0.895   5.614   8.908
19872TIP3    H159493   0.862   5.691   8.858
19872TIP3    H259494   0.865   5.541   8.849
19873TIP3   OH259495   1.559   5.706   8.524
19873TIP3    H159496   1.630   5.691   8.591
19873TIP3    H259497   1.613   5.742   8.451
19874TIP3   OH259498   0.946   6.013   8.817
19874TIP3    H159499   1.040   5.986   8.819
19874TIP3    H259500   0.903   5.942   8.767
19875TIP3   OH259501   2.204   5.980   9.072
19875TIP3    H159502   2.120   6.027   9.056
19875TIP3    H259503   2.225   6.011   9.162
19876TIP3   OH259504   1.220   6.453   8.343
19876TIP3    H159505   1.172   6.422   8.265
19876TIP3    H259506   1.173   6.536   8.364
19877TIP3   OH259507   1.770   5.708   8.692
19877TIP3    H159508   1.789   5.635   8.752
19877TIP3    H259509   1.829   5.779   8.725
19878TIP3   OH259510   1.638   6.773   8.706
19878TIP3    H159511   1.549   6.765   8.747
19878TIP3    H259512   1.629   6.858   8.660
19879TIP3   OH259513   1.932   5.701   9.084
19879TIP3    H159514   1.842   5.690   9.048
19879TIP3    H259515   1.985   5.706   9.002
19880TIP3   OH259516   1.230   5.316   9.046
19880TIP3    H159517   1.215   5.221   9.059
19880TIP3    H259518   1.152   5.353   9.092
19881TIP3   OH259519   1.344   6.822   8.384
19881TIP3    H159520   1.392   6.739   8.360
19881TIP3    H259521   1.401   6.887   8.339
19882TIP3   OH259522   1.481   6.607   8.282
19882TIP3    H159523   1.437   6.529   8.246
19882TIP3    H259524   1.516   6.572   8.367
19883TIP3   OH259525   1.863   6.690   9.047
19883TIP3    H159526   1.851   6.611   8.990
19883TIP3    H259527   1.847   6.763   8.984
19884TIP3   OH259528   1.153   6.079   8.304
19884TIP3    H159529   1.072   6.131   8.284
19884TIP3    H259530   1.198   6.078   8.218
19885TIP3   OH259531   1.113   5.862   8.027
19885TIP3    H159532   1.183   5.914   8.073
19885TIP3    H259533   1.169   5.799   7.977
19886TIP3   OH259534   2.057   6.323   8.892
19886TIP3    H159535   1.974   6.376   8.898
19886TIP3    H259536   2.086   6.346   8.801
19887TIP3   OH259537   1.500   6.163   8.277
19887TIP3    H159538   1.445   6.188   8.355
19887TIP3    H259539   1.583   6.136   8.322
19888TIP3   OH259540   1.738   6.199   9.190
19888TIP3    H159541   1.735   6.285   9.235
19888TIP3    H259542   1.652   6.201   9.144
19889TIP3   OH259543   0.867   6.129   9.052
19889TIP3    H159544   0.889   6.098   8.961
19889TIP3    H259545   0.905   6.218   9.049
19890TIP3   OH259546   1.397   6.776   8.826
19890TIP3    H159547   1.377   6.845   8.890
19890TIP3    H259548   1.385   6.694   8.879
19891TIP3   OH259549   1.344   6.019   8.103
19891TIP3    H159550   1.401   6.079   8.156
19891TIP3    H259551   1.369   6.045   8.011
19892TIP3   OH259552   1.085   6.702   8.378
19892TIP3    H159553   1.163   6.751   8.408
19892TIP3    H259554   1.032   6.771   8.337
19893TIP3   OH259555   1.857   5.263   8.150
19893TIP3    H159556   1.776   5.281   8.203
19893TIP3    H259557   1.868   5.347   8.103
19894TIP3   OH259558   1.655   6.630   7.698
19894TIP3    H159559   1.664   6.727   7.685
19894TIP3    H259560   1.748   6.601   7.686
19895TIP3   OH259561   2.100   7.030   9.093
19895TIP3    H159562   2.099   6.933   9.105
19895TIP3    H259563   2.015   7.053   9.137
19896TIP3   OH259564   1.205   6.773   9.247
19896TIP3    H159565   1.207   6.871   9.250
19896TIP3    H259566   1.117   6.755   9.206
19897TIP3   OH259567   0.991   6.936   8.201
19897TIP3    H159568   0.959   6.907   8.113
19897TIP3    H259569   0.942   7.017   8.216
19898TIP3   OH259570   1.170   6.851   7.820
19898TIP3    H159571   1.226   6.780   7.781
19898TIP3    H259572   1.208   6.856   7.910
19899TIP3   OH259573   1.232   6.891   8.088
19899TIP3    H159574   1.149   6.896   8.140
19899TIP3    H259575   1.289   6.845   8.152
19900TIP3   OH259576   1.996   6.161   9.362
19900TIP3    H159577   1.913   6.183   9.317
19900TIP3    H259578   2.004   6.065   9.342
19901TIP3   OH259579   0.992   5.395   9.152
19901TIP3    H159580   0.909   5.359   9.185
19901TIP3    H259581   0.989   5.488   9.178
19902TIP3   OH259582   1.448   5.521   9.331
19902TIP3    H159583   1.515   5.504   9.401
19902TIP3    H259584   1.365   5.514   9.381
19903TIP3   OH259585   1.747   5.936   9.319
19903TIP3    H159586   1.765   5.967   9.410
19903TIP3    H259587   1.736   6.019   9.269
19904TIP3   OH259588   1.419   6.069   7.847
19904TIP3    H159589   1.384   6.043   7.759
19904TIP3    H259590   1.497   6.122   7.821
19905TIP3   OH259591   1.134   5.446   8.148
19905TIP3    H159592   1.104   5.445   8.241
19905TIP3    H259593   1.094   5.363   8.117
19906TIP3   OH259594   0.907   5.895   9.196
19906TIP3    H159595   0.871   5.936   9.276
19906TIP3    H259596   0.899   5.970   9.133
19907TIP3   OH259597   0.789   5.779   8.713
19907TIP3    H159598   0.699   5.808   8.694
19907TIP3    H259599   0.814   5.740   8.627
19908TIP3   OH259600   1.290   5.881   8.436
19908TIP3    H159601   1.236   5.953   8.396
19908TIP3    H259602   1.345   5.853   8.361
19909TIP3   OH259603   1.449   5.912   8.679
19909TIP3    H159604   1.391   5.943   8.608
19909TIP3    H259605   1.481   5.829   8.637
19910TIP3   OH259606   0.796   5.419   8.126
19910TIP3    H159607   0.768   5.415   8.219
19910TIP3    H259608   0.712   5.431   8.079
19911TIP3   OH259609   1.464   6.164   9.101
19911TIP3    H159610   1.494   6.093   9.039
19911TIP3    H259611   1.432   6.109   9.176
19912TIP3   OH259612   1.135   5.623   8.768
19912TIP3    H159613   1.057   5.624   8.827
19912TIP3    H259614   1.207   5.614   8.832
19913TIP3   OH259615   0.837   5.673   8.463
19913TIP3    H159616   0.933   5.690   8.450
19913TIP3    H259617   0.796   5.710   8.382
19914TIP3   OH259618   1.619   5.696   8.981
19914TIP3    H159619   1.563   5.705   9.060
19914TIP3    H259620   1.572   5.629   8.930
19915TIP3   OH259621   0.656   5.722   8.241
19915TIP3    H159622   0.611   5.642   8.209
19915TIP3    H259623   0.718   5.742   8.168
19916TIP3   OH259624   1.816   7.364   9.162
19916TIP3    H159625   1.797   7.414   9.081
19916TIP3    H259626   1.806   7.431   9.232
19917TIP3   OH259627   1.214   5.941   8.867
19917TIP3    H159628   1.287   5.906   8.815
19917TIP3    H259629   1.228   5.900   8.954
19918TIP3   OH259630   0.771   5.431   8.747
19918TIP3    H159631   0.708   5.358   8.761
19918TIP3    H259632   0.808   5.409   8.660
19919TIP3   OH259633   1.186   5.838   9.164
19919TIP3    H159634   1.096   5.876   9.165
19919TIP3    H259635   1.240   5.908   9.207
19920TIP3   OH259636   0.929   6.235   8.256
19920TIP3    H159637   0.855   6.171   8.243
19920TIP3    H259638   0.904   6.272   8.344
19921TIP3   OH259639   1.825   6.470   8.886
19921TIP3    H159640   1.849   6.518   8.803
19921TIP3    H259641   1.740   6.428   8.862
19922TIP3   OH259642   1.384   5.549   8.109
19922TIP3    H159643   1.287   5.533   8.121
19922TIP3    H259644   1.395   5.643   8.137
19923TIP3   OH259645   1.356   6.549   9.245
19923TIP3    H159646   1.316   6.490   9.312
19923TIP3    H259647   1.298   6.628   9.252
19924TIP3   OH259648   1.453   5.791   8.217
19924TIP3    H159649   1.549   5.799   8.235
19924TIP3    H259650   1.435   5.872   8.165
19925TIP3   OH259651   1.075   6.377   8.074
19925TIP3    H159652   1.034   6.466   8.085
19925TIP3    H259653   1.019   6.323   8.134
19926TIP3   OH259654   1.488   6.824   9.135
19926TIP3    H159655   1.399   6.792   9.156
19926TIP3    H259656   1.513   6.867   9.219
19927TIP3   OH259657   1.897   5.880   8.054
19927TIP3    H159658   1.834   5.836   7.994
19927TIP3    H259659   1.893   5.970   8.014
19928TIP3   OH259660   2.113   6.739   9.136
19928TIP3    H159661   2.015   6.735   9.128
19928TIP3    H259662   2.139   6.709   9.046
19929TIP3   OH259663   1.595   6.702   7.964
19929TIP3    H159664   1.569   6.631   8.025
19929TIP3    H259665   1.605   6.655   7.879
19930TIP3   OH259666   1.593   6.331   8.805
19930TIP3    H159667   1.500   6.301   8.817
19930TIP3    H259668   1.628   6.252   8.759
19931TIP3   OH259669   0.858   6.330   8.506
19931TIP3    H159670   0.836   6.420   8.535
19931TIP3    H259671   0.836   6.283   8.588
19932TIP3   OH259672   1.391   6.543   8.975
19932TIP3    H159673   1.379   6.538   9.072
19932TIP3    H259674   1.460   6.477   8.960
19933TIP3   OH259675   1.347   6.431   7.863
19933TIP3    H159676   1.398   6.406   7.944
19933TIP3    H259677   1.258   6.401   7.888
19934TIP3   OH259678   1.622   7.075   9.036
19934TIP3    H159679   1.548   7.012   9.029
19934TIP3    H259680   1.606   7.135   8.961
19935TIP3   OH259681   1.691   6.905   7.686
19935TIP3    H159682   1.730   6.978   7.634
19935TIP3    H259683   1.609   6.951   7.716
19936TIP3   OH259684   1.507   6.364   8.082
19936TIP3    H159685   1.497   6.298   8.153
19936TIP3    H259686   1.604   6.362   8.070
19937TIP3   OH259687   0.771   6.383   7.893
19937TIP3    H159688   0.786   6.298   7.846
19937TIP3    H259689   0.735   6.351   7.976
19938TIP3   OH259690   1.526   5.772   9.238
19938TIP3    H159691   1.622   5.785   9.252
19938TIP3    H259692   1.508   5.681   9.270
19939TIP3   OH259693   1.425   5.498   8.393
19939TIP3    H159694   1.412   5.526   8.301
19939TIP3    H259695   1.464   5.579   8.433
19940TIP3   OH259696   0.940   6.611   8.094
19940TIP3    H159697   0.845   6.614   8.112
19940TIP3    H259698   0.946   6.650   8.005
19941TIP3   OH259699   1.113   5.678   8.498
19941TIP3    H159700   1.180   5.748   8.479
19941TIP3    H259701   1.123   5.668   8.595
19942TIP3   OH259702   1.378   6.000   9.299
19942TIP3    H159703   1.396   6.014   9.393
19942TIP3    H259704   1.428   5.916   9.282
19943TIP3   OH259705   1.261   5.405   8.602
19943TIP3    H159706   1.263   5.477   8.668
19943TIP3    H259707   1.324   5.441   8.535
19944TIP3   OH259708   0.783   5.412   8.411
19944TIP3    H159709   0.800   5.504   8.440
19944TIP3    H259710   0.876   5.381   8.405
19945TIP3   OH259711   2.017   5.895   9.287
19945TIP3    H159712   1.921   5.883   9.294
19945TIP3    H259713   2.032   5.847   9.203
19946TIP3   OH259714   1.676   6.091   8.675
19946TIP3    H159715   1.600   6.032   8.688
19946TIP3    H259716   1.748   6.043   8.723
19947TIP3   OH259717   1.643   7.048   8.629
19947TIP3    H159718   1.602   7.095   8.553
19947TIP3    H259719   1.737   7.065   8.608
19948TIP3   OH259720   0.913   6.604   7.803
19948TIP3    H159721   0.863   6.525   7.830
19948TIP3    H259722   0.970   6.566   7.733
19949TIP3   OH259723   1.527   6.948   9.378
19949TIP3    H159724   1.510   6.886   9.452
19949TIP3    H259725   1.604   6.999   9.412
19950TIP3   OH259726   1.318   6.660   7.689
19950TIP3    H159727   1.360   6.593   7.747
19950TIP3    H259728   1.374   6.657   7.609
19951TIP3   OH259729   1.205   6.416   9.440
19951TIP3    H159730   1.132   6.479   9.439
19951TIP3    H259731   1.229   6.410   9.534
19952TIP3   OH259732   1.049   6.325   7.800
19952TIP3    H159733   1.040   6.340   7.897
19952TIP3    H259734   1.044   6.227   7.797
19953TIP3   OH259735   1.653   6.568   9.185
19953TIP3    H159736   1.717   6.624   9.137
19953TIP3    H259737   1.570   6.617   9.175
19954TIP3   OH259738   0.744   6.034   8.222
19954TIP3    H159739   0.704   5.987   8.296
19954TIP3    H259740   0.772   5.960   8.164
19955TIP3   OH259741   1.072   6.096   9.422
19955TIP3    H159742   0.980   6.128   9.412
19955TIP3    H259743   1.110   6.123   9.336
19956TIP3   OH259744   0.836   5.822   8.065
19956TIP3    H159745   0.811   5.830   7.971
19956TIP3    H259746   0.933   5.832   8.058
19957TIP3   OH259747   1.570   6.519   9.564
19957TIP3    H159748   1.652   6.530   9.514
19957TIP3    H259749   1.579   6.427   9.591
19958TIP3   OH259750   1.657   6.161   7.721
19958TIP3    H159751   1.632   6.113   7.639
19958TIP3    H259752   1.625   6.251   7.697
19959TIP3   OH259753   1.104   5.646   9.345
19959TIP3    H159754   1.147   5.696   9.273
19959TIP3    H259755   1.015   5.684   9.343
19960TIP3   OH259756   1.152   6.214   9.194
19960TIP3    H159757   1.242   6.210   9.159
19960TIP3    H259758   1.131   6.307   9.180
19961TIP3   OH259759   1.778   6.426   9.371
19961TIP3    H159760   1.721   6.478   9.309
19961TIP3    H259761   1.866   6.446   9.332
19962TIP3   OH259762   1.894   7.139   8.580
19962TIP3    H159763   1.922   7.172   8.668
19962TIP3    H259764   1.956   7.184   8.521
19963TIP3   OH259765   1.925   7.160   8.863
19963TIP3    H159766   1.883   7.071   8.859
19963TIP3    H259767   2.000   7.140   8.921
19964TIP3   OH259768   1.984   6.836   9.417
19964TIP3    H159769   1.907   6.837   9.478
19964TIP3    H259770   2.016   6.928   9.423
19965TIP3   OH259771   1.788   6.347   8.057
19965TIP3    H159772   1.858   6.410   8.030
19965TIP3    H259773   1.829   6.307   8.137
19966TIP3   OH259774   1.915   6.215   8.260
19966TIP3    H159775   1.850   6.172   8.319
19966TIP3    H259776   1.979   6.254   8.324
19967TIP3   OH259777   1.968   6.605   8.693
19967TIP3    H159778   2.022   6.542   8.642
19967TIP3    H259779   1.957   6.679   8.631
19968TIP3   OH259780   1.803   6.908   8.888
19968TIP3    H159781   1.731   6.946   8.942
19968TIP3    H259782   1.752   6.858   8.820
19969TIP3   OH259783   1.854   6.122   7.908
19969TIP3    H159784   1.783   6.126   7.840
19969TIP3    H259785   1.827   6.198   7.963
19970TIP3   OH259786   1.727   5.794   7.861
19970TIP3    H159787   1.682   5.837   7.787
19970TIP3    H259788   1.700   5.701   7.850
19971TIP3   OH259789   1.731   6.069   8.407
19971TIP3    H159790   1.738   5.972   8.404
19971TIP3    H259791   1.717   6.085   8.503
19972TIP3   OH259792   2.020   6.496   9.267
19972TIP3    H159793   2.093   6.431   9.257
19972TIP3    H259794   2.045   6.565   9.204
19973TIP3   OH259795   2.208   6.307   9.286
19973TIP3    H159796   2.134   6.252   9.321
19973TIP3    H259797   2.282   6.244   9.297
19974TIP3   OH259798   1.670   5.528   7.847
19974TIP3    H159799   1.745   5.500   7.904
19974TIP3    H259800   1.597   5.472   7.877
19975TIP3   OH259801   1.725   5.786   8.304
19975TIP3    H159802   1.765   5.697   8.319
19975TIP3    H259803   1.785   5.819   8.234
19976TIP3   OH259804   1.890   5.965   8.797
19976TIP3    H159805   1.976   5.993   8.758
19976TIP3    H259806   1.903   5.997   8.888
19977TIP3   OH259807   1.956   6.106   9.032
19977TIP3    H159808   1.878   6.140   9.078
19977TIP3    H259809   1.989   6.185   8.985
19978TIP3   OH259810   2.401   5.682   9.574
19978TIP3    H159811   2.470   5.631   9.527
19978TIP3    H259812   2.408   5.769   9.533
19979TIP3   OH259813   1.833   5.536   8.336
19979TIP3    H159814   1.884   5.521   8.420
19979TIP3    H259815   1.773   5.459   8.338
19980TIP3   OH259816   2.272   5.849   9.384
19980TIP3    H159817   2.177   5.871   9.383
19980TIP3    H259818   2.272   5.772   9.325
19981TIP3   OH259819   1.918   5.474   7.971
19981TIP3    H159820   1.959   5.400   7.922
19981TIP3    H259821   1.985   5.544   7.964
19982TIP3   OH259822   1.480   7.007   8.240
19982TIP3    H159823   1.529   6.987   8.157
19982TIP3    H259824   1.540   7.070   8.282
19983TIP3   OH259825   1.266   7.040   9.282
19983TIP3    H159826   1.338   7.013   9.342
19983TIP3    H259827   1.313   7.100   9.222
19984TIP3   OH259828   1.403   7.246   9.158
19984TIP3    H159829   1.466   7.189   9.111
19984TIP3    H259830   1.462   7.297   9.215
19985TIP3   OH259831   2.166   5.607   9.238
19985TIP3    H159832   2.081   5.609   9.190
19985TIP3    H259833   2.192   5.512   9.233
19986TIP3   OH259834   1.105   7.122   8.804
19986TIP3    H159835   1.009   7.127   8.796
19986TIP3    H259836   1.124   7.203   8.856
19987TIP3   OH259837   1.363   7.061   8.909
19987TIP3    H159838   1.275   7.060   8.867
19987TIP3    H259839   1.412   7.123   8.852
19988TIP3   OH259840   1.577   7.244   8.816
19988TIP3    H159841   1.558   7.325   8.764
19988TIP3    H259842   1.604   7.180   8.746
19989TIP3   OH259843   1.372   5.515   8.883
19989TIP3    H159844   1.339   5.442   8.939
19989TIP3    H259845   1.449   5.472   8.838
19990TIP3   OH259846   1.999   5.494   8.547
19990TIP3    H159847   2.076   5.443   8.515
19990TIP3    H259848   2.033   5.585   8.543
19991TIP3   OH259849   1.081   5.257   8.785
19991TIP3    H159850   1.137   5.309   8.725
19991TIP3    H259851   1.103   5.295   8.871
19992TIP3   OH259852   1.596   5.405   8.769
19992TIP3    H159853   1.641   5.377   8.688
19992TIP3    H259854   1.616   5.329   8.827
19993TIP3   OH259855   1.651   5.321   8.329
19993TIP3    H159856   1.566   5.366   8.343
19993TIP3    H259857   1.636   5.238   8.379
19994TIP3   OH259858   0.569   5.172   8.355
19994TIP3    H159859   0.559   5.167   8.259
19994TIP3    H259860   0.583   5.267   8.366
19995TIP3   OH259861   1.058   5.425   8.414
19995TIP3    H159862   1.119   5.383   8.478
19995TIP3    H259863   1.074   5.519   8.437
19996TIP3   OH259864   0.919   6.866   7.943
19996TIP3    H159865   1.006   6.860   7.896
19996TIP3    H259866   0.861   6.829   7.873
19997TIP3   OH259867   1.625   6.968   8.007
19997TIP3    H159868   1.618   6.870   7.994
19997TIP3    H259869   1.583   7.000   7.925
19998TIP3   OH259870   1.855   7.103   9.200
19998TIP3    H159871   1.774   7.076   9.152
19998TIP3    H259872   1.847   7.201   9.188
19999TIP3   OH259873   3.119   6.485   7.962
19999TIP3    H159874   3.092   6.577   7.942
19999TIP3    H259875   3.041   6.437   7.930
20000TIP3   OH259876   3.119   6.485   8.340
20000TIP3    H159877   3.147   6.454   8.427
20000TIP3    H259878   3.074   6.406   8.304
20001TIP3   OH259879   2.418   6.381   8.706
20001TIP3    H159880   2.449   6.315   8.770
20001TIP3    H259881   2.494   6.441   8.703
20002TIP3   OH259882   3.361   6.785   8.022
20002TIP3    H159883   3.346   6.717   8.089
20002TIP3    H259884   3.387   6.861   8.077
20003TIP3   OH259885   2.387   6.791   8.434
20003TIP3    H159886   2.378   6.693   8.437
20003TIP3    H259887   2.484   6.799   8.429
20004TIP3   OH259888   2.096   5.998   8.219
20004TIP3    H159889   2.045   6.080   8.232
20004TIP3    H259890   2.026   5.939   8.187
20005TIP3   OH259891   2.156   6.283   8.387
20005TIP3    H159892   2.204   6.206   8.426
20005TIP3    H259893   2.213   6.306   8.313
20006TIP3   OH259894   3.008   7.250   8.038
20006TIP3    H159895   3.056   7.179   7.991
20006TIP3    H259896   3.002   7.214   8.127
20007TIP3   OH259897   2.917   6.711   8.389
20007TIP3    H159898   2.953   6.635   8.341
20007TIP3    H259899   3.001   6.755   8.413
20008TIP3   OH259900   3.929   6.032   8.387
20008TIP3    H159901   3.956   6.115   8.432
20008TIP3    H259902   3.947   6.054   8.294
20009TIP3   OH259903   3.330   6.215   8.424
20009TIP3    H159904   3.371   6.128   8.444
20009TIP3    H259905   3.298   6.200   8.333
20010TIP3   OH259906   2.666   5.873   8.388
20010TIP3    H159907   2.643   5.945   8.327
20010TIP3    H259908   2.617   5.799   8.345
20011TIP3   OH259909   3.359   5.962   8.013
20011TIP3    H159910   3.432   5.946   8.076
20011TIP3    H259911   3.409   5.999   7.938
20012TIP3   OH259912   2.300   6.076   8.495
20012TIP3    H159913   2.383   6.055   8.542
20012TIP3    H259914   2.311   6.019   8.416
20013TIP3   OH259915   2.742   6.273   8.284
20013TIP3    H159916   2.834   6.246   8.301
20013TIP3    H259917   2.701   6.189   8.254
20014TIP3   OH259918   4.002   6.239   8.557
20014TIP3    H159919   3.919   6.287   8.538
20014TIP3    H259920   4.012   6.260   8.651
20015TIP3   OH259921   2.664   5.855   8.822
20015TIP3    H159922   2.602   5.892   8.756
20015TIP3    H259923   2.613   5.872   8.904
20016TIP3   OH259924   3.013   6.707   7.832
20016TIP3    H159925   2.968   6.684   7.749
20016TIP3    H259926   2.969   6.792   7.853
20017TIP3   OH259927   2.770   6.631   8.620
20017TIP3    H159928   2.705   6.694   8.659
20017TIP3    H259929   2.810   6.684   8.549
20018TIP3   OH259930   3.574   5.963   8.180
20018TIP3    H159931   3.561   5.915   8.263
20018TIP3    H259932   3.626   6.040   8.209
20019TIP3   OH259933   2.533   5.971   8.607
20019TIP3    H159934   2.595   6.044   8.630
20019TIP3    H259935   2.582   5.930   8.533
20020TIP3   OH259936   2.596   6.823   8.715
20020TIP3    H159937   2.570   6.908   8.676
20020TIP3    H259938   2.518   6.807   8.773
20021TIP3   OH259939   1.995   6.513   7.952
20021TIP3    H159940   1.951   6.539   7.869
20021TIP3    H259941   2.023   6.600   7.988
20022TIP3   OH259942   3.434   7.029   8.193
20022TIP3    H159943   3.344   7.021   8.232
20022TIP3    H259944   3.424   7.115   8.147
20023TIP3   OH259945   3.722   5.933   8.554
20023TIP3    H159946   3.633   5.962   8.526
20023TIP3    H259947   3.779   5.964   8.481
20024TIP3   OH259948   3.022   5.577   8.536
20024TIP3    H159949   3.009   5.482   8.553
20024TIP3    H259950   2.944   5.615   8.582
20025TIP3   OH259951   3.137   7.078   7.870
20025TIP3    H159952   3.186   6.996   7.846
20025TIP3    H259953   3.196   7.144   7.826
20026TIP3   OH259954   3.276   6.863   7.771
20026TIP3    H159955   3.238   6.784   7.729
20026TIP3    H259956   3.311   6.826   7.855
20027TIP3   OH259957   3.659   6.945   8.535
20027TIP3    H159958   3.647   6.867   8.476
20027TIP3    H259959   3.641   7.019   8.473
20028TIP3   OH259960   2.949   6.337   7.791
20028TIP3    H159961   2.868   6.388   7.769
20028TIP3    H259962   2.995   6.336   7.705
20029TIP3   OH259963   2.908   6.121   7.511
20029TIP3    H159964   2.977   6.171   7.559
20029TIP3    H259965   2.965   6.057   7.463
20030TIP3   OH259966   3.854   6.580   8.379
20030TIP3    H159967   3.771   6.632   8.385
20030TIP3    H259968   3.882   6.604   8.288
20031TIP3   OH259969   3.296   6.419   7.765
20031TIP3    H159970   3.241   6.445   7.843
20031TIP3    H259971   3.379   6.393   7.810
20032TIP3   OH259972   3.533   6.461   8.672
20032TIP3    H159973   3.528   6.545   8.722
20032TIP3    H259974   3.445   6.463   8.628
20033TIP3   OH259975   2.529   6.419   8.179
20033TIP3    H159976   2.487   6.361   8.112
20033TIP3    H259977   2.606   6.365   8.207
20034TIP3   OH259978   2.659   6.830   8.329
20034TIP3    H159979   2.637   6.784   8.247
20034TIP3    H259980   2.749   6.797   8.347
20035TIP3   OH259981   2.669   6.388   8.534
20035TIP3    H159982   2.700   6.371   8.443
20035TIP3    H259983   2.709   6.475   8.555
20036TIP3   OH259984   3.192   7.027   8.312
20036TIP3    H159985   3.176   7.106   8.366
20036TIP3    H259986   3.177   6.953   8.374
20037TIP3   OH259987   2.802   6.947   8.857
20037TIP3    H159988   2.742   7.009   8.905
20037TIP3    H259989   2.735   6.893   8.810
20038TIP3   OH259990   3.140   6.276   7.590
20038TIP3    H159991   3.197   6.336   7.642
20038TIP3    H259992   3.165   6.302   7.498
20039TIP3   OH259993   2.555   6.506   8.954
20039TIP3    H159994   2.560   6.590   9.004
20039TIP3    H259995   2.461   6.485   8.966
20040TIP3   OH259996   2.879   6.959   7.866
20040TIP3    H159997   2.956   7.015   7.887
20040TIP3    H259998   2.817   7.022   7.826
20041TIP3   OH259999   2.598   7.117   8.946
20041TIP3    H160000   2.562   7.113   8.855
20041TIP3    H260001   2.518   7.095   8.999
20042TIP3   OH260002   3.653   5.519   7.637
20042TIP3    H160003   3.572   5.538   7.689
20042TIP3    H260004   3.664   5.604   7.589
20043TIP3   OH260005   2.396   6.260   7.985
20043TIP3    H160006   2.330   6.306   7.928
20043TIP3    H260007   2.352   6.176   8.000
20044TIP3   OH260008   3.450   6.886   7.187
20044TIP3    H160009   3.459   6.983   7.171
20044TIP3    H260010   3.543   6.857   7.174
20045TIP3   OH260011   2.177   6.645   8.891
20045TIP3    H160012   2.112   6.621   8.822
20045TIP3    H260013   2.213   6.557   8.918
20046TIP3   OH260014   2.030   6.838   8.525
20046TIP3    H160015   2.126   6.830   8.516
20046TIP3    H260016   2.022   6.917   8.580
20047TIP3   OH260017   3.896   7.287   8.579
20047TIP3    H160018   3.894   7.191   8.592
20047TIP3    H260019   3.812   7.312   8.625
20048TIP3   OH260020   3.002   7.075   8.715
20048TIP3    H160021   3.001   7.168   8.747
20048TIP3    H260022   2.930   7.036   8.769
20049TIP3   OH260023   2.759   7.204   7.667
20049TIP3    H160024   2.715   7.184   7.582
20049TIP3    H260025   2.728   7.295   7.686
20050TIP3   OH260026   2.199   7.054   8.049
20050TIP3    H160027   2.247   7.044   8.135
20050TIP3    H260028   2.140   6.977   8.053
20051TIP3   OH260029   2.964   7.105   7.309
20051TIP3    H160030   3.022   7.035   7.271
20051TIP3    H260031   2.998   7.113   7.400
20052TIP3   OH260032   3.012   7.153   7.579
20052TIP3    H160033   2.923   7.162   7.621
20052TIP3    H260034   3.062   7.110   7.650
20053TIP3   OH260035   3.787   6.422   8.853
20053TIP3    H160036   3.705   6.435   8.803
20053TIP3    H260037   3.800   6.325   8.844
20054TIP3   OH260038   2.382   6.828   8.883
20054TIP3    H160039   2.432   6.810   8.965
20054TIP3    H260040   2.308   6.763   8.890
20055TIP3   OH260041   2.782   5.652   8.662
20055TIP3    H160042   2.691   5.621   8.638
20055TIP3    H260043   2.757   5.734   8.709
20056TIP3   OH260044   3.313   5.767   8.858
20056TIP3    H160045   3.380   5.741   8.925
20056TIP3    H260046   3.228   5.747   8.903
20057TIP3   OH260047   3.558   6.197   8.780
20057TIP3    H160048   3.507   6.192   8.864
20057TIP3    H260049   3.529   6.283   8.743
20058TIP3   OH260050   3.213   6.325   7.333
20058TIP3    H160051   3.181   6.299   7.244
20058TIP3    H260052   3.291   6.378   7.309
20059TIP3   OH260053   2.928   5.701   7.635
20059TIP3    H160054   2.896   5.700   7.727
20059TIP3    H260055   2.888   5.617   7.603
20060TIP3   OH260056   2.713   6.165   8.684
20060TIP3    H160057   2.663   6.187   8.765
20060TIP3    H260058   2.697   6.246   8.630
20061TIP3   OH260059   2.596   6.052   8.197
20061TIP3    H160060   2.503   6.026   8.214
20061TIP3    H260061   2.609   6.012   8.108
20062TIP3   OH260062   3.087   6.139   7.924
20062TIP3    H160063   3.032   6.210   7.884
20062TIP3    H260064   3.141   6.111   7.847
20063TIP3   OH260065   3.261   6.419   9.013
20063TIP3    H160066   3.237   6.346   9.075
20063TIP3    H260067   3.355   6.432   9.035
20064TIP3   OH260068   3.246   6.169   8.164
20064TIP3    H160069   3.186   6.200   8.094
20064TIP3    H260070   3.277   6.086   8.122
20065TIP3   OH260071   2.532   6.196   8.893
20065TIP3    H160072   2.558   6.257   8.963
20065TIP3    H260073   2.519   6.113   8.943
20066TIP3   OH260074   2.582   5.672   7.602
20066TIP3    H160075   2.574   5.669   7.699
20066TIP3    H260076   2.503   5.724   7.579
20067TIP3   OH260077   2.125   5.722   8.470
20067TIP3    H160078   2.201   5.751   8.525
20067TIP3    H260079   2.166   5.682   8.392
20068TIP3   OH260080   2.102   5.700   7.991
20068TIP3    H160081   2.146   5.740   7.914
20068TIP3    H260082   2.040   5.772   8.014
20069TIP3   OH260083   3.258   6.416   8.588
20069TIP3    H160084   3.289   6.343   8.530
20069TIP3    H260085   3.228   6.364   8.666
20070TIP3   OH260086   2.922   5.875   8.259
20070TIP3    H160087   2.838   5.873   8.310
20070TIP3    H260088   2.987   5.877   8.331
20071TIP3   OH260089   2.359   5.930   8.267
20071TIP3    H160090   2.264   5.938   8.241
20071TIP3    H260091   2.380   5.838   8.245
20072TIP3   OH260092   2.630   5.927   7.954
20072TIP3    H160093   2.724   5.944   7.932
20072TIP3    H260094   2.583   5.951   7.872
20073TIP3   OH260095   3.416   5.949   8.458
20073TIP3    H160096   3.382   5.962   8.550
20073TIP3    H260097   3.349   5.888   8.423
20074TIP3   OH260098   2.467   5.959   7.735
20074TIP3    H160099   2.393   5.916   7.688
20074TIP3    H260100   2.518   5.995   7.660
20075TIP3   OH260101   3.583   7.639   8.678
20075TIP3    H160102   3.581   7.661   8.583
20075TIP3    H260103   3.661   7.689   8.709
20076TIP3   OH260104   2.542   6.751   9.102
20076TIP3    H160105   2.622   6.780   9.150
20076TIP3    H260106   2.478   6.747   9.176
20077TIP3   OH260107   3.007   6.202   8.357
20077TIP3    H160108   3.079   6.160   8.307
20077TIP3    H260109   3.017   6.162   8.445
20078TIP3   OH260110   2.532   5.691   8.233
20078TIP3    H160111   2.498   5.611   8.279
20078TIP3    H260112   2.584   5.653   8.161
20079TIP3   OH260113   2.984   6.099   8.645
20079TIP3    H160114   2.894   6.134   8.660
20079TIP3    H260115   3.040   6.158   8.697
20080TIP3   OH260116   2.721   6.491   7.741
20080TIP3    H160117   2.648   6.426   7.730
20080TIP3    H260118   2.703   6.524   7.833
20081TIP3   OH260119   3.622   6.726   8.372
20081TIP3    H160120   3.645   6.775   8.290
20081TIP3    H260121   3.536   6.685   8.349
20082TIP3   OH260122   3.179   5.805   7.597
20082TIP3    H160123   3.082   5.789   7.608
20082TIP3    H260124   3.189   5.899   7.624
20083TIP3   OH260125   3.125   6.811   8.737
20083TIP3    H160126   3.136   6.782   8.829
20083TIP3    H260127   3.081   6.897   8.747
20084TIP3   OH260128   3.249   6.049   7.704
20084TIP3    H160129   3.345   6.056   7.721
20084TIP3    H260130   3.230   6.129   7.652
20085TIP3   OH260131   2.413   6.513   8.419
20085TIP3    H160132   2.451   6.483   8.333
20085TIP3    H260133   2.448   6.447   8.480
20086TIP3   OH260134   2.866   6.640   7.561
20086TIP3    H160135   2.819   6.727   7.568
20086TIP3    H260136   2.811   6.585   7.621
20087TIP3   OH260137   2.291   6.434   9.030
20087TIP3    H160138   2.316   6.420   9.124
20087TIP3    H260139   2.224   6.365   9.016
20088TIP3   OH260140   3.016   6.547   9.048
20088TIP3    H160141   2.957   6.486   9.002
20088TIP3    H260142   3.104   6.513   9.021
20089TIP3   OH260143   3.282   7.071   8.631
20089TIP3    H160144   3.186   7.065   8.644
20089TIP3    H260145   3.308   7.121   8.712
20090TIP3   OH260146   3.694   6.138   7.541
20090TIP3    H160147   3.630   6.093   7.480
20090TIP3    H260148   3.689   6.227   7.501
20091TIP3   OH260149   3.909   6.997   8.623
20091TIP3    H160150   3.811   6.992   8.616
20091TIP3    H260151   3.934   6.967   8.533
20092TIP3   OH260152   3.391   6.959   7.451
20092TIP3    H160153   3.366   6.886   7.509
20092TIP3    H260154   3.404   6.915   7.365
20093TIP3   OH260155   3.387   6.588   8.292
20093TIP3    H160156   3.293   6.562   8.305
20093TIP3    H260157   3.421   6.509   8.246
20094TIP3   OH260158   2.512   6.814   8.041
20094TIP3    H160159   2.514   6.896   7.988
20094TIP3    H260160   2.417   6.800   8.050
20095TIP3   OH260161   2.076   6.120   7.744
20095TIP3    H160162   2.122   6.204   7.764
20095TIP3    H260163   1.998   6.127   7.804
20096TIP3   OH260164   2.656   6.583   7.988
20096TIP3    H160165   2.619   6.672   8.005
20096TIP3    H260166   2.617   6.533   8.062
20097TIP3   OH260167   2.781   7.160   8.512
20097TIP3    H160168   2.822   7.232   8.461
20097TIP3    H260169   2.858   7.126   8.561
20098TIP3   OH260170   2.434   7.054   7.896
20098TIP3    H160171   2.347   7.062   7.940
20098TIP3    H260172   2.464   7.147   7.898
20099TIP3   OH260173   3.174   6.794   8.469
20099TIP3    H160174   3.165   6.793   8.567
20099TIP3    H260175   3.252   6.739   8.456
20100TIP3   OH260176   3.143   6.683   7.352
20100TIP3    H160177   3.195   6.660   7.432
20100TIP3    H260178   3.053   6.660   7.383
20101TIP3   OH260179   3.420   7.330   8.522
20101TIP3    H160180   3.343   7.271   8.514
20101TIP3    H260181   3.404   7.393   8.448
20102TIP3   OH260182   3.485   7.161   7.174
20102TIP3    H160183   3.520   7.225   7.111
20102TIP3    H260184   3.406   7.211   7.205
20103TIP3   OH260185   2.507   5.937   9.037
20103TIP3    H160186   2.411   5.943   9.054
20103TIP3    H260187   2.537   5.881   9.111
20104TIP3   OH260188   3.303   6.621   7.571
20104TIP3    H160189   3.295   6.554   7.641
20104TIP3    H260190   3.400   6.620   7.556
20105TIP3   OH260191   2.221   7.024   8.671
20105TIP3    H160192   2.272   6.947   8.701
20105TIP3    H260193   2.249   7.091   8.735
20106TIP3   OH260194   2.513   6.667   7.351
20106TIP3    H160195   2.526   6.576   7.321
20106TIP3    H260196   2.494   6.654   7.446
20107TIP3   OH260197   2.458   6.671   7.624
20107TIP3    H160198   2.528   6.645   7.686
20107TIP3    H260199   2.462   6.770   7.630
20108TIP3   OH260200   2.195   6.366   7.826
20108TIP3    H160201   2.129   6.411   7.884
20108TIP3    H260202   2.209   6.437   7.760
20109TIP3   OH260203   3.342   6.001   8.716
20109TIP3    H160204   3.419   6.040   8.762
20109TIP3    H260205   3.324   5.921   8.771
20110TIP3   OH260206   3.222   5.755   7.880
20110TIP3    H160207   3.206   5.781   7.788
20110TIP3    H260208   3.260   5.838   7.918
20111TIP3   OH260209   2.723   6.870   7.574
20111TIP3    H160210   2.636   6.899   7.608
20111TIP3    H260211   2.739   6.938   7.507
20112TIP3   OH260212   2.914   5.931   7.985
20112TIP3    H160213   2.978   6.004   7.968
20112TIP3    H260214   2.916   5.926   8.083
20113TIP3   OH260215   3.181   6.254   8.794
20113TIP3    H160216   3.195   6.309   8.874
20113TIP3    H260217   3.235   6.176   8.813
20114TIP3   OH260218   3.058   5.664   8.091
20114TIP3    H160219   3.048   5.741   8.150
20114TIP3    H260220   3.117   5.701   8.021
20115TIP3   OH260221   2.464   6.945   7.639
20115TIP3    H160222   2.435   7.014   7.575
20115TIP3    H260223   2.448   6.989   7.725
20116TIP3   OH260224   2.567   5.657   7.878
20116TIP3    H160225   2.563   5.748   7.914
20116TIP3    H260226   2.663   5.640   7.887
20117TIP3   OH260227   3.823   6.152   8.772
20117TIP3    H160228   3.726   6.152   8.783
20117TIP3    H260229   3.830   6.111   8.685
20118TIP3   OH260230   3.472   6.347   8.163
20118TIP3    H160231   3.396   6.288   8.175
20118TIP3    H260232   3.543   6.300   8.211
20119TIP3   OH260233   2.183   6.579   7.634
20119TIP3    H160234   2.246   6.652   7.642
20119TIP3    H260235   2.229   6.525   7.566
20120TIP3   OH260236   2.131   5.851   7.763
20120TIP3    H160237   2.128   5.949   7.760
20120TIP3    H260238   2.043   5.828   7.730
20121TIP3   OH260239   3.439   7.302   8.114
20121TIP3    H160240   3.396   7.349   8.039
20121TIP3    H260241   3.533   7.320   8.092
20122TIP3   OH260242   2.518   5.576   8.638
20122TIP3    H160243   2.484   5.540   8.553
20122TIP3    H260244   2.512   5.496   8.696
20123TIP3   OH260245   2.059   6.793   8.025
20123TIP3    H160246   1.982   6.822   8.074
20123TIP3    H260247   2.039   6.830   7.936
20124TIP3   OH260248   2.211   7.323   9.088
20124TIP3    H160249   2.296   7.323   9.136
20124TIP3    H260250   2.190   7.228   9.086
20125TIP3   OH260251   2.696   7.301   9.135
20125TIP3    H160252   2.789   7.276   9.144
20125TIP3    H260253   2.669   7.242   9.061
20126TIP3   OH260254   2.676   6.873   7.268
20126TIP3    H160255   2.620   6.801   7.304
20126TIP3    H260256   2.750   6.821   7.231
20127TIP3   OH260257   3.333   7.202   8.869
20127TIP3    H160258   3.323   7.131   8.937
20127TIP3    H260259   3.410   7.252   8.901
20128TIP3   OH260260   3.111   6.914   7.176
20128TIP3    H160261   3.161   6.852   7.231
20128TIP3    H260262   3.164   6.917   7.094
20129TIP3   OH260263   2.341   6.737   9.293
20129TIP3    H160264   2.362   6.641   9.298
20129TIP3    H260265   2.254   6.736   9.247
20130TIP3   OH260266   2.318   6.390   7.484
20130TIP3    H160267   2.373   6.355   7.556
20130TIP3    H260268   2.386   6.394   7.412
20131TIP3   OH260269   2.952   6.822   9.065
20131TIP3    H160270   2.907   6.834   8.979
20131TIP3    H260271   2.982   6.728   9.060
20132TIP3   OH260272   2.826   6.585   7.291
20132TIP3    H160273   2.829   6.600   7.388
20132TIP3    H260274   2.824   6.487   7.288
20133TIP3   OH260275   3.444   6.826   8.671
20133TIP3    H160276   3.515   6.876   8.627
20133TIP3    H260277   3.369   6.887   8.661
20134TIP3   OH260278   2.464   6.471   9.269
20134TIP3    H160279   2.532   6.402   9.261
20134TIP3    H260280   2.485   6.503   9.359
20135TIP3   OH260281   2.530   6.290   7.709
20135TIP3    H160282   2.501   6.249   7.792
20135TIP3    H260283   2.563   6.214   7.658
20136TIP3   OH260284   2.796   6.356   8.935
20136TIP3    H160285   2.719   6.416   8.941
20136TIP3    H260286   2.842   6.390   8.855
20137TIP3   OH260287   2.627   6.082   7.549
20137TIP3    H160288   2.599   6.085   7.455
20137TIP3    H260289   2.724   6.092   7.540
20138TIP3   OH260290   3.314   6.759   9.071
20138TIP3    H160291   3.394   6.735   9.022
20138TIP3    H260292   3.310   6.691   9.140
20139TIP3   OH260293   3.451   6.415   7.210
20139TIP3    H160294   3.429   6.370   7.126
20139TIP3    H260295   3.423   6.507   7.186
20140TIP3   OH260296   2.922   6.143   9.061
20140TIP3    H160297   2.918   6.062   9.007
20140TIP3    H260298   2.876   6.208   9.005
20141TIP3   OH260299   2.923   5.928   8.866
20141TIP3    H160300   2.948   5.970   8.782
20141TIP3    H260301   2.828   5.906   8.850
20142TIP3   OH260302   2.953   6.467   8.740
20142TIP3    H160303   3.033   6.474   8.687
20142TIP3    H260304   2.895   6.534   8.698
20143TIP3   OH260305   3.533   6.433   9.124
20143TIP3    H160306   3.581   6.350   9.137
20143TIP3    H260307   3.603   6.491   9.090
20144TIP3   OH260308   3.574   6.686   8.861
20144TIP3    H160309   3.515   6.738   8.801
20144TIP3    H260310   3.661   6.705   8.819
20145TIP3   OH260311   2.798   6.263   9.284
20145TIP3    H160312   2.725   6.201   9.305
20145TIP3    H260313   2.832   6.226   9.200
20146TIP3   OH260314   3.054   5.694   8.934
20146TIP3    H160315   3.006   5.777   8.913
20146TIP3    H260316   2.983   5.627   8.924
20147TIP3   OH260317   3.180   6.201   9.151
20147TIP3    H160318   3.167   6.189   9.247
20147TIP3    H260319   3.090   6.176   9.121
20148TIP3   OH260320   3.419   6.146   9.006
20148TIP3    H160321   3.343   6.150   9.067
20148TIP3    H260322   3.491   6.115   9.065
20149TIP3   OH260323   3.654   6.088   9.158
20149TIP3    H160324   3.662   5.993   9.179
20149TIP3    H260325   3.645   6.129   9.247
20150TIP3   OH260326   2.634   6.042   9.331
20150TIP3    H160327   2.644   5.950   9.303
20150TIP3    H260328   2.676   6.037   9.420
20151TIP3   OH260329   3.151   5.703   9.192
20151TIP3    H160330   3.218   5.633   9.184
20151TIP3    H260331   3.108   5.698   9.104
20152TIP3   OH260332   3.217   5.925   9.344
20152TIP3    H160333   3.190   5.852   9.283
20152TIP3    H260334   3.137   5.983   9.343
20153TIP3   OH260335   2.434   7.147   7.452
20153TIP3    H160336   2.529   7.146   7.433
20153TIP3    H260337   2.402   7.194   7.373
20154TIP3   OH260338   1.915   6.529   7.670
20154TIP3    H160339   2.010   6.551   7.656
20154TIP3    H260340   1.910   6.440   7.628
20155TIP3   OH260341   1.826   7.142   8.082
20155TIP3    H160342   1.759   7.079   8.048
20155TIP3    H260343   1.872   7.086   8.149
20156TIP3   OH260344   1.964   6.997   8.269
20156TIP3    H160345   1.955   6.920   8.327
20156TIP3    H260346   2.015   7.057   8.327
20157TIP3   OH260347   3.692   7.393   8.067
20157TIP3    H160348   3.719   7.427   8.154
20157TIP3    H260349   3.751   7.440   8.007
20158TIP3   OH260350   3.723   7.415   8.350
20158TIP3    H160351   3.678   7.328   8.344
20158TIP3    H260352   3.797   7.391   8.408
20159TIP3   OH260353   3.769   7.091   8.922
20159TIP3    H160354   3.695   7.098   8.986
20159TIP3    H260355   3.808   7.180   8.928
20160TIP3   OH260356   3.584   6.603   7.544
20160TIP3    H160357   3.652   6.667   7.515
20160TIP3    H260358   3.627   6.564   7.623
20161TIP3   OH260359   3.713   6.470   7.747
20161TIP3    H160360   3.646   6.428   7.805
20161TIP3    H260361   3.774   6.512   7.810
20162TIP3   OH260362   3.765   6.862   8.181
20162TIP3    H160363   3.818   6.799   8.128
20162TIP3    H260364   3.754   6.937   8.119
20163TIP3   OH260365   3.599   7.164   8.375
20163TIP3    H160366   3.527   7.205   8.427
20163TIP3    H260367   3.548   7.115   8.306
20164TIP3   OH260368   3.649   6.377   7.395
20164TIP3    H160369   3.579   6.382   7.326
20164TIP3    H260370   3.624   6.455   7.449
20165TIP3   OH260371   3.524   6.049   7.349
20165TIP3    H160372   3.479   6.096   7.277
20165TIP3    H260373   3.495   5.957   7.334
20166TIP3   OH260374   3.528   6.326   7.894
20166TIP3    H160375   3.534   6.229   7.891
20166TIP3    H260376   3.513   6.342   7.990
20167TIP3   OH260377   2.154   6.402   8.640
20167TIP3    H160378   2.152   6.372   8.546
20167TIP3    H260379   2.251   6.403   8.656
20168TIP3   OH260380   3.815   6.751   8.750
20168TIP3    H160381   3.888   6.686   8.742
20168TIP3    H260382   3.842   6.821   8.689
20169TIP3   OH260383   4.003   6.560   8.770
20169TIP3    H160384   3.927   6.510   8.808
20169TIP3    H260385   4.075   6.495   8.784
20170TIP3   OH260386   3.467   5.782   7.332
20170TIP3    H160387   3.540   5.756   7.391
20170TIP3    H260388   3.392   5.728   7.363
20171TIP3   OH260389   3.522   6.043   7.791
20171TIP3    H160390   3.563   5.954   7.806
20171TIP3    H260391   3.580   6.076   7.721
20172TIP3   OH260392   3.686   6.218   8.284
20172TIP3    H160393   3.772   6.246   8.245
20172TIP3    H260394   3.697   6.255   8.374
20173TIP3   OH260395   3.752   6.361   8.517
20173TIP3    H160396   3.674   6.394   8.566
20173TIP3    H260397   3.783   6.442   8.472
20174TIP3   OH260398   2.368   6.092   9.310
20174TIP3    H160399   2.466   6.088   9.315
20174TIP3    H260400   2.345   6.008   9.356
20175TIP3   OH260401   4.207   5.952   9.074
20175TIP3    H160402   4.262   5.885   9.029
20175TIP3    H260403   4.178   6.008   8.998
20176TIP3   OH260404   3.632   5.792   7.826
20176TIP3    H160405   3.679   5.777   7.911
20176TIP3    H260406   3.571   5.716   7.825
20177TIP3   OH260407   2.331   5.780   8.644
20177TIP3    H160408   2.394   5.705   8.656
20177TIP3    H260409   2.393   5.855   8.641
20178TIP3   OH260410   2.137   6.055   8.720
20178TIP3    H160411   2.184   6.046   8.635
20178TIP3    H260412   2.167   6.141   8.749
20179TIP3   OH260413   4.078   6.094   8.881
20179TIP3    H160414   3.991   6.132   8.903
20179TIP3    H260415   4.049   6.023   8.820
20180TIP3   OH260416   3.714   5.730   7.459
20180TIP3    H160417   3.755   5.657   7.409
20180TIP3    H260418   3.781   5.801   7.451
20181TIP3   OH260419   2.117   5.556   8.220
20181TIP3    H160420   2.024   5.555   8.247
20181TIP3    H260421   2.115   5.615   8.142
20182TIP3   OH260422   3.278   7.259   7.727
20182TIP3    H160423   3.325   7.242   7.643
20182TIP3    H260424   3.333   7.328   7.767
20183TIP3   OH260425   2.344   5.639   9.024
20183TIP3    H160426   2.291   5.633   9.106
20183TIP3    H260427   2.279   5.680   8.964
20184TIP3   OH260428   2.379   7.063   9.113
20184TIP3    H160429   2.288   7.033   9.095
20184TIP3    H260430   2.388   7.042   9.207
20185TIP3   OH260431   2.554   7.094   8.660
20185TIP3    H160432   2.505   7.169   8.622
20185TIP3    H260433   2.640   7.108   8.615
20186TIP3   OH260434   3.003   7.341   8.798
20186TIP3    H160435   3.044   7.343   8.887
20186TIP3    H260436   3.069   7.391   8.745
20187TIP3   OH260437   3.180   7.491   8.654
20187TIP3    H160438   3.251   7.439   8.613
20187TIP3    H260439   3.232   7.548   8.715
20188TIP3   OH260440   3.975   5.856   8.755
20188TIP3    H160441   3.883   5.852   8.724
20188TIP3    H260442   4.003   5.762   8.743
20189TIP3   OH260443   2.235   7.354   8.682
20189TIP3    H160444   2.145   7.387   8.658
20189TIP3    H260445   2.243   7.390   8.771
20190TIP3   OH260446   2.470   7.332   8.539
20190TIP3    H160447   2.384   7.345   8.586
20190TIP3    H260448   2.448   7.365   8.450
20191TIP3   OH260449   2.896   7.362   8.337
20191TIP3    H160450   2.826   7.382   8.272
20191TIP3    H260451   2.907   7.450   8.380
20192TIP3   OH260452   3.163   7.303   8.388
20192TIP3    H160453   3.068   7.317   8.369
20192TIP3    H260454   3.203   7.380   8.346
20193TIP3   OH260455   3.376   7.496   8.306
20193TIP3    H160456   3.358   7.579   8.257
20193TIP3    H260457   3.397   7.434   8.233
20194TIP3   OH260458   2.144   7.148   8.428
20194TIP3    H160459   2.170   7.123   8.519
20194TIP3    H260460   2.215   7.104   8.378
20195TIP3   OH260461   2.336   7.019   8.283
20195TIP3    H160462   2.352   6.934   8.331
20195TIP3    H260463   2.427   7.056   8.279
20196TIP3   OH260464   2.602   7.115   8.285
20196TIP3    H160465   2.634   7.024   8.272
20196TIP3    H260466   2.644   7.135   8.371
20197TIP3   OH260467   3.180   5.771   8.375
20197TIP3    H160468   3.135   5.703   8.429
20197TIP3    H260469   3.249   5.719   8.329
20198TIP3   OH260470   3.705   5.649   8.280
20198TIP3    H160471   3.741   5.703   8.206
20198TIP3    H260472   3.610   5.667   8.275
20199TIP3   OH260473   3.799   5.751   8.044
20199TIP3    H160474   3.872   5.701   8.003
20199TIP3    H260475   3.831   5.843   8.029
20200TIP3   OH260476   2.429   5.480   8.390
20200TIP3    H160477   2.337   5.445   8.392
20200TIP3    H260478   2.479   5.395   8.388
20201TIP3   OH260479   2.212   5.348   8.037
20201TIP3    H160480   2.242   5.408   7.966
20201TIP3    H260481   2.183   5.411   8.105
20202TIP3   OH260482   2.871   5.511   8.270
20202TIP3    H160483   2.931   5.564   8.216
20202TIP3    H260484   2.885   5.549   8.358
20203TIP3   OH260485   3.424   5.657   8.256
20203TIP3    H160486   3.413   5.623   8.166
20203TIP3    H260487   3.407   5.576   8.310
20204TIP3   OH260488   3.448   5.579   7.817
20204TIP3    H160489   3.362   5.622   7.828
20204TIP3    H260490   3.433   5.494   7.865
20205TIP3   OH260491   1.932   6.916   7.821
20205TIP3    H160492   1.848   6.882   7.785
20205TIP3    H260493   1.918   7.011   7.807
20206TIP3   OH260494   2.330   5.509   7.802
20206TIP3    H160495   2.380   5.447   7.747
20206TIP3    H260496   2.401   5.564   7.840
20207TIP3   OH260497   2.845   5.681   7.901
20207TIP3    H160498   2.903   5.635   7.963
20207TIP3    H260499   2.865   5.774   7.926
20208TIP3   OH260500   2.704   7.111   7.402
20208TIP3    H160501   2.792   7.133   7.365
20208TIP3    H260502   2.681   7.035   7.342
20209TIP3   OH260503   3.421   7.226   7.494
20209TIP3    H160504   3.414   7.128   7.479
20209TIP3    H260505   3.378   7.259   7.413
20210TIP3   OH260506   2.632   5.760   9.277
20210TIP3    H160507   2.604   5.686   9.334
20210TIP3    H260508   2.727   5.764   9.301
20211TIP3   OH260509   2.884   5.749   9.380
20211TIP3    H160510   2.975   5.730   9.353
20211TIP3    H260511   2.875   5.696   9.462
20212TIP3   OH260512   2.008   6.945   7.460
20212TIP3    H160513   2.009   6.972   7.553
20212TIP3    H260514   2.097   6.904   7.448
20213TIP3   OH260515   3.708   5.816   9.189
20213TIP3    H160516   3.728   5.786   9.281
20213TIP3    H260517   3.796   5.812   9.147
20214TIP3   OH260518   3.651   7.371   8.681
20214TIP3    H160519   3.571   7.337   8.635
20214TIP3    H260520   3.629   7.466   8.684
20215TIP3   OH260521   4.915   6.742   7.449
20215TIP3    H160522   4.888   6.834   7.429
20215TIP3    H260523   4.837   6.694   7.417
20216TIP3   OH260524   4.915   6.742   7.826
20216TIP3    H160525   4.943   6.710   7.914
20216TIP3    H260526   4.871   6.664   7.789
20217TIP3   OH260527   4.215   6.638   8.192
20217TIP3    H160528   4.246   6.572   8.257
20217TIP3    H260529   4.291   6.698   8.188
20218TIP3   OH260530   5.156   7.041   7.509
20218TIP3    H160531   5.143   6.973   7.577
20218TIP3    H260532   5.185   7.117   7.562
20219TIP3   OH260533   4.184   7.048   7.923
20219TIP3    H160534   4.175   6.950   7.925
20219TIP3    H260535   4.281   7.055   7.915
20220TIP3   OH260536   3.892   6.253   7.707
20220TIP3    H160537   3.842   6.336   7.719
20220TIP3    H260538   3.822   6.197   7.670
20221TIP3   OH260539   3.953   6.540   7.875
20221TIP3    H160540   4.001   6.463   7.912
20221TIP3    H260541   4.008   6.563   7.799
20222TIP3   OH260542   4.806   7.508   7.526
20222TIP3    H160543   4.853   7.437   7.477
20222TIP3    H260544   4.798   7.469   7.613
20223TIP3   OH260545   4.713   6.968   7.877
20223TIP3    H160546   4.748   6.892   7.827
20223TIP3    H260547   4.797   7.011   7.900
20224TIP3   OH260548   5.724   6.289   7.874
20224TIP3    H160549   5.753   6.371   7.919
20224TIP3    H260550   5.744   6.311   7.781
20225TIP3   OH260551   5.126   6.471   7.911
20225TIP3    H160552   5.167   6.385   7.931
20225TIP3    H260553   5.094   6.457   7.820
20226TIP3   OH260554   4.461   6.129   7.876
20226TIP3    H160555   4.440   6.202   7.813
20226TIP3    H260556   4.413   6.056   7.832
20227TIP3   OH260557   5.155   6.219   7.500
20227TIP3    H160558   5.228   6.203   7.563
20227TIP3    H260559   5.205   6.256   7.425
20228TIP3   OH260560   4.096   6.332   7.982
20228TIP3    H160561   4.179   6.311   8.029
20228TIP3    H260562   4.107   6.276   7.903
20229TIP3   OH260563   4.538   6.530   7.772
20229TIP3    H160564   4.631   6.503   7.787
20229TIP3    H260565   4.497   6.446   7.741
20230TIP3   OH260566   5.798   6.496   8.043
20230TIP3    H160567   5.714   6.544   8.025
20230TIP3    H260568   5.808   6.515   8.138
20231TIP3   OH260569   4.459   6.112   8.309
20231TIP3    H160570   4.399   6.149   8.242
20231TIP3    H260571   4.408   6.130   8.391
20232TIP3   OH260572   4.809   6.964   7.318
20232TIP3    H160573   4.763   6.940   7.236
20232TIP3    H260574   4.765   7.048   7.341
20233TIP3   OH260575   4.566   6.887   8.108
20233TIP3    H160576   4.501   6.951   8.145
20233TIP3    H260577   4.606   6.940   8.036
20234TIP3   OH260578   5.370   6.220   7.667
20234TIP3    H160579   5.359   6.171   7.749
20234TIP3    H260580   5.422   6.297   7.696
20235TIP3   OH260581   4.329   6.228   8.094
20235TIP3    H160582   4.392   6.300   8.117
20235TIP3    H260583   4.378   6.186   8.019
20236TIP3   OH260584   4.392   7.079   8.203
20236TIP3    H160585   4.366   7.164   8.162
20236TIP3    H260586   4.314   7.064   8.260
20237TIP3   OH260587   3.790   6.768   7.441
20237TIP3    H160588   3.750   6.788   7.353
20237TIP3    H260589   3.816   6.857   7.472
20238TIP3   OH260590   5.230   7.286   7.682
20238TIP3    H160591   5.139   7.278   7.720
20238TIP3    H260592   5.221   7.370   7.633
20239TIP3   OH260593   5.518   6.190   8.041
20239TIP3    H160594   5.429   6.219   8.012
20239TIP3    H260595   5.575   6.221   7.968
20240TIP3   OH260596   4.818   5.834   8.023
20240TIP3    H160597   4.806   5.738   8.039
20240TIP3    H260598   4.740   5.870   8.069
20241TIP3   OH260599   4.932   7.334   7.356
20241TIP3    H160600   4.982   7.252   7.332
20241TIP3    H260601   4.990   7.401   7.313
20242TIP3   OH260602   5.072   7.119   7.257
20242TIP3    H160603   5.030   7.041   7.219
20242TIP3    H260604   5.107   7.082   7.342
20243TIP3   OH260605   5.456   7.202   8.022
20243TIP3    H160606   5.444   7.123   7.963
20243TIP3    H260607   5.438   7.275   7.960
20244TIP3   OH260608   4.745   6.593   7.278
20244TIP3    H160609   4.664   6.644   7.258
20244TIP3    H260610   4.790   6.593   7.191
20245TIP3   OH260611   4.705   6.378   6.997
20245TIP3    H160612   4.773   6.427   7.046
20245TIP3    H260613   4.761   6.313   6.950
20246TIP3   OH260614   5.650   6.838   7.866
20246TIP3    H160615   5.567   6.889   7.872
20246TIP3    H260616   5.678   6.861   7.775
20247TIP3   OH260617   5.092   6.676   7.252
20247TIP3    H160618   5.037   6.702   7.329
20247TIP3    H260619   5.175   6.650   7.297
20248TIP3   OH260620   5.329   6.718   8.159
20248TIP3    H160621   5.324   6.802   8.208
20248TIP3    H260622   5.242   6.719   8.114
20249TIP3   OH260623   4.325   6.675   7.666
20249TIP3    H160624   4.282   6.618   7.599
20249TIP3    H260625   4.402   6.621   7.693
20250TIP3   OH260626   4.454   7.086   7.816
20250TIP3    H160627   4.432   7.042   7.733
20250TIP3    H260628   4.545   7.053   7.833
20251TIP3   OH260629   4.467   6.644   8.022
20251TIP3    H160630   4.495   6.627   7.930
20251TIP3    H260631   4.506   6.732   8.042
20252TIP3   OH260632   4.986   7.284   7.798
20252TIP3    H160633   4.972   7.362   7.854
20252TIP3    H260634   4.973   7.209   7.860
20253TIP3   OH260635   4.598   7.203   8.345
20253TIP3    H160636   4.538   7.266   8.391
20253TIP3    H260637   4.532   7.149   8.296
20254TIP3   OH260638   4.937   6.532   7.077
20254TIP3    H160639   4.993   6.593   7.130
20254TIP3    H260640   4.962   6.558   6.985
20255TIP3   OH260641   4.352   6.760   8.443
20255TIP3    H160642   4.356   6.846   8.491
20255TIP3    H260643   4.257   6.740   8.452
20256TIP3   OH260644   4.676   7.215   7.354
20256TIP3    H160645   4.753   7.272   7.372
20256TIP3    H260646   4.613   7.276   7.312
20257TIP3   OH260647   4.394   7.374   8.432
20257TIP3    H160648   4.359   7.369   8.341
20257TIP3    H260649   4.314   7.351   8.486
20258TIP3   OH260650   5.449   5.776   7.124
20258TIP3    H160651   5.368   5.794   7.176
20258TIP3    H260652   5.460   5.861   7.076
20259TIP3   OH260653   4.192   6.517   7.472
20259TIP3    H160654   4.128   6.565   7.415
20259TIP3    H260655   4.145   6.433   7.485
20260TIP3   OH260656   5.247   7.144   6.670
20260TIP3    H160657   5.254   7.242   6.660
20260TIP3    H260658   5.341   7.118   6.660
20261TIP3   OH260659   3.974   6.901   8.378
20261TIP3    H160660   3.907   6.879   8.310
20261TIP3    H260661   4.009   6.813   8.403
20262TIP3   OH260662   3.826   7.092   8.015
20262TIP3    H160663   3.922   7.089   8.002
20262TIP3    H260664   3.815   7.174   8.065
20263TIP3   OH260665   5.693   7.547   8.065
20263TIP3    H160666   5.692   7.449   8.075
20263TIP3    H260667   5.608   7.569   8.111
20264TIP3   OH260668   4.798   7.331   8.202
20264TIP3    H160669   4.797   7.424   8.234
20264TIP3    H260670   4.726   7.292   8.256
20265TIP3   OH260671   4.557   7.461   7.154
20265TIP3    H160672   4.509   7.439   7.071
20265TIP3    H260673   4.523   7.550   7.174
20266TIP3   OH260674   3.995   7.312   7.536
20266TIP3    H160675   4.041   7.299   7.622
20266TIP3    H260676   3.935   7.235   7.537
20267TIP3   OH260677   4.761   7.362   6.794
20267TIP3    H160678   4.819   7.292   6.758
20267TIP3    H260679   4.794   7.371   6.886
20268TIP3   OH260680   4.809   7.411   7.064
20268TIP3    H160681   4.721   7.419   7.106
20268TIP3    H260682   4.860   7.367   7.134
20269TIP3   OH260683   5.583   6.679   8.339
20269TIP3    H160684   5.501   6.691   8.289
20269TIP3    H260685   5.597   6.583   8.330
20270TIP3   OH260686   4.178   7.085   8.370
20270TIP3    H160687   4.228   7.066   8.453
20270TIP3    H260688   4.104   7.020   8.377
20271TIP3   OH260689   4.577   5.909   8.149
20271TIP3    H160690   4.488   5.877   8.125
20271TIP3    H260691   4.553   5.991   8.195
20272TIP3   OH260692   5.109   6.024   8.345
20272TIP3    H160693   5.177   5.996   8.411
20272TIP3    H260694   5.025   6.003   8.391
20273TIP3   OH260695   5.353   6.453   8.265
20273TIP3    H160696   5.303   6.448   8.350
20273TIP3    H260697   5.325   6.539   8.229
20274TIP3   OH260698   5.010   6.580   6.820
20274TIP3    H160699   4.978   6.555   6.732
20274TIP3    H260700   5.085   6.638   6.796
20275TIP3   OH260701   4.724   5.958   7.121
20275TIP3    H160702   4.692   5.957   7.214
20275TIP3    H260703   4.685   5.874   7.090
20276TIP3   OH260704   4.510   6.422   8.171
20276TIP3    H160705   4.458   6.443   8.251
20276TIP3    H260706   4.494   6.503   8.117
20277TIP3   OH260707   4.393   6.309   7.684
20277TIP3    H160708   4.300   6.284   7.701
20277TIP3    H260709   4.406   6.268   7.595
20278TIP3   OH260710   4.883   6.396   7.411
20278TIP3    H160711   4.828   6.467   7.371
20278TIP3    H260712   4.937   6.367   7.334
20279TIP3   OH260713   5.058   6.676   8.500
20279TIP3    H160714   5.034   6.603   8.561
20279TIP3    H260715   5.152   6.688   8.521
20280TIP3   OH260716   5.042   6.426   7.651
20280TIP3    H160717   4.982   6.456   7.580
20280TIP3    H260718   5.073   6.342   7.609
20281TIP3   OH260719   4.329   6.453   8.379
20281TIP3    H160720   4.350   6.516   8.449
20281TIP3    H260721   4.315   6.370   8.430
20282TIP3   OH260722   4.377   5.928   7.089
20282TIP3    H160723   4.370   5.926   7.186
20282TIP3    H260724   4.299   5.982   7.066
20283TIP3   OH260725   3.921   5.976   7.958
20283TIP3    H160726   3.997   6.006   8.012
20283TIP3    H260727   3.961   5.942   7.878
20284TIP3   OH260728   3.898   5.957   7.478
20284TIP3    H160729   3.942   5.997   7.400
20284TIP3    H260730   3.836   6.029   7.501
20285TIP3   OH260731   5.054   6.672   8.076
20285TIP3    H160732   5.085   6.599   8.017
20285TIP3    H260733   5.024   6.620   8.153
20286TIP3   OH260734   4.718   6.132   7.746
20286TIP3    H160735   4.634   6.130   7.797
20286TIP3    H260736   4.784   6.133   7.817
20287TIP3   OH260737   4.154   6.187   7.754
20287TIP3    H160738   4.060   6.195   7.728
20287TIP3    H260739   4.176   6.095   7.731
20288TIP3   OH260740   4.427   6.183   7.441
20288TIP3    H160741   4.520   6.201   7.419
20288TIP3    H260742   4.378   6.207   7.359
20289TIP3   OH260743   5.211   6.207   7.946
20289TIP3    H160744   5.177   6.218   8.037
20289TIP3    H260745   5.146   6.145   7.910
20290TIP3   OH260746   4.264   6.214   7.223
20290TIP3    H160747   4.189   6.173   7.176
20290TIP3    H260748   4.315   6.251   7.147
20291TIP3   OH260749   5.379   7.896   8.165
20291TIP3    H160750   5.376   7.916   8.069
20291TIP3    H260751   5.455   7.949   8.194
20292TIP3   OH260752   4.339   7.006   8.588
20292TIP3    H160753   4.418   7.037   8.637
20292TIP3    H260754   4.274   7.004   8.661
20293TIP3   OH260755   4.804   6.459   7.844
20293TIP3    H160756   4.875   6.417   7.793
20293TIP3    H260757   4.814   6.418   7.931
20294TIP3   OH260758   4.329   5.947   7.720
20294TIP3    H160759   4.295   5.867   7.765
20294TIP3    H260760   4.380   5.910   7.647
20295TIP3   OH260761   4.780   6.354   8.133
20295TIP3    H160762   4.690   6.390   8.147
20295TIP3    H260763   4.837   6.415   8.184
20296TIP3   OH260764   4.519   6.747   7.229
20296TIP3    H160765   4.446   6.683   7.217
20296TIP3    H260766   4.500   6.781   7.320
20297TIP3   OH260767   5.417   6.982   7.862
20297TIP3    H160768   5.442   7.030   7.779
20297TIP3    H260769   5.331   6.941   7.836
20298TIP3   OH260770   4.975   6.062   7.084
20298TIP3    H160771   4.878   6.045   7.095
20298TIP3    H260772   4.985   6.155   7.111
20299TIP3   OH260773   4.922   7.068   8.224
20299TIP3    H160774   4.932   7.039   8.316
20299TIP3    H260775   4.877   7.153   8.233
20300TIP3   OH260776   5.046   6.305   7.191
20300TIP3    H160777   5.142   6.313   7.208
20300TIP3    H260778   5.026   6.386   7.139
20301TIP3   OH260779   4.211   6.770   7.906
20301TIP3    H160780   4.246   6.741   7.820
20301TIP3    H260781   4.244   6.702   7.966
20302TIP3   OH260782   4.662   6.897   7.048
20302TIP3    H160783   4.615   6.984   7.055
20302TIP3    H260784   4.607   6.842   7.108
20303TIP3   OH260785   4.088   6.689   8.516
20303TIP3    H160786   4.108   6.675   8.611
20303TIP3    H260787   4.018   6.623   8.501
20304TIP3   OH260788   4.813   6.803   8.537
20304TIP3    H160789   4.753   6.744   8.487
20304TIP3    H260790   4.900   6.769   8.509
20305TIP3   OH260791   5.079   7.328   8.118
20305TIP3    H160792   4.982   7.321   8.130
20305TIP3    H260793   5.104   7.378   8.199
20306TIP3   OH260794   5.490   6.394   7.027
20306TIP3    H160795   5.427   6.349   6.967
20306TIP3    H260796   5.484   6.483   6.988
20307TIP3   OH260797   5.706   7.255   8.109
20307TIP3    H160798   5.608   7.249   8.102
20307TIP3    H260799   5.731   7.224   8.020
20308TIP3   OH260800   5.178   7.216   6.933
20308TIP3    H160801   5.164   7.146   6.998
20308TIP3    H260802   5.198   7.169   6.851
20309TIP3   OH260803   5.182   6.844   7.779
20309TIP3    H160804   5.089   6.818   7.792
20309TIP3    H260805   5.217   6.766   7.733
20310TIP3   OH260806   4.308   7.071   7.529
20310TIP3    H160807   4.310   7.153   7.476
20310TIP3    H260808   4.213   7.055   7.535
20311TIP3   OH260809   3.874   6.375   7.232
20311TIP3    H160810   3.917   6.462   7.247
20311TIP3    H260811   3.794   6.384   7.288
20312TIP3   OH260812   4.452   6.840   7.476
20312TIP3    H160813   4.415   6.929   7.492
20312TIP3    H260814   4.412   6.790   7.549
20313TIP3   OH260815   4.578   7.417   7.999
20313TIP3    H160816   4.618   7.488   7.947
20313TIP3    H260817   4.655   7.383   8.047
20314TIP3   OH260818   4.231   7.310   7.384
20314TIP3    H160819   4.143   7.318   7.427
20314TIP3    H260820   4.260   7.404   7.384
20315TIP3   OH260821   4.970   7.051   7.955
20315TIP3    H160822   4.962   7.049   8.053
20315TIP3    H260823   5.048   6.996   7.941
20316TIP3   OH260824   4.939   6.939   6.838
20316TIP3    H160825   4.991   6.917   6.918
20316TIP3    H260826   4.849   6.916   6.867
20317TIP3   OH260827   5.216   7.588   8.010
20317TIP3    H160828   5.139   7.528   8.002
20317TIP3    H260829   5.200   7.650   7.935
20318TIP3   OH260830   5.277   7.417   6.650
20318TIP3    H160831   5.337   7.492   6.633
20318TIP3    H260832   5.199   7.466   6.683
20319TIP3   OH260833   4.302   6.195   8.526
20319TIP3    H160834   4.206   6.201   8.541
20319TIP3    H260835   4.328   6.133   8.597
20320TIP3   OH260836   5.099   6.875   7.055
20320TIP3    H160837   5.090   6.810   7.128
20320TIP3    H260838   5.196   6.876   7.044
20321TIP3   OH260839   4.019   7.282   8.158
20321TIP3    H160840   4.066   7.202   8.185
20321TIP3    H260841   4.048   7.345   8.225
20322TIP3   OH260842   4.310   6.924   6.835
20322TIP3    H160843   4.321   6.831   6.807
20322TIP3    H260844   4.290   6.913   6.930
20323TIP3   OH260845   4.260   6.928   7.107
20323TIP3    H160846   4.322   6.904   7.176
20323TIP3    H260847   4.259   7.026   7.113
20324TIP3   OH260848   3.993   6.625   7.314
20324TIP3    H160849   3.924   6.667   7.370
20324TIP3    H260850   4.003   6.694   7.245
20325TIP3   OH260851   5.137   6.259   8.205
20325TIP3    H160852   5.216   6.296   8.247
20325TIP3    H260853   5.120   6.179   8.258
20326TIP3   OH260854   5.017   6.012   7.367
20326TIP3    H160855   5.003   6.038   7.274
20326TIP3    H260856   5.055   6.094   7.405
20327TIP3   OH260857   4.522   7.129   7.061
20327TIP3    H160858   4.433   7.154   7.095
20327TIP3    H260859   4.534   7.196   6.993
20328TIP3   OH260860   4.711   6.188   7.472
20328TIP3    H160861   4.774   6.261   7.455
20328TIP3    H260862   4.713   6.183   7.570
20329TIP3   OH260863   4.976   6.510   8.281
20329TIP3    H160864   4.993   6.564   8.361
20329TIP3    H260865   5.032   6.432   8.298
20330TIP3   OH260866   4.854   5.921   7.578
20330TIP3    H160867   4.845   5.998   7.636
20330TIP3    H260868   4.913   5.958   7.508
20331TIP3   OH260869   4.264   7.201   7.127
20331TIP3    H160870   4.230   7.266   7.062
20331TIP3    H260871   4.245   7.246   7.212
20332TIP3   OH260872   4.363   5.914   7.365
20332TIP3    H160873   4.360   6.005   7.400
20332TIP3    H260874   4.459   5.896   7.374
20333TIP3   OH260875   5.619   6.410   8.259
20333TIP3    H160876   5.521   6.409   8.269
20333TIP3    H260877   5.627   6.367   8.173
20334TIP3   OH260878   5.269   6.604   7.649
20334TIP3    H160879   5.192   6.545   7.662
20334TIP3    H260880   5.340   6.556   7.698
20335TIP3   OH260881   3.980   6.835   7.124
20335TIP3    H160882   4.036   6.914   7.123
20335TIP3    H260883   4.023   6.783   7.053
20336TIP3   OH260884   3.926   6.107   7.250
20336TIP3    H160885   3.926   6.205   7.247
20336TIP3    H260886   3.838   6.087   7.216
20337TIP3   OH260887   5.236   7.560   7.602
20337TIP3    H160888   5.192   7.607   7.527
20337TIP3    H260889   5.330   7.579   7.579
20338TIP3   OH260890   4.313   5.828   8.128
20338TIP3    H160891   4.281   5.795   8.041
20338TIP3    H260892   4.302   5.749   8.185
20339TIP3   OH260893   3.856   7.051   7.512
20339TIP3    H160894   3.777   7.079   7.560
20339TIP3    H260895   3.835   7.086   7.422
20340TIP3   OH260896   4.006   7.584   8.577
20340TIP3    H160897   4.092   7.582   8.625
20340TIP3    H260898   3.983   7.490   8.576
20341TIP3   OH260899   4.495   7.556   8.621
20341TIP3    H160900   4.587   7.530   8.629
20341TIP3    H260901   4.465   7.498   8.547
20342TIP3   OH260902   4.473   7.130   6.755
20342TIP3    H160903   4.414   7.060   6.791
20342TIP3    H260904   4.545   7.074   6.720
20343TIP3   OH260905   5.129   7.459   8.356
20343TIP3    H160906   5.118   7.388   8.423
20343TIP3    H260907   5.206   7.508   8.389
20344TIP3   OH260908   4.908   7.170   6.662
20344TIP3    H160909   4.955   7.111   6.723
20344TIP3    H260910   4.968   7.173   6.585
20345TIP3   OH260911   4.139   6.994   8.779
20345TIP3    H160912   4.155   6.898   8.783
20345TIP3    H260913   4.050   6.996   8.736
20346TIP3   OH260914   4.117   6.649   6.970
20346TIP3    H160915   4.170   6.615   7.043
20346TIP3    H260916   4.185   6.653   6.899
20347TIP3   OH260917   4.748   7.078   8.551
20347TIP3    H160918   4.703   7.091   8.466
20347TIP3    H260919   4.778   6.984   8.546
20348TIP3   OH260920   4.626   6.843   6.778
20348TIP3    H160921   4.624   6.857   6.874
20348TIP3    H260922   4.620   6.745   6.773
20349TIP3   OH260923   5.241   7.083   8.159
20349TIP3    H160924   5.311   7.132   8.113
20349TIP3    H260925   5.166   7.144   8.147
20350TIP3   OH260926   4.258   6.728   8.759
20350TIP3    H160927   4.329   6.664   8.743
20350TIP3    H260928   4.281   6.760   8.849
20351TIP3   OH260929   4.330   6.547   7.198
20351TIP3    H160930   4.296   6.506   7.279
20351TIP3    H260931   4.360   6.469   7.146
20352TIP3   OH260932   4.593   6.614   8.424
20352TIP3    H160933   4.515   6.672   8.428
20352TIP3    H260934   4.639   6.646   8.343
20353TIP3   OH260935   4.423   6.338   7.036
20353TIP3    H160936   4.395   6.342   6.942
20353TIP3    H260937   4.519   6.348   7.027
20354TIP3   OH260938   5.110   7.015   8.558
20354TIP3    H160939   5.189   6.992   8.508
20354TIP3    H260940   5.107   6.946   8.626
20355TIP3   OH260941   5.252   6.675   6.693
20355TIP3    H160942   5.224   6.627   6.613
20355TIP3    H260943   5.218   6.765   6.671
20356TIP3   OH260944   4.716   6.400   8.550
20356TIP3    H160945   4.715   6.319   8.495
20356TIP3    H260946   4.672   6.465   8.492
20357TIP3   OH260947   4.718   6.186   8.355
20357TIP3    H160948   4.744   6.227   8.270
20357TIP3    H260949   4.624   6.163   8.338
20358TIP3   OH260950   4.750   6.725   8.229
20358TIP3    H160951   4.829   6.730   8.174
20358TIP3    H260952   4.691   6.791   8.186
20359TIP3   OH260953   5.330   6.690   8.612
20359TIP3    H160954   5.376   6.606   8.622
20359TIP3    H260955   5.399   6.748   8.577
20360TIP3   OH260956   5.370   6.943   8.349
20360TIP3    H160957   5.312   6.995   8.288
20360TIP3    H260958   5.457   6.961   8.307
20361TIP3   OH260959   4.593   6.516   8.778
20361TIP3    H160960   4.524   6.448   8.792
20361TIP3    H260961   4.628   6.489   8.690
20362TIP3   OH260962   4.851   5.951   8.420
20362TIP3    H160963   4.802   6.034   8.399
20362TIP3    H260964   4.780   5.884   8.410
20363TIP3   OH260965   4.976   6.458   8.638
20363TIP3    H160966   4.965   6.445   8.734
20363TIP3    H260967   4.886   6.432   8.609
20364TIP3   OH260968   5.216   6.404   8.493
20364TIP3    H160969   5.140   6.406   8.554
20364TIP3    H260970   5.288   6.372   8.551
20365TIP3   OH260971   5.448   6.345   8.645
20365TIP3    H160972   5.458   6.249   8.665
20365TIP3    H260973   5.442   6.384   8.735
20366TIP3   OH260974   4.434   6.295   8.829
20366TIP3    H160975   4.440   6.204   8.794
20366TIP3    H260976   4.468   6.281   8.920
20367TIP3   OH260977   4.947   5.961   8.678
20367TIP3    H160978   5.014   5.890   8.673
20367TIP3    H260979   4.906   5.954   8.589
20368TIP3   OH260980   5.011   6.176   8.838
20368TIP3    H160981   4.988   6.105   8.774
20368TIP3    H260982   4.933   6.235   8.832
20369TIP3   OH260983   4.232   7.408   6.944
20369TIP3    H160984   4.325   7.407   6.916
20369TIP3    H260985   4.191   7.445   6.864
20370TIP3   OH260986   3.713   6.780   7.171
20370TIP3    H160987   3.803   6.807   7.145
20370TIP3    H260988   3.701   6.701   7.114
20371TIP3   OH260989   3.623   7.400   7.568
20371TIP3    H160990   3.556   7.337   7.532
20371TIP3    H260991   3.668   7.342   7.634
20372TIP3   OH260992   3.761   7.255   7.755
20372TIP3    H160993   3.749   7.177   7.812
20372TIP3    H260994   3.810   7.313   7.815
20373TIP3   OH260995   5.488   7.651   7.550
20373TIP3    H160996   5.525   7.690   7.631
20373TIP3    H260997   5.556   7.674   7.484
20374TIP3   OH260998   5.520   7.673   7.841
20374TIP3    H160999   5.474   7.588   7.827
20374TIP3    H261000   5.594   7.642   7.895
20375TIP3   OH261001   5.565   7.348   8.410
20375TIP3    H161002   5.491   7.353   8.473
20375TIP3    H261003   5.603   7.437   8.415
20376TIP3   OH261004   5.381   6.859   7.030
20376TIP3    H161005   5.449   6.926   7.005
20376TIP3    H261006   5.422   6.820   7.110
20377TIP3   OH261007   5.508   6.727   7.233
20377TIP3    H161008   5.442   6.685   7.292
20377TIP3    H261009   5.570   6.768   7.297
20378TIP3   OH261010   5.558   7.112   7.670
20378TIP3    H161011   5.612   7.053   7.615
20378TIP3    H261012   5.563   7.196   7.619
20379TIP3   OH261013   5.395   7.421   7.863
20379TIP3    H161014   5.322   7.461   7.913
20379TIP3    H261015   5.347   7.371   7.793
20380TIP3   OH261016   5.447   6.635   6.881
20380TIP3    H161017   5.375   6.639   6.813
20380TIP3    H261018   5.420   6.711   6.936
20381TIP3   OH261019   5.321   6.307   6.834
20381TIP3    H161020   5.273   6.350   6.762
20381TIP3    H261021   5.293   6.214   6.823
20382TIP3   OH261022   5.324   6.583   7.381
20382TIP3    H161023   5.330   6.486   7.378
20382TIP3    H261024   5.310   6.599   7.477
20383TIP3   OH261025   3.950   6.657   8.127
20383TIP3    H161026   3.948   6.628   8.033
20383TIP3    H261027   4.047   6.659   8.143
20384TIP3   OH261028   5.612   7.008   8.238
20384TIP3    H161029   5.685   6.943   8.229
20384TIP3    H261030   5.637   7.076   8.173
20385TIP3   OH261031   5.800   6.818   8.258
20385TIP3    H161032   5.724   6.767   8.295
20385TIP3    H261033   5.871   6.751   8.271
20386TIP3   OH261034   5.262   6.041   6.822
20386TIP3    H161035   5.336   6.012   6.878
20386TIP3    H261036   5.188   5.985   6.849
20387TIP3   OH261037   5.318   6.299   7.278
20387TIP3    H161038   5.358   6.210   7.293
20387TIP3    H261039   5.377   6.332   7.208
20388TIP3   OH261040   5.482   6.475   7.771
20388TIP3    H161041   5.568   6.503   7.731
20388TIP3    H261042   5.493   6.512   7.861
20389TIP3   OH261043   5.548   6.618   8.004
20389TIP3    H161044   5.470   6.651   8.052
20389TIP3    H261045   5.580   6.699   7.959
20390TIP3   OH261046   4.166   6.346   8.803
20390TIP3    H161047   4.264   6.338   8.804
20390TIP3    H261048   4.141   6.261   8.845
20391TIP3   OH261049   6.001   6.208   8.560
20391TIP3    H161050   6.058   6.141   8.517
20391TIP3    H261051   5.974   6.264   8.484
20392TIP3   OH261052   5.429   6.049   7.313
20392TIP3    H161053   5.475   6.033   7.397
20392TIP3    H261054   5.367   5.972   7.312
20393TIP3   OH261055   4.128   6.035   8.131
20393TIP3    H161056   4.191   5.962   8.143
20393TIP3    H261057   4.189   6.111   8.128
20394TIP3   OH261058   3.933   6.310   8.208
20394TIP3    H161059   3.980   6.303   8.123
20394TIP3    H261060   3.959   6.399   8.236
20395TIP3   OH261061   5.874   6.351   8.366
20395TIP3    H161062   5.786   6.388   8.388
20395TIP3    H261063   5.847   6.278   8.307
20396TIP3   OH261064   5.510   5.987   6.945
20396TIP3    H161065   5.550   5.913   6.895
20396TIP3    H261066   5.578   6.057   6.936
20397TIP3   OH261067   3.913   5.814   7.707
20397TIP3    H161068   3.819   5.813   7.733
20397TIP3    H261069   3.912   5.873   7.628
20398TIP3   OH261070   5.069   7.522   7.219
20398TIP3    H161071   5.111   7.500   7.133
20398TIP3    H261072   5.137   7.579   7.257
20399TIP3   OH261073   4.134   5.894   8.522
20399TIP3    H161074   4.083   5.888   8.605
20399TIP3    H261075   4.066   5.933   8.462
20400TIP3   OH261076   4.174   7.321   8.601
20400TIP3    H161077   4.083   7.291   8.581
20400TIP3    H261078   4.181   7.299   8.695
20401TIP3   OH261079   4.351   7.351   8.148
20401TIP3    H161080   4.301   7.425   8.109
20401TIP3    H261081   4.436   7.366   8.102
20402TIP3   OH261082   4.799   7.598   8.285
20402TIP3    H161083   4.841   7.599   8.374
20402TIP3    H261084   4.865   7.648   8.232
20403TIP3   OH261085   4.976   7.749   8.141
20403TIP3    H161086   5.046   7.696   8.099
20403TIP3    H261087   5.029   7.805   8.202
20404TIP3   OH261088   5.771   6.112   8.242
20404TIP3    H161089   5.679   6.107   8.211
20404TIP3    H261090   5.800   6.019   8.230
20405TIP3   OH261091   4.031   7.614   8.167
20405TIP3    H161092   3.942   7.647   8.143
20405TIP3    H261093   4.033   7.636   8.261
20406TIP3   OH261094   4.267   7.590   8.027
20406TIP3    H161095   4.180   7.602   8.073
20406TIP3    H261096   4.244   7.621   7.936
20407TIP3   OH261097   4.692   7.619   7.824
20407TIP3    H161098   4.622   7.638   7.759
20407TIP3    H261099   4.703   7.707   7.866
20408TIP3   OH261100   4.959   7.560   7.877
20408TIP3    H161101   4.865   7.573   7.856
20408TIP3    H261102   5.000   7.635   7.831
20409TIP3   OH261103   5.172   7.753   7.793
20409TIP3    H161104   5.154   7.836   7.743
20409TIP3    H261105   5.195   7.691   7.720
20410TIP3   OH261106   3.941   7.406   7.916
20410TIP3    H161107   3.968   7.379   8.007
20410TIP3    H261108   4.011   7.361   7.864
20411TIP3   OH261109   4.132   7.276   7.771
20411TIP3    H161110   4.148   7.191   7.818
20411TIP3    H261111   4.222   7.312   7.765
20412TIP3   OH261112   4.399   7.373   7.771
20412TIP3    H161113   4.430   7.282   7.756
20412TIP3    H261114   4.440   7.391   7.858
20413TIP3   OH261115   4.976   6.027   7.862
20413TIP3    H161116   4.931   5.959   7.915
20413TIP3    H261117   5.045   5.976   7.816
20414TIP3   OH261118   5.501   5.907   7.767
20414TIP3    H161119   5.536   5.960   7.692
20414TIP3    H261120   5.405   5.924   7.761
20415TIP3   OH261121   5.595   6.009   7.530
20415TIP3    H161122   5.668   5.958   7.490
20415TIP3    H261123   5.627   6.101   7.516
20416TIP3   OH261124   4.225   5.736   7.879
20416TIP3    H161125   4.133   5.703   7.879
20416TIP3    H261126   4.274   5.651   7.876
20417TIP3   OH261127   4.009   5.604   7.524
20417TIP3    H161128   4.039   5.664   7.453
20417TIP3    H261129   3.979   5.668   7.592
20418TIP3   OH261130   4.666   5.769   7.757
20418TIP3    H161131   4.727   5.820   7.702
20418TIP3    H261132   4.684   5.805   7.845
20419TIP3   OH261133   5.220   5.914   7.743
20419TIP3    H161134   5.211   5.878   7.653
20419TIP3    H261135   5.204   5.833   7.797
20420TIP3   OH261136   5.245   5.835   7.304
20420TIP3    H161137   5.158   5.878   7.314
20420TIP3    H261138   5.230   5.751   7.352
20421TIP3   OH261139   3.727   7.175   7.309
20421TIP3    H161140   3.644   7.140   7.273
20421TIP3    H261141   3.715   7.269   7.286
20422TIP3   OH261142   4.126   5.766   7.288
20422TIP3    H161143   4.177   5.704   7.234
20422TIP3    H261144   4.197   5.822   7.327
20423TIP3   OH261145   4.641   5.938   7.388
20423TIP3    H161146   4.699   5.892   7.449
20423TIP3    H261147   4.661   6.031   7.413
20424TIP3   OH261148   4.501   7.368   6.887
20424TIP3    H161149   4.589   7.388   6.850
20424TIP3    H261150   4.477   7.292   6.829
20425TIP3   OH261151   5.198   7.484   6.986
20425TIP3    H161152   5.205   7.388   6.970
20425TIP3    H261153   5.179   7.517   6.897
20426TIP3   OH261154   4.432   6.018   8.770
20426TIP3    H161155   4.399   5.947   8.827
20426TIP3    H261156   4.527   6.018   8.796
20427TIP3   OH261157   4.681   6.014   8.889
20427TIP3    H161158   4.765   5.987   8.849
20427TIP3    H261159   4.667   5.944   8.956
20428TIP3   OH261160   3.805   7.205   6.953
20428TIP3    H161161   3.808   7.234   7.045
20428TIP3    H261162   3.893   7.165   6.939
20429TIP3   OH261163   5.504   6.073   8.677
20429TIP3    H161164   5.524   6.042   8.768
20429TIP3    H261165   5.592   6.069   8.634
20430TIP3   OH261166   5.447   7.627   8.170
20430TIP3    H161167   5.369   7.592   8.121
20430TIP3    H261168   5.424   7.723   8.171
20431TIP3   OH261169   6.712   6.998   6.935
20431TIP3    H161170   6.685   7.091   6.916
20431TIP3    H261171   6.631   6.951   6.910
20432TIP3   OH261172   6.708   6.998   7.315
20432TIP3    H161173   6.740   6.969   7.402
20432TIP3    H261174   6.667   6.917   7.281
20433TIP3   OH261175   6.012   6.894   7.679
20433TIP3    H161176   6.042   6.828   7.743
20433TIP3    H261177   6.089   6.953   7.675
20434TIP3   OH261178   6.952   7.299   6.996
20434TIP3    H161179   6.941   7.229   7.062
20434TIP3    H261180   6.980   7.374   7.051
20435TIP3   OH261181   5.984   7.302   7.415
20435TIP3    H161182   5.973   7.204   7.416
20435TIP3    H261183   6.080   7.309   7.400
20436TIP3   OH261184   5.689   6.511   7.192
20436TIP3    H161185   5.638   6.593   7.207
20436TIP3    H261186   5.618   6.453   7.159
20437TIP3   OH261187   5.748   6.796   7.361
20437TIP3    H161188   5.796   6.720   7.400
20437TIP3    H261189   5.806   6.821   7.288
20438TIP3   OH261190   6.600   7.761   7.011
20438TIP3    H161191   6.649   7.691   6.964
20438TIP3    H261192   6.594   7.726   7.100
20439TIP3   OH261193   6.510   7.225   7.363
20439TIP3    H161194   6.545   7.146   7.317
20439TIP3    H261195   6.595   7.267   7.386
20440TIP3   OH261196   7.521   6.548   7.361
20440TIP3    H161197   7.548   6.630   7.407
20440TIP3    H261198   7.540   6.570   7.269
20441TIP3   OH261199   6.922   6.729   7.397
20441TIP3    H161200   6.963   6.644   7.420
20441TIP3    H261201   6.891   6.712   7.306
20442TIP3   OH261202   6.257   6.386   7.362
20442TIP3    H161203   6.235   6.458   7.300
20442TIP3    H261204   6.209   6.312   7.319
20443TIP3   OH261205   6.951   6.475   6.985
20443TIP3    H161206   7.023   6.458   7.050
20443TIP3    H261207   7.004   6.512   6.912
20444TIP3   OH261208   5.893   6.589   7.468
20444TIP3    H161209   5.975   6.567   7.516
20444TIP3    H261210   5.903   6.532   7.390
20445TIP3   OH261211   6.335   6.787   7.257
20445TIP3    H161212   6.427   6.759   7.275
20445TIP3    H261213   6.294   6.702   7.229
20446TIP3   OH261214   7.593   6.756   7.531
20446TIP3    H161215   7.508   6.802   7.512
20446TIP3    H261216   7.592   6.760   7.628
20447TIP3   OH261217   6.256   6.369   7.796
20447TIP3    H161218   6.194   6.405   7.729
20447TIP3    H261219   6.205   6.386   7.878
20448TIP3   OH261220   6.605   7.221   6.806
20448TIP3    H161221   6.559   7.198   6.725
20448TIP3    H261222   6.563   7.307   6.828
20449TIP3   OH261223   6.362   7.145   7.593
20449TIP3    H161224   6.296   7.207   7.632
20449TIP3    H261225   6.401   7.197   7.521
20450TIP3   OH261226   7.164   6.477   7.154
20450TIP3    H161227   7.155   6.427   7.236
20450TIP3    H261228   7.218   6.553   7.182
20451TIP3   OH261229   6.125   6.484   7.581
20451TIP3    H161230   6.188   6.557   7.604
20451TIP3    H261231   6.175   6.442   7.507
20452TIP3   OH261232   6.190   7.336   7.693
20452TIP3    H161233   6.160   7.416   7.647
20452TIP3    H261234   6.111   7.320   7.749
20453TIP3   OH261235   5.585   7.029   6.923
20453TIP3    H161236   5.538   7.053   6.841
20453TIP3    H261237   5.599   7.116   6.965
20454TIP3   OH261238   7.025   7.542   7.166
20454TIP3    H161239   6.935   7.534   7.204
20454TIP3    H261240   7.018   7.628   7.120
20455TIP3   OH261241   7.314   6.446   7.526
20455TIP3    H161242   7.225   6.477   7.500
20455TIP3    H261243   7.371   6.477   7.453
20456TIP3   OH261244   6.613   6.090   7.508
20456TIP3    H161245   6.603   5.995   7.527
20456TIP3    H261246   6.535   6.127   7.555
20457TIP3   OH261247   6.730   7.590   6.843
20457TIP3    H161248   6.779   7.509   6.819
20457TIP3    H261249   6.788   7.657   6.799
20458TIP3   OH261250   6.870   7.375   6.744
20458TIP3    H161251   6.830   7.296   6.705
20458TIP3    H261252   6.904   7.340   6.829
20459TIP3   OH261253   7.252   7.458   7.509
20459TIP3    H161254   7.241   7.379   7.451
20459TIP3    H261255   7.234   7.531   7.446
20460TIP3   OH261256   6.539   6.844   6.762
20460TIP3    H161257   6.463   6.902   6.741
20460TIP3    H261258   6.590   6.843   6.678
20461TIP3   OH261259   7.450   7.099   7.355
20461TIP3    H161260   7.364   7.146   7.361
20461TIP3    H261261   7.473   7.118   7.261
20462TIP3   OH261262   6.890   6.933   6.739
20462TIP3    H161263   6.835   6.957   6.817
20462TIP3    H261264   6.973   6.906   6.783
20463TIP3   OH261265   7.124   6.972   7.640
20463TIP3    H161266   7.120   7.046   7.702
20463TIP3    H261267   7.035   6.977   7.600
20464TIP3   OH261268   6.123   6.931   7.151
20464TIP3    H161269   6.082   6.873   7.084
20464TIP3    H261270   6.199   6.878   7.181
20465TIP3   OH261271   6.254   7.344   7.302
20465TIP3    H161272   6.228   7.298   7.221
20465TIP3    H261273   6.343   7.309   7.318
20466TIP3   OH261274   6.263   6.901   7.508
20466TIP3    H161275   6.293   6.884   7.417
20466TIP3    H261276   6.302   6.988   7.529
20467TIP3   OH261277   6.782   7.541   7.284
20467TIP3    H161278   6.769   7.619   7.339
20467TIP3    H261279   6.770   7.466   7.346
20468TIP3   OH261280   6.393   7.469   7.829
20468TIP3    H161281   6.328   7.524   7.877
20468TIP3    H261282   6.331   7.411   7.779
20469TIP3   OH261283   6.734   6.795   6.563
20469TIP3    H161284   6.792   6.853   6.617
20469TIP3    H261285   6.761   6.820   6.472
20470TIP3   OH261286   6.147   7.019   7.928
20470TIP3    H161287   6.150   7.103   7.978
20470TIP3    H261288   6.053   6.996   7.938
20471TIP3   OH261289   6.473   7.471   6.836
20471TIP3    H161290   6.548   7.527   6.861
20471TIP3    H261291   6.408   7.535   6.803
20472TIP3   OH261292   6.195   7.647   7.918
20472TIP3    H161293   6.160   7.634   7.827
20472TIP3    H261294   6.118   7.621   7.973
20473TIP3   OH261295   7.246   6.034   6.611
20473TIP3    H161296   7.165   6.052   6.663
20473TIP3    H261297   7.256   6.118   6.561
20474TIP3   OH261298   5.991   6.772   6.951
20474TIP3    H161299   5.922   6.820   6.900
20474TIP3    H261300   5.944   6.692   6.977
20475TIP3   OH261301   7.043   7.400   6.159
20475TIP3    H161302   7.051   7.497   6.145
20475TIP3    H261303   7.136   7.372   6.147
20476TIP3   OH261304   5.771   7.159   7.865
20476TIP3    H161305   5.706   7.138   7.795
20476TIP3    H261306   5.805   7.070   7.889
20477TIP3   OH261307   5.634   7.340   7.536
20477TIP3    H161308   5.702   7.345   7.468
20477TIP3    H261309   5.597   7.429   7.534
20478TIP3   OH261310   7.477   7.789   7.556
20478TIP3    H161311   7.476   7.692   7.567
20478TIP3    H261312   7.391   7.814   7.595
20479TIP3   OH261313   6.599   7.584   7.687
20479TIP3    H161314   6.612   7.670   7.727
20479TIP3    H261315   6.521   7.548   7.735
20480TIP3   OH261316   6.352   7.719   6.639
20480TIP3    H161317   6.305   7.700   6.556
20480TIP3    H261318   6.320   7.808   6.663
20481TIP3   OH261319   6.555   7.616   6.282
20481TIP3    H161320   6.614   7.548   6.245
20481TIP3    H261321   6.590   7.626   6.373
20482TIP3   OH261322   6.605   7.665   6.552
20482TIP3    H161323   6.517   7.675   6.596
20482TIP3    H261324   6.657   7.626   6.624
20483TIP3   OH261325   7.390   6.944   7.807
20483TIP3    H161326   7.294   6.960   7.810
20483TIP3    H261327   7.392   6.857   7.850
20484TIP3   OH261328   5.974   7.344   7.863
20484TIP3    H161329   6.025   7.318   7.942
20484TIP3    H261330   5.901   7.280   7.862
20485TIP3   OH261331   6.373   6.165   7.636
20485TIP3    H161332   6.283   6.134   7.612
20485TIP3    H261333   6.349   6.247   7.683
20486TIP3   OH261334   6.907   6.281   7.831
20486TIP3    H161335   6.976   6.254   7.896
20486TIP3    H261336   6.824   6.260   7.878
20487TIP3   OH261337   7.138   6.700   7.759
20487TIP3    H161338   7.138   6.732   7.852
20487TIP3    H261339   7.126   6.784   7.712
20488TIP3   OH261340   6.802   6.839   6.304
20488TIP3    H161341   6.772   6.819   6.213
20488TIP3    H261342   6.884   6.889   6.285
20489TIP3   OH261343   6.515   6.221   6.607
20489TIP3    H161344   6.488   6.215   6.701
20489TIP3    H261345   6.481   6.135   6.576
20490TIP3   OH261346   6.305   6.678   7.657
20490TIP3    H161347   6.254   6.699   7.738
20490TIP3    H261348   6.289   6.759   7.604
20491TIP3   OH261349   6.187   6.566   7.171
20491TIP3    H161350   6.095   6.539   7.190
20491TIP3    H261351   6.201   6.523   7.084
20492TIP3   OH261352   6.681   6.651   6.897
20492TIP3    H161353   6.626   6.722   6.857
20492TIP3    H261354   6.735   6.623   6.821
20493TIP3   OH261355   6.853   6.938   7.985
20493TIP3    H161356   6.829   6.865   8.047
20493TIP3    H261357   6.951   6.928   7.988
20494TIP3   OH261358   6.839   6.681   7.138
20494TIP3    H161359   6.779   6.711   7.066
20494TIP3    H261360   6.870   6.598   7.097
20495TIP3   OH261361   6.124   6.709   7.866
20495TIP3    H161362   6.150   6.770   7.937
20495TIP3    H261363   6.111   6.626   7.916
20496TIP3   OH261364   6.179   6.192   6.573
20496TIP3    H161365   6.171   6.184   6.671
20496TIP3    H261366   6.093   6.230   6.551
20497TIP3   OH261367   5.717   6.234   7.444
20497TIP3    H161368   5.793   6.262   7.498
20497TIP3    H261369   5.757   6.196   7.365
20498TIP3   OH261370   5.695   6.214   6.963
20498TIP3    H161371   5.740   6.255   6.887
20498TIP3    H261372   5.632   6.285   6.987
20499TIP3   OH261373   6.844   6.930   7.560
20499TIP3    H161374   6.879   6.857   7.504
20499TIP3    H261375   6.821   6.879   7.641
20500TIP3   OH261376   6.512   6.392   7.232
20500TIP3    H161377   6.431   6.387   7.285
20500TIP3    H261378   6.581   6.388   7.301
20501TIP3   OH261379   5.951   6.443   7.239
20501TIP3    H161380   5.856   6.451   7.215
20501TIP3    H261381   5.972   6.351   7.219
20502TIP3   OH261382   6.221   6.438   6.930
20502TIP3    H161383   6.316   6.454   6.913
20502TIP3    H261384   6.176   6.465   6.847
20503TIP3   OH261385   7.006   6.465   7.432
20503TIP3    H161386   6.973   6.476   7.524
20503TIP3    H261387   6.942   6.402   7.396
20504TIP3   OH261388   6.060   6.479   6.708
20504TIP3    H161389   5.979   6.430   6.687
20504TIP3    H261390   6.086   6.508   6.619
20505TIP3   OH261391   7.181   8.152   7.657
20505TIP3    H161392   7.175   8.174   7.562
20505TIP3    H261393   7.256   8.211   7.683
20506TIP3   OH261394   6.136   7.264   8.077
20506TIP3    H161395   6.215   7.292   8.127
20506TIP3    H261396   6.070   7.258   8.148
20507TIP3   OH261397   6.600   6.716   7.330
20507TIP3    H161398   6.672   6.673   7.281
20507TIP3    H261399   6.609   6.676   7.419
20508TIP3   OH261400   6.124   6.203   7.206
20508TIP3    H161401   6.090   6.124   7.253
20508TIP3    H261402   6.181   6.164   7.139
20509TIP3   OH261403   6.577   6.613   7.617
20509TIP3    H161404   6.487   6.647   7.634
20509TIP3    H261405   6.634   6.670   7.671
20510TIP3   OH261406   6.316   7.004   6.715
20510TIP3    H161407   6.242   6.940   6.707
20510TIP3    H261408   6.299   7.040   6.806
20511TIP3   OH261409   7.215   7.240   7.346
20511TIP3    H161410   7.238   7.288   7.263
20511TIP3    H261411   7.129   7.198   7.323
20512TIP3   OH261412   6.767   6.324   6.565
20512TIP3    H161413   6.673   6.304   6.584
20512TIP3    H261414   6.781   6.414   6.600
20513TIP3   OH261415   6.719   7.322   7.710
20513TIP3    H161416   6.731   7.287   7.799
20513TIP3    H261417   6.672   7.406   7.724
20514TIP3   OH261418   6.840   6.563   6.676
20514TIP3    H161419   6.936   6.570   6.694
20514TIP3    H261420   6.822   6.644   6.625
20515TIP3   OH261421   6.007   7.024   7.392
20515TIP3    H161422   6.044   6.995   7.306
20515TIP3    H261423   6.041   6.958   7.453
20516TIP3   OH261424   6.453   7.152   6.531
20516TIP3    H161425   6.410   7.240   6.541
20516TIP3    H261426   6.402   7.100   6.596
20517TIP3   OH261427   5.884   6.945   8.003
20517TIP3    H161428   5.903   6.929   8.098
20517TIP3    H261429   5.815   6.879   7.986
20518TIP3   OH261430   6.611   7.062   8.020
20518TIP3    H161431   6.554   6.999   7.973
20518TIP3    H261432   6.700   7.026   7.999
20519TIP3   OH261433   6.878   7.585   7.605
20519TIP3    H161434   6.782   7.571   7.611
20519TIP3    H261435   6.896   7.637   7.686
20520TIP3   OH261436   7.285   6.651   6.516
20520TIP3    H161437   7.221   6.606   6.456
20520TIP3    H261438   7.282   6.739   6.474
20521TIP3   OH261439   7.501   7.508   7.599
20521TIP3    H161440   7.403   7.501   7.591
20521TIP3    H261441   7.527   7.479   7.509
20522TIP3   OH261442   6.979   7.472   6.422
20522TIP3    H161443   6.960   7.400   6.485
20522TIP3    H261444   6.996   7.426   6.338
20523TIP3   OH261445   6.978   7.102   7.264
20523TIP3    H161446   6.886   7.074   7.278
20523TIP3    H261447   7.015   7.023   7.220
20524TIP3   OH261448   6.100   7.326   7.013
20524TIP3    H161449   6.101   7.409   6.963
20524TIP3    H261450   6.006   7.318   7.031
20525TIP3   OH261451   5.669   6.634   6.719
20525TIP3    H161452   5.712   6.720   6.739
20525TIP3    H261453   5.590   6.640   6.778
20526TIP3   OH261454   6.248   7.097   6.960
20526TIP3    H161455   6.208   7.185   6.977
20526TIP3    H261456   6.210   7.046   7.034
20527TIP3   OH261457   6.377   7.677   7.492
20527TIP3    H161458   6.412   7.745   7.432
20527TIP3    H261459   6.458   7.634   7.523
20528TIP3   OH261460   6.022   7.563   6.872
20528TIP3    H161461   5.934   7.561   6.915
20528TIP3    H261462   6.045   7.658   6.877
20529TIP3   OH261463   6.768   7.310   7.442
20529TIP3    H161464   6.759   7.304   7.540
20529TIP3    H261465   6.844   7.252   7.427
20530TIP3   OH261466   6.736   7.195   6.327
20530TIP3    H161467   6.790   7.172   6.405
20530TIP3    H261468   6.647   7.176   6.361
20531TIP3   OH261469   7.015   7.844   7.495
20531TIP3    H161470   6.937   7.786   7.485
20531TIP3    H261471   6.999   7.909   7.423
20532TIP3   OH261472   7.077   7.675   6.146
20532TIP3    H161473   7.117   7.746   6.093
20532TIP3    H261474   6.998   7.723   6.178
20533TIP3   OH261475   6.098   6.452   8.013
20533TIP3    H161476   6.002   6.457   8.027
20533TIP3    H261477   6.126   6.391   8.083
20534TIP3   OH261478   6.895   7.132   6.543
20534TIP3    H161479   6.888   7.067   6.615
20534TIP3    H261480   6.993   7.132   6.531
20535TIP3   OH261481   5.822   7.553   7.647
20535TIP3    H161482   5.841   7.458   7.656
20535TIP3    H261483   5.858   7.588   7.729
20536TIP3   OH261484   6.107   7.183   6.323
20536TIP3    H161485   6.118   7.091   6.294
20536TIP3    H261486   6.090   7.172   6.419
20537TIP3   OH261487   6.057   7.184   6.592
20537TIP3    H161488   6.113   7.158   6.667
20537TIP3    H261489   6.056   7.282   6.602
20538TIP3   OH261490   5.786   6.883   6.801
20538TIP3    H161491   5.720   6.925   6.859
20538TIP3    H261492   5.797   6.953   6.734
20539TIP3   OH261493   6.932   6.518   7.690
20539TIP3    H161494   7.011   6.562   7.726
20539TIP3    H261495   6.923   6.438   7.746
20540TIP3   OH261496   6.810   6.272   6.854
20540TIP3    H161497   6.802   6.298   6.761
20540TIP3    H261498   6.852   6.351   6.894
20541TIP3   OH261499   6.316   7.384   6.544
20541TIP3    H161500   6.230   7.411   6.582
20541TIP3    H261501   6.333   7.458   6.484
20542TIP3   OH261502   6.502   6.448   6.959
20542TIP3    H161503   6.570   6.517   6.943
20542TIP3    H261504   6.507   6.438   7.057
20543TIP3   OH261505   6.772   6.768   7.769
20543TIP3    H161506   6.789   6.818   7.851
20543TIP3    H261507   6.828   6.689   7.781
20544TIP3   OH261508   6.649   6.177   7.063
20544TIP3    H161509   6.648   6.251   7.128
20544TIP3    H261510   6.708   6.214   6.994
20545TIP3   OH261511   6.058   7.458   6.613
20545TIP3    H161512   6.026   7.528   6.552
20545TIP3    H261513   6.038   7.498   6.700
20546TIP3   OH261514   6.160   6.170   6.849
20546TIP3    H161515   6.158   6.258   6.891
20546TIP3    H261516   6.256   6.150   6.860
20547TIP3   OH261517   7.412   6.650   7.739
20547TIP3    H161518   7.318   6.658   7.762
20547TIP3    H261519   7.405   6.614   7.650
20548TIP3   OH261520   7.065   6.861   7.136
20548TIP3    H161521   6.989   6.801   7.150
20548TIP3    H261522   7.136   6.814   7.184
20549TIP3   OH261523   5.775   7.089   6.609
20549TIP3    H161524   5.828   7.170   6.621
20549TIP3    H261525   5.826   7.045   6.538
20550TIP3   OH261526   5.728   6.367   6.734
20550TIP3    H161527   5.717   6.464   6.734
20550TIP3    H261528   5.641   6.337   6.706
20551TIP3   OH261529   7.032   7.814   7.087
20551TIP3    H161530   6.990   7.860   7.012
20551TIP3    H261531   7.126   7.833   7.067
20552TIP3   OH261532   6.109   6.085   7.615
20552TIP3    H161533   6.077   6.051   7.528
20552TIP3    H261534   6.099   6.006   7.673
20553TIP3   OH261535   5.800   7.837   8.065
20553TIP3    H161536   5.887   7.819   8.105
20553TIP3    H261537   5.766   7.746   8.057
20554TIP3   OH261538   6.269   7.389   6.238
20554TIP3    H161539   6.214   7.317   6.277
20554TIP3    H261540   6.343   7.338   6.202
20555TIP3   OH261541   6.908   7.724   7.852
20555TIP3    H161542   6.904   7.645   7.911
20555TIP3    H261543   6.999   7.755   7.864
20556TIP3   OH261544   6.703   7.427   6.147
20556TIP3    H161545   6.755   7.368   6.205
20556TIP3    H261546   6.758   7.431   6.067
20557TIP3   OH261547   5.935   7.251   8.265
20557TIP3    H161548   5.952   7.155   8.272
20557TIP3    H261549   5.847   7.252   8.222
20558TIP3   OH261550   5.916   6.904   6.451
20558TIP3    H161551   5.961   6.873   6.531
20558TIP3    H261552   5.991   6.910   6.388
20559TIP3   OH261553   6.544   7.334   8.037
20559TIP3    H161554   6.499   7.339   7.951
20559TIP3    H261555   6.577   7.242   8.037
20560TIP3   OH261556   6.423   7.097   6.266
20560TIP3    H161557   6.427   7.122   6.361
20560TIP3    H261558   6.387   7.008   6.271
20561TIP3   OH261559   7.035   7.341   7.643
20561TIP3    H161560   7.109   7.387   7.598
20561TIP3    H261561   6.962   7.404   7.628
20562TIP3   OH261562   6.056   6.986   8.245
20562TIP3    H161563   6.124   6.920   8.229
20562TIP3    H261564   6.078   7.015   8.336
20563TIP3   OH261565   6.122   6.807   6.684
20563TIP3    H161566   6.090   6.771   6.769
20563TIP3    H261567   6.144   6.727   6.634
20564TIP3   OH261568   6.389   6.871   7.910
20564TIP3    H161569   6.311   6.930   7.913
20564TIP3    H261570   6.436   6.903   7.830
20565TIP3   OH261571   6.213   6.596   6.499
20565TIP3    H161572   6.191   6.522   6.441
20565TIP3    H261573   6.296   6.568   6.539
20566TIP3   OH261574   6.914   7.273   8.044
20566TIP3    H161575   6.983   7.238   7.987
20566TIP3    H261576   6.905   7.200   8.108
20567TIP3   OH261577   7.043   6.930   6.184
20567TIP3    H161578   7.022   6.883   6.101
20567TIP3    H261579   7.012   7.020   6.159
20568TIP3   OH261580   6.501   6.651   8.040
20568TIP3    H161581   6.509   6.572   7.983
20568TIP3    H261582   6.465   6.718   7.979
20569TIP3   OH261583   6.514   6.443   7.841
20569TIP3    H161584   6.541   6.482   7.756
20569TIP3    H261585   6.420   6.420   7.824
20570TIP3   OH261586   6.544   6.981   7.715
20570TIP3    H161587   6.626   6.982   7.663
20570TIP3    H261588   6.489   7.047   7.669
20571TIP3   OH261589   7.165   7.211   7.840
20571TIP3    H161590   7.108   7.256   7.773
20571TIP3    H261591   7.252   7.218   7.796
20572TIP3   OH261592   6.385   6.775   8.264
20572TIP3    H161593   6.319   6.705   8.279
20572TIP3    H261594   6.424   6.745   8.179
20573TIP3   OH261595   6.647   6.207   7.906
20573TIP3    H161596   6.598   6.290   7.886
20573TIP3    H261597   6.576   6.140   7.896
20574TIP3   OH261598   6.754   6.737   8.128
20574TIP3    H161599   6.773   6.706   8.218
20574TIP3    H261600   6.669   6.693   8.110
20575TIP3   OH261601   6.230   6.552   8.317
20575TIP3    H161602   6.238   6.462   8.280
20575TIP3    H261603   6.266   6.538   8.407
20576TIP3   OH261604   6.740   6.216   8.164
20576TIP3    H161605   6.810   6.147   8.160
20576TIP3    H261606   6.702   6.208   8.074
20577TIP3   OH261607   6.803   6.428   8.328
20577TIP3    H161608   6.781   6.359   8.261
20577TIP3    H261609   6.728   6.490   8.320
20578TIP3   OH261610   6.026   7.664   6.425
20578TIP3    H161611   6.122   7.661   6.405
20578TIP3    H261612   5.992   7.707   6.346
20579TIP3   OH261613   5.507   7.040   6.641
20579TIP3    H161614   5.602   7.062   6.631
20579TIP3    H261615   5.502   6.952   6.599
20580TIP3   OH261616   7.283   7.905   7.042
20580TIP3    H161617   7.310   7.947   7.125
20580TIP3    H261618   7.340   7.951   6.978
20581TIP3   OH261619   7.314   7.925   7.327
20581TIP3    H161620   7.276   7.835   7.318
20581TIP3    H261621   7.393   7.906   7.380
20582TIP3   OH261622   7.352   7.596   7.869
20582TIP3    H161623   7.287   7.601   7.942
20582TIP3    H261624   7.409   7.673   7.877
20583TIP3   OH261625   7.176   7.118   6.517
20583TIP3    H161626   7.245   7.181   6.490
20583TIP3    H261627   7.218   7.078   6.596
20584TIP3   OH261628   7.303   6.985   6.721
20584TIP3    H161629   7.238   6.942   6.780
20584TIP3    H261630   7.366   7.025   6.784
20585TIP3   OH261631   7.357   7.376   7.154
20585TIP3    H161632   7.410   7.313   7.101
20585TIP3    H261633   7.349   7.452   7.093
20586TIP3   OH261634   7.191   7.674   7.349
20586TIP3    H161635   7.119   7.719   7.397
20586TIP3    H261636   7.142   7.626   7.279
20587TIP3   OH261637   7.243   6.892   6.368
20587TIP3    H161638   7.171   6.895   6.301
20587TIP3    H261639   7.216   6.969   6.423
20588TIP3   OH261640   7.108   6.568   6.326
20588TIP3    H161641   7.078   6.604   6.242
20588TIP3    H261642   7.086   6.473   6.316
20589TIP3   OH261643   7.119   6.839   6.868
20589TIP3    H161644   7.128   6.742   6.864
20589TIP3    H261645   7.106   6.855   6.964
20590TIP3   OH261646   5.747   6.911   7.615
20590TIP3    H161647   5.744   6.885   7.521
20590TIP3    H261648   5.844   6.914   7.630
20591TIP3   OH261649   7.407   7.260   7.718
20591TIP3    H161650   7.480   7.196   7.710
20591TIP3    H261651   7.435   7.330   7.657
20592TIP3   OH261652   7.610   7.082   7.743
20592TIP3    H161653   7.529   7.033   7.769
20592TIP3    H261654   7.675   7.010   7.758
20593TIP3   OH261655   7.056   6.302   6.313
20593TIP3    H161656   7.135   6.270   6.362
20593TIP3    H261657   6.987   6.238   6.337
20594TIP3   OH261658   7.113   6.555   6.763
20594TIP3    H161659   7.153   6.467   6.779
20594TIP3    H261660   7.173   6.588   6.694
20595TIP3   OH261661   7.277   6.731   7.255
20595TIP3    H161662   7.364   6.758   7.217
20595TIP3    H261663   7.288   6.768   7.345
20596TIP3   OH261664   7.342   6.872   7.485
20596TIP3    H161665   7.271   6.904   7.545
20596TIP3    H261666   7.375   6.956   7.447
20597TIP3   OH261667   5.963   6.604   8.291
20597TIP3    H161668   6.061   6.594   8.291
20597TIP3    H261669   5.937   6.518   8.331
20598TIP3   OH261670   7.803   6.462   8.040
20598TIP3    H161671   7.855   6.393   7.994
20598TIP3    H261672   7.772   6.518   7.966
20599TIP3   OH261673   7.223   6.306   6.801
20599TIP3    H161674   7.271   6.290   6.884
20599TIP3    H261675   7.163   6.228   6.800
20600TIP3   OH261676   5.924   6.292   7.617
20600TIP3    H161677   5.986   6.218   7.630
20600TIP3    H261678   5.986   6.367   7.615
20601TIP3   OH261679   5.729   6.568   7.694
20601TIP3    H161680   5.777   6.560   7.609
20601TIP3    H261681   5.755   6.656   7.723
20602TIP3   OH261682   7.670   6.609   7.853
20602TIP3    H161683   7.587   6.646   7.888
20602TIP3    H261684   7.634   6.540   7.794
20603TIP3   OH261685   7.306   6.244   6.430
20603TIP3    H161686   7.345   6.169   6.381
20603TIP3    H261687   7.375   6.312   6.422
20604TIP3   OH261688   5.709   6.073   7.194
20604TIP3    H161689   5.616   6.069   7.220
20604TIP3    H261690   5.707   6.130   7.115
20605TIP3   OH261691   6.868   7.773   6.699
20605TIP3    H161692   6.919   7.757   6.617
20605TIP3    H261693   6.921   7.841   6.743
20606TIP3   OH261694   5.930   6.152   8.009
20606TIP3    H161695   5.880   6.144   8.092
20606TIP3    H261696   5.862   6.189   7.950
20607TIP3   OH261697   5.972   7.587   8.098
20607TIP3    H161698   5.887   7.553   8.064
20607TIP3    H261699   5.974   7.546   8.185
20608TIP3   OH261700   6.151   7.611   7.641
20608TIP3    H161701   6.091   7.673   7.597
20608TIP3    H261702   6.232   7.630   7.590
20609TIP3   OH261703   6.755   8.003   7.630
20609TIP3    H161704   6.820   7.949   7.583
20609TIP3    H261705   6.813   8.055   7.689
20610TIP3   OH261706   7.569   6.369   7.728
20610TIP3    H161707   7.476   6.369   7.700
20610TIP3    H261708   7.593   6.275   7.716
20611TIP3   OH261709   5.834   7.880   7.657
20611TIP3    H161710   5.746   7.904   7.621
20611TIP3    H261711   5.816   7.885   7.751
20612TIP3   OH261712   6.067   7.849   7.514
20612TIP3    H161713   5.981   7.861   7.560
20612TIP3    H261714   6.042   7.876   7.423
20613TIP3   OH261715   6.488   7.875   7.311
20613TIP3    H161716   6.417   7.893   7.246
20613TIP3    H261717   6.499   7.964   7.351
20614TIP3   OH261718   6.755   7.816   7.366
20614TIP3    H161719   6.662   7.832   7.343
20614TIP3    H261720   6.799   7.890   7.320
20615TIP3   OH261721   6.961   8.006   7.278
20615TIP3    H161722   6.946   8.090   7.231
20615TIP3    H261723   6.987   7.946   7.205
20616TIP3   OH261724   5.736   7.676   7.414
20616TIP3    H161725   5.773   7.640   7.498
20616TIP3    H261726   5.792   7.626   7.350
20617TIP3   OH261727   5.933   7.549   7.278
20617TIP3    H161728   5.939   7.455   7.301
20617TIP3    H261729   6.023   7.571   7.250
20618TIP3   OH261730   6.208   7.632   7.251
20618TIP3    H161731   6.231   7.538   7.243
20618TIP3    H261732   6.232   7.648   7.343
20619TIP3   OH261733   6.768   6.282   7.341
20619TIP3    H161734   6.727   6.215   7.400
20619TIP3    H261735   6.843   6.232   7.303
20620TIP3   OH261736   7.297   6.163   7.254
20620TIP3    H161737   7.332   6.216   7.179
20620TIP3    H261738   7.201   6.181   7.248
20621TIP3   OH261739   7.391   6.267   7.017
20621TIP3    H161740   7.463   6.214   6.977
20621TIP3    H261741   7.424   6.358   7.002
20622TIP3   OH261742   6.021   5.993   7.365
20622TIP3    H161743   5.929   5.959   7.366
20622TIP3    H261744   6.071   5.908   7.363
20623TIP3   OH261745   5.805   5.861   7.012
20623TIP3    H161746   5.834   5.920   6.940
20623TIP3    H261747   5.775   5.924   7.080
20624TIP3   OH261748   6.460   6.028   7.244
20624TIP3    H161749   6.523   6.077   7.189
20624TIP3    H261750   6.482   6.060   7.332
20625TIP3   OH261751   7.013   6.170   7.230
20625TIP3    H161752   7.010   6.132   7.141
20625TIP3    H261753   6.999   6.090   7.285
20626TIP3   OH261754   7.040   6.092   6.791
20626TIP3    H161755   6.952   6.131   6.802
20626TIP3    H261756   7.028   6.007   6.839
20627TIP3   OH261757   5.922   6.025   6.774
20627TIP3    H161758   5.971   5.958   6.721
20627TIP3    H261759   5.996   6.076   6.813
20628TIP3   OH261760   6.439   6.196   6.873
20628TIP3    H161761   6.495   6.147   6.935
20628TIP3    H261762   6.459   6.288   6.902
20629TIP3   OH261763   6.294   7.626   6.371
20629TIP3    H161764   6.385   7.646   6.339
20629TIP3    H261765   6.274   7.548   6.314
20630TIP3   OH261766   7.013   7.738   6.467
20630TIP3    H161767   7.003   7.641   6.452
20630TIP3    H261768   6.971   7.773   6.386
20631TIP3   OH261769   6.228   6.274   8.256
20631TIP3    H161770   6.195   6.203   8.313
20631TIP3    H261771   6.323   6.275   8.282
20632TIP3   OH261772   6.476   6.271   8.375
20632TIP3    H161773   6.562   6.247   8.337
20632TIP3    H261774   6.465   6.199   8.442
20633TIP3   OH261775   5.600   7.468   6.431
20633TIP3    H161776   5.584   7.491   6.524
20633TIP3    H261777   5.688   7.425   6.434
20634TIP3   OH261778   7.297   6.313   8.157
20634TIP3    H161779   7.316   6.303   8.252
20634TIP3    H261780   7.386   6.329   8.120
20635TIP3   OH261781   7.237   7.880   7.661
20635TIP3    H161782   7.160   7.856   7.604
20635TIP3    H261783   7.232   7.978   7.654
20636TIP3   OH261784   8.486   7.261   6.444
20636TIP3    H161785   8.469   7.347   6.400
20636TIP3    H261786   8.430   7.204   6.387
20637TIP3   OH261787   8.464   7.246   6.795
20637TIP3    H161788   8.508   7.239   6.883
20637TIP3    H261789   8.457   7.150   6.774
20638TIP3   OH261790   7.806   7.150   7.165
20638TIP3    H161791   7.839   7.084   7.228
20638TIP3    H261792   7.881   7.211   7.162
20639TIP3   OH261793   8.734   7.552   6.489
20639TIP3    H161794   8.759   7.488   6.557
20639TIP3    H261795   8.771   7.634   6.524
20640TIP3   OH261796   7.777   7.560   6.895
20640TIP3    H161797   7.762   7.463   6.897
20640TIP3    H261798   7.874   7.560   6.894
20641TIP3   OH261799   7.485   6.768   6.681
20641TIP3    H161800   7.432   6.850   6.692
20641TIP3    H261801   7.416   6.709   6.646
20642TIP3   OH261802   7.545   7.053   6.847
20642TIP3    H161803   7.593   6.976   6.886
20642TIP3    H261804   7.598   7.072   6.769
20643TIP3   OH261805   8.373   7.993   6.505
20643TIP3    H161806   8.436   7.937   6.455
20643TIP3    H261807   8.425   8.019   6.583
20644TIP3   OH261808   9.302   6.809   6.856
20644TIP3    H161809   9.326   6.903   6.857
20644TIP3    H261810   9.340   6.786   6.769
20645TIP3   OH261811   8.721   6.983   6.882
20645TIP3    H161812   8.765   6.898   6.900
20645TIP3    H261813   8.690   6.968   6.791
20646TIP3   OH261814   8.055   6.644   6.848
20646TIP3    H161815   8.031   6.715   6.786
20646TIP3    H261816   8.007   6.569   6.806
20647TIP3   OH261817   8.746   6.736   6.473
20647TIP3    H161818   8.819   6.719   6.536
20647TIP3    H261819   8.797   6.768   6.396
20648TIP3   OH261820   7.689   6.846   6.955
20648TIP3    H161821   7.771   6.822   7.003
20648TIP3    H261822   7.698   6.788   6.876
20649TIP3   OH261823   8.134   7.045   6.746
20649TIP3    H161824   8.225   7.014   6.762
20649TIP3    H261825   8.090   6.963   6.715
20650TIP3   OH261826   8.055   6.625   7.284
20650TIP3    H161827   7.993   6.660   7.217
20650TIP3    H261828   8.004   6.641   7.366
20651TIP3   OH261829   8.393   7.473   6.300
20651TIP3    H161830   8.364   7.456   6.209
20651TIP3    H261831   8.357   7.563   6.314
20652TIP3   OH261832   8.163   7.406   7.079
20652TIP3    H161833   8.080   7.446   7.114
20652TIP3    H261834   8.209   7.487   7.056
20653TIP3   OH261835   8.956   6.732   6.642
20653TIP3    H161836   8.970   6.672   6.716
20653TIP3    H261837   9.016   6.806   6.664
20654TIP3   OH261838   7.923   6.741   7.068
20654TIP3    H161839   7.986   6.812   7.090
20654TIP3    H261840   7.970   6.698   6.993
20655TIP3   OH261841   7.972   7.583   7.161
20655TIP3    H161842   7.951   7.672   7.124
20655TIP3    H261843   7.895   7.573   7.221
20656TIP3   OH261844   7.382   7.283   6.413
20656TIP3    H161845   7.341   7.309   6.328
20656TIP3    H261846   7.411   7.370   6.449
20657TIP3   OH261847   9.109   6.692   7.019
20657TIP3    H161848   9.024   6.720   6.981
20657TIP3    H261849   9.174   6.732   6.958
20658TIP3   OH261850   8.415   6.342   7.005
20658TIP3    H161851   8.393   6.246   7.013
20658TIP3    H261852   8.334   6.381   7.045
20659TIP3   OH261853   8.525   7.846   6.327
20659TIP3    H161854   8.575   7.767   6.297
20659TIP3    H261855   8.576   7.916   6.281
20660TIP3   OH261856   8.662   7.629   6.230
20660TIP3    H161857   8.644   7.550   6.176
20660TIP3    H261858   8.692   7.589   6.315
20661TIP3   OH261859   8.343   7.114   6.253
20661TIP3    H161860   8.261   7.160   6.226
20661TIP3    H261861   8.389   7.103   6.167
20662TIP3   OH261862   8.298   6.890   5.974
20662TIP3    H161863   8.369   6.941   6.017
20662TIP3    H261864   8.352   6.825   5.924
20663TIP3   OH261865   8.679   7.190   6.232
20663TIP3    H161866   8.633   7.217   6.314
20663TIP3    H261867   8.766   7.161   6.267
20664TIP3   OH261868   7.914   7.186   6.640
20664TIP3    H161869   7.869   7.130   6.573
20664TIP3    H261870   7.991   7.131   6.664
20665TIP3   OH261871   8.055   7.558   6.788
20665TIP3    H161872   8.010   7.560   6.702
20665TIP3    H261873   8.118   7.630   6.783
20666TIP3   OH261874   8.061   7.157   6.998
20666TIP3    H161875   8.085   7.136   6.905
20666TIP3    H261876   8.098   7.246   7.011
20667TIP3   OH261877   8.522   7.803   6.799
20667TIP3    H161878   8.561   7.881   6.753
20667TIP3    H261879   8.590   7.735   6.790
20668TIP3   OH261880   8.110   7.745   7.347
20668TIP3    H161881   8.086   7.831   7.308
20668TIP3    H261882   8.072   7.684   7.281
20669TIP3   OH261883   8.525   7.048   6.050
20669TIP3    H161884   8.585   7.106   6.102
20669TIP3    H261885   8.551   7.072   5.958
20670TIP3   OH261886   7.943   7.261   7.409
20670TIP3    H161887   7.943   7.349   7.452
20670TIP3    H261888   7.848   7.240   7.420
20671TIP3   OH261889   8.264   7.729   6.335
20671TIP3    H161890   8.338   7.788   6.358
20671TIP3    H261891   8.205   7.790   6.289
20672TIP3   OH261892   9.043   6.291   6.098
20672TIP3    H161893   8.961   6.312   6.148
20672TIP3    H261894   9.055   6.373   6.046
20673TIP3   OH261895   7.781   7.032   6.450
20673TIP3    H161896   7.717   7.076   6.390
20673TIP3    H261897   7.741   6.944   6.457
20674TIP3   OH261898   8.840   7.657   5.646
20674TIP3    H161899   8.848   7.754   5.632
20674TIP3    H261900   8.933   7.629   5.633
20675TIP3   OH261901   7.564   7.412   7.353
20675TIP3    H161902   7.498   7.392   7.284
20675TIP3    H261903   7.599   7.324   7.376
20676TIP3   OH261904   7.419   7.606   6.990
20676TIP3    H161905   7.514   7.604   6.975
20676TIP3    H261906   7.407   7.689   7.038
20677TIP3   OH261907   8.142   7.970   6.128
20677TIP3    H161908   8.105   7.951   6.040
20677TIP3    H261909   8.116   8.062   6.144
20678TIP3   OH261910   7.586   7.824   6.508
20678TIP3    H161911   7.635   7.815   6.593
20678TIP3    H261912   7.523   7.751   6.516
20679TIP3   OH261913   8.351   7.876   5.770
20679TIP3    H161914   8.409   7.807   5.729
20679TIP3    H261915   8.387   7.881   5.861
20680TIP3   OH261916   8.397   7.921   6.039
20680TIP3    H161917   8.311   7.929   6.085
20680TIP3    H261918   8.455   7.893   6.112
20681TIP3   OH261919   7.767   7.594   7.337
20681TIP3    H161920   7.816   7.570   7.418
20681TIP3    H261921   7.690   7.532   7.343
20682TIP3   OH261922   8.172   6.423   7.122
20682TIP3    H161923   8.083   6.389   7.100
20682TIP3    H261924   8.146   6.503   7.171
20683TIP3   OH261925   8.601   7.098   5.795
20683TIP3    H161926   8.569   7.069   5.707
20683TIP3    H261927   8.682   7.146   5.770
20684TIP3   OH261928   8.314   6.472   6.095
20684TIP3    H161929   8.282   6.469   6.187
20684TIP3    H261930   8.278   6.388   6.061
20685TIP3   OH261931   8.104   6.934   7.147
20685TIP3    H161932   8.050   6.952   7.226
20685TIP3    H261933   8.088   7.015   7.094
20686TIP3   OH261934   7.985   6.827   6.658
20686TIP3    H161935   7.893   6.799   6.675
20686TIP3    H261936   8.000   6.787   6.570
20687TIP3   OH261937   8.476   6.911   6.385
20687TIP3    H161938   8.423   6.980   6.341
20687TIP3    H261939   8.531   6.879   6.310
20688TIP3   OH261940   8.631   6.938   6.623
20688TIP3    H161941   8.573   6.964   6.549
20688TIP3    H261942   8.667   6.856   6.584
20689TIP3   OH261943   7.923   6.964   7.353
20689TIP3    H161944   7.935   7.027   7.426
20689TIP3    H261945   7.907   6.881   7.402
20690TIP3   OH261946   7.971   6.443   6.063
20690TIP3    H161947   7.963   6.438   6.160
20690TIP3    H261948   7.889   6.491   6.039
20691TIP3   OH261949   7.512   6.492   6.931
20691TIP3    H161950   7.590   6.519   6.984
20691TIP3    H261951   7.551   6.453   6.851
20692TIP3   OH261952   7.491   6.469   6.453
20692TIP3    H161953   7.535   6.509   6.375
20692TIP3    H261954   7.428   6.542   6.475
20693TIP3   OH261955   8.610   7.178   7.032
20693TIP3    H161956   8.661   7.114   6.976
20693TIP3    H261957   8.584   7.117   7.104
20694TIP3   OH261958   8.313   6.647   6.722
20694TIP3    H161959   8.227   6.642   6.768
20694TIP3    H261960   8.375   6.648   6.796
20695TIP3   OH261961   7.748   6.700   6.727
20695TIP3    H161962   7.653   6.707   6.701
20695TIP3    H261963   7.770   6.608   6.705
20696TIP3   OH261964   8.019   6.702   6.416
20696TIP3    H161965   8.113   6.712   6.392
20696TIP3    H261966   7.971   6.722   6.332
20697TIP3   OH261967   8.808   6.721   6.922
20697TIP3    H161968   8.768   6.734   7.011
20697TIP3    H261969   8.745   6.658   6.881
20698TIP3   OH261970   7.855   6.731   6.195
20698TIP3    H161971   7.783   6.686   6.148
20698TIP3    H261972   7.907   6.765   6.120
20699TIP3   OH261973   7.925   7.495   7.542
20699TIP3    H161974   7.970   7.580   7.562
20699TIP3    H261975   7.860   7.492   7.615
20700TIP3   OH261976   8.402   6.972   6.814
20700TIP3    H161977   8.467   6.923   6.762
20700TIP3    H261978   8.408   6.927   6.901
20701TIP3   OH261979   7.924   6.460   6.694
20701TIP3    H161980   7.888   6.380   6.738
20701TIP3    H261981   7.970   6.423   6.618
20702TIP3   OH261982   8.372   6.865   7.099
20702TIP3    H161983   8.281   6.896   7.118
20702TIP3    H261984   8.427   6.922   7.157
20703TIP3   OH261985   8.107   7.264   6.206
20703TIP3    H161986   8.036   7.197   6.194
20703TIP3    H261987   8.094   7.292   6.299
20704TIP3   OH261988   8.569   6.571   6.068
20704TIP3    H161989   8.471   6.557   6.068
20704TIP3    H261990   8.579   6.667   6.083
20705TIP3   OH261991   8.637   6.822   6.169
20705TIP3    H161992   8.735   6.824   6.180
20705TIP3    H261993   8.621   6.897   6.109
20706TIP3   OH261994   7.802   7.282   6.881
20706TIP3    H161995   7.838   7.254   6.794
20706TIP3    H261996   7.831   7.211   6.940
20707TIP3   OH261997   8.256   7.411   6.023
20707TIP3    H161998   8.209   7.497   6.028
20707TIP3    H261999   8.200   7.356   6.082
20708TIP3   OH262000   7.680   7.197   7.490
20708TIP3    H162001   7.688   7.175   7.585
20708TIP3    H262002   7.608   7.137   7.463
20709TIP3   OH262003   2.796   1.624   1.831
20709TIP3    H162004   2.704   1.601   1.806
20709TIP3    H262005   2.797   1.720   1.812
20710TIP3   OH262006   9.078   6.909   6.004
20710TIP3    H162007   9.016   6.863   5.942
20710TIP3    H262008   9.076   6.997   5.959
20711TIP3   OH262009   8.769   7.724   5.907
20711TIP3    H162010   8.759   7.650   5.968
20711TIP3    H262011   8.792   7.681   5.822
20712TIP3   OH262012   8.765   7.355   6.752
20712TIP3    H162013   8.680   7.312   6.760
20712TIP3    H262014   8.817   7.286   6.707
20713TIP3   OH262015   7.905   7.589   6.510
20713TIP3    H162016   7.906   7.667   6.451
20713TIP3    H262017   7.810   7.571   6.513
20714TIP3   OH262018   7.464   6.891   6.203
20714TIP3    H162019   7.511   6.974   6.223
20714TIP3    H262020   7.387   6.897   6.264
20715TIP3   OH262021   8.063   7.359   6.476
20715TIP3    H162022   8.018   7.445   6.478
20715TIP3    H262023   8.006   7.306   6.535
20716TIP3   OH262024   8.170   7.921   6.968
20716TIP3    H162025   8.191   8.004   6.922
20716TIP3    H262026   8.242   7.925   7.033
20717TIP3   OH262027   7.825   7.823   6.360
20717TIP3    H162028   7.737   7.832   6.401
20717TIP3    H262029   7.855   7.916   6.361
20718TIP3   OH262030   8.523   7.519   6.907
20718TIP3    H162031   8.522   7.569   6.991
20718TIP3    H262032   8.619   7.504   6.901
20719TIP3   OH262033   8.533   7.450   5.814
20719TIP3    H162034   8.585   7.429   5.894
20719TIP3    H262035   8.444   7.430   5.844
20720TIP3   OH262036   8.870   7.932   5.633
20720TIP3    H162037   8.913   8.001   5.579
20720TIP3    H262038   8.791   7.983   5.663
20721TIP3   OH262039   7.893   6.710   7.500
20721TIP3    H162040   7.796   6.716   7.515
20721TIP3    H262041   7.918   6.644   7.567
20722TIP3   OH262042   8.692   7.395   6.038
20722TIP3    H162043   8.685   7.322   6.103
20722TIP3    H262044   8.788   7.391   6.018
20723TIP3   OH262045   7.610   7.795   7.135
20723TIP3    H162046   7.661   7.716   7.159
20723TIP3    H262047   7.647   7.860   7.196
20724TIP3   OH262048   7.901   7.436   5.811
20724TIP3    H162049   7.916   7.345   5.781
20724TIP3    H262050   7.881   7.423   5.906
20725TIP3   OH262051   7.846   7.441   6.085
20725TIP3    H162052   7.923   7.418   6.140
20725TIP3    H262053   7.848   7.539   6.089
20726TIP3   OH262054   7.583   7.137   6.287
20726TIP3    H162055   7.517   7.182   6.344
20726TIP3    H262056   7.597   7.206   6.219
20727TIP3   OH262057   8.743   6.775   7.185
20727TIP3    H162058   8.814   6.813   7.239
20727TIP3    H262059   8.700   6.716   7.248
20728TIP3   OH262060   8.603   6.528   6.344
20728TIP3    H162061   8.592   6.547   6.249
20728TIP3    H262062   8.646   6.610   6.376
20729TIP3   OH262063   8.110   7.639   6.035
20729TIP3    H162064   8.024   7.671   6.067
20729TIP3    H262065   8.131   7.708   5.971
20730TIP3   OH262066   8.302   6.702   6.446
20730TIP3    H162067   8.368   6.772   6.426
20730TIP3    H262068   8.306   6.699   6.544
20731TIP3   OH262069   8.567   7.010   7.243
20731TIP3    H162070   8.599   7.079   7.302
20731TIP3    H262071   8.627   6.936   7.262
20732TIP3   OH262072   8.448   6.436   6.554
20732TIP3    H162073   8.433   6.517   6.605
20732TIP3    H262074   8.506   6.470   6.482
20733TIP3   OH262075   7.851   7.713   6.100
20733TIP3    H162076   7.824   7.782   6.035
20733TIP3    H262077   7.837   7.761   6.185
20734TIP3   OH262078   7.954   6.427   6.340
20734TIP3    H162079   7.953   6.518   6.374
20734TIP3    H262080   8.050   6.408   6.347
20735TIP3   OH262081   8.854   7.119   6.624
20735TIP3    H162082   8.782   7.053   6.628
20735TIP3    H262083   8.927   7.072   6.669
20736TIP3   OH262084   7.570   7.348   6.095
20736TIP3    H162085   7.632   7.423   6.102
20736TIP3    H262086   7.618   7.296   6.026
20737TIP3   OH262087   7.519   6.622   6.228
20737TIP3    H162088   7.515   6.719   6.221
20737TIP3    H262089   7.438   6.595   6.183
20738TIP3   OH262090   7.907   6.342   7.101
20738TIP3    H162091   7.874   6.308   7.015
20738TIP3    H262092   7.896   6.264   7.159
20739TIP3   OH262093   7.446   7.557   6.485
20739TIP3    H162094   7.370   7.591   6.534
20739TIP3    H262095   7.430   7.597   6.397
20740TIP3   OH262096   8.064   7.643   5.727
20740TIP3    H162097   8.008   7.570   5.763
20740TIP3    H262098   8.139   7.592   5.692
20741TIP3   OH262099   8.498   7.682   5.636
20741TIP3    H162100   8.552   7.625   5.693
20741TIP3    H262101   8.554   7.690   5.556
20742TIP3   OH262102   7.745   7.496   7.741
20742TIP3    H162103   7.752   7.399   7.745
20742TIP3    H262104   7.651   7.508   7.714
20743TIP3   OH262105   7.706   7.160   5.944
20743TIP3    H162106   7.761   7.125   6.015
20743TIP3    H262107   7.773   7.164   5.872
20744TIP3   OH262108   8.213   7.355   5.752
20744TIP3    H162109   8.218   7.369   5.849
20744TIP3    H262110   8.213   7.257   5.748
20745TIP3   OH262111   7.865   7.244   7.740
20745TIP3    H162112   7.923   7.168   7.725
20745TIP3    H262113   7.831   7.225   7.828
20746TIP3   OH262114   7.922   7.059   6.173
20746TIP3    H162115   7.890   7.012   6.251
20746TIP3    H262116   7.955   6.986   6.116
20747TIP3   OH262117   8.191   7.134   7.400
20747TIP3    H162118   8.105   7.180   7.397
20747TIP3    H262119   8.232   7.160   7.315
20748TIP3   OH262120   8.015   6.854   6.010
20748TIP3    H162121   7.989   6.854   5.916
20748TIP3    H262122   8.113   6.860   6.002
20749TIP3   OH262123   8.839   7.187   5.671
20749TIP3    H162124   8.818   7.139   5.588
20749TIP3    H262125   8.808   7.277   5.645
20750TIP3   OH262126   8.299   6.902   7.514
20750TIP3    H162127   8.303   6.823   7.456
20750TIP3    H262128   8.262   6.970   7.454
20751TIP3   OH262129   8.315   6.701   7.329
20751TIP3    H162130   8.336   6.731   7.240
20751TIP3    H262131   8.225   6.664   7.318
20752TIP3   OH262132   8.348   7.235   7.192
20752TIP3    H162133   8.425   7.244   7.133
20752TIP3    H262134   8.289   7.306   7.160
20753TIP3   OH262135   8.157   7.015   7.717
20753TIP3    H162136   8.098   6.943   7.749
20753TIP3    H262137   8.195   6.975   7.636
20754TIP3   OH262138   8.542   7.017   7.602
20754TIP3    H162139   8.586   6.963   7.671
20754TIP3    H262140   8.464   6.959   7.582
20755TIP3   OH262141   8.023   6.797   7.808
20755TIP3    H162142   8.024   6.708   7.766
20755TIP3    H262143   8.046   6.771   7.900
20756TIP3   OH262144   8.595   6.689   7.762
20756TIP3    H162145   8.567   6.598   7.757
20756TIP3    H262146   8.511   6.735   7.785
20757TIP3   OH262147   7.822   7.910   5.912
20757TIP3    H162148   7.918   7.914   5.895
20757TIP3    H262149   7.790   7.962   5.835
20758TIP3   OH262150   7.303   7.297   6.132
20758TIP3    H162151   7.398   7.321   6.117
20758TIP3    H262152   7.299   7.210   6.088
20759TIP3   OH262153   7.216   7.911   6.541
20759TIP3    H162154   7.148   7.849   6.507
20759TIP3    H262155   7.261   7.855   6.608
20760TIP3   OH262156   7.354   7.766   6.728
20760TIP3    H162157   7.342   7.691   6.788
20760TIP3    H262158   7.405   7.826   6.784
20761TIP3   OH262159   8.969   7.377   6.003
20761TIP3    H162160   9.039   7.439   5.973
20761TIP3    H262161   9.014   7.336   6.081
20762TIP3   OH262162   9.095   7.245   6.205
20762TIP3    H162163   9.037   7.200   6.269
20762TIP3    H262164   9.170   7.277   6.260
20763TIP3   OH262165   9.037   7.148   5.857
20763TIP3    H162166   8.967   7.151   5.789
20763TIP3    H262167   9.013   7.226   5.910
20764TIP3   OH262168   8.905   6.825   5.813
20764TIP3    H162169   8.873   6.862   5.731
20764TIP3    H262170   8.881   6.730   5.803
20765TIP3   OH262171   8.911   7.096   6.354
20765TIP3    H162172   8.925   7.000   6.347
20765TIP3    H262173   8.902   7.110   6.451
20766TIP3   OH262174   7.542   7.171   7.099
20766TIP3    H162175   7.540   7.141   7.006
20766TIP3    H262176   7.639   7.171   7.116
20767TIP3   OH262177   8.851   6.560   5.804
20767TIP3    H162178   8.930   6.526   5.849
20767TIP3    H262179   8.783   6.494   5.823
20768TIP3   OH262180   8.911   6.813   6.251
20768TIP3    H162181   8.952   6.725   6.266
20768TIP3    H262182   8.969   6.846   6.180
20769TIP3   OH262183   9.061   6.989   6.744
20769TIP3    H162184   9.152   7.005   6.708
20769TIP3    H262185   9.076   7.016   6.835
20770TIP3   OH262186   7.762   6.863   7.780
20770TIP3    H162187   7.859   6.846   7.782
20770TIP3    H262188   7.729   6.780   7.819
20771TIP3   OH262189   9.018   6.564   6.291
20771TIP3    H162190   9.070   6.545   6.372
20771TIP3    H262191   8.960   6.485   6.287
20772TIP3   OH262192   7.721   6.549   7.104
20772TIP3    H162193   7.782   6.474   7.116
20772TIP3    H262194   7.783   6.623   7.102
20773TIP3   OH262195   7.524   6.824   7.180
20773TIP3    H162196   7.573   6.816   7.095
20773TIP3    H262197   7.553   6.911   7.209
20774TIP3   OH262198   9.102   6.498   5.917
20774TIP3    H162199   9.141   6.426   5.865
20774TIP3    H262200   9.169   6.569   5.908
20775TIP3   OH262201   7.506   6.332   6.685
20775TIP3    H162202   7.411   6.326   6.707
20775TIP3    H262203   7.505   6.387   6.603
20776TIP3   OH262204   8.643   8.037   6.176
20776TIP3    H162205   8.697   8.011   6.098
20776TIP3    H262206   8.714   8.062   6.238
20777TIP3   OH262207   7.727   6.409   7.495
20777TIP3    H162208   7.677   6.401   7.579
20777TIP3    H262209   7.658   6.447   7.437
20778TIP3   OH262210   7.743   7.842   7.598
20778TIP3    H162211   7.656   7.814   7.565
20778TIP3    H262212   7.745   7.803   7.687
20779TIP3   OH262213   7.949   7.851   7.113
20779TIP3    H162214   7.893   7.924   7.078
20779TIP3    H262215   8.031   7.874   7.066
20780TIP3   OH262216   9.298   6.565   7.228
20780TIP3    H162217   9.222   6.575   7.167
20780TIP3    H262218   9.347   6.488   7.192
20781TIP3   OH262219   7.619   8.130   7.138
20781TIP3    H162220   7.527   8.155   7.116
20781TIP3    H262221   7.619   8.140   7.233
20782TIP3   OH262222   7.840   8.062   6.983
20782TIP3    H162223   7.770   8.101   7.038
20782TIP3    H262224   7.842   8.123   6.908
20783TIP3   OH262225   7.530   7.916   6.888
20783TIP3    H162226   7.559   7.895   6.979
20783TIP3    H262227   7.604   7.876   6.838
20784TIP3   OH262228   7.720   7.787   6.742
20784TIP3    H162229   7.739   7.705   6.793
20784TIP3    H262230   7.808   7.830   6.741
20785TIP3   OH262231   7.976   7.887   6.746
20785TIP3    H162232   8.037   7.821   6.712
20785TIP3    H262233   8.015   7.910   6.833
20786TIP3   OH262234   8.575   6.541   6.848
20786TIP3    H162235   8.525   6.467   6.886
20786TIP3    H262236   8.637   6.495   6.788
20787TIP3   OH262237   9.091   6.428   6.749
20787TIP3    H162238   9.132   6.472   6.670
20787TIP3    H262239   8.996   6.439   6.731
20788TIP3   OH262240   9.186   6.520   6.509
20788TIP3    H162241   9.257   6.466   6.468
20788TIP3    H262242   9.221   6.610   6.489
20789TIP3   OH262243   7.817   6.250   6.853
20789TIP3    H162244   7.724   6.216   6.853
20789TIP3    H262245   7.866   6.165   6.850
20790TIP3   OH262246   7.602   6.117   6.499
20790TIP3    H162247   7.633   6.174   6.426
20790TIP3    H262248   7.573   6.183   6.565
20791TIP3   OH262249   8.258   6.281   6.729
20791TIP3    H162250   8.320   6.332   6.673
20791TIP3    H262251   8.273   6.321   6.816
20792TIP3   OH262252   8.807   6.427   6.716
20792TIP3    H162253   8.806   6.394   6.625
20792TIP3    H262254   8.794   6.345   6.768
20793TIP3   OH262255   8.838   6.350   6.279
20793TIP3    H162256   8.748   6.388   6.282
20793TIP3    H262257   8.823   6.264   6.324
20794TIP3   OH262258   7.319   7.687   6.284
20794TIP3    H162259   7.235   7.655   6.246
20794TIP3    H262260   7.309   7.782   6.266
20795TIP3   OH262261   7.718   6.279   6.263
20795TIP3    H162262   7.766   6.215   6.207
20795TIP3    H262263   7.792   6.331   6.300
20796TIP3   OH262264   8.231   6.452   6.362
20796TIP3    H162265   8.291   6.402   6.420
20796TIP3    H262266   8.256   6.544   6.387
20797TIP3   OH262267   8.093   7.880   5.864
20797TIP3    H162268   8.180   7.903   5.826
20797TIP3    H262269   8.070   7.806   5.803
20798TIP3   OH262270   8.795   7.990   5.950
20798TIP3    H162271   8.791   7.893   5.933
20798TIP3    H262272   8.758   8.024   5.865
20799TIP3   OH262273   8.027   6.530   7.744
20799TIP3    H162274   7.991   6.459   7.800
20799TIP3    H262275   8.121   6.528   7.770
20800TIP3   OH262276   8.279   6.517   7.863
20800TIP3    H162277   8.360   6.470   7.840
20800TIP3    H262278   8.246   6.460   7.937
20801TIP3   OH262279   7.395   7.711   5.920
20801TIP3    H162280   7.398   7.747   6.010
20801TIP3    H262281   7.485   7.673   5.909
20802TIP3   OH262282   9.268   7.016   6.171
20802TIP3    H162283   9.230   7.105   6.179
20802TIP3    H262284   9.197   6.968   6.124
20803TIP3   OH262285   9.346   7.300   6.308
20803TIP3    H162286   9.420   7.258   6.354
20803TIP3    H262287   9.392   7.344   6.235
20804TIP3   OH262288   9.807   6.901   6.355
20804TIP3    H162289   9.836   6.973   6.297
20804TIP3    H262290   9.785   6.832   6.292
20805TIP3   OH262291   9.454   7.032   6.460
20805TIP3    H162292   9.548   7.058   6.457
20805TIP3    H262293   9.447   7.000   6.368
20806TIP3   OH262294   9.174   7.542   5.901
20806TIP3    H162295   9.138   7.570   5.816
20806TIP3    H262296   9.205   7.627   5.939
20807TIP3   OH262297  10.122   7.346   5.661
20807TIP3    H162298  10.046   7.406   5.676
20807TIP3    H262299  10.187   7.408   5.627
20808TIP3   OH262300  10.085   7.149   5.448
20808TIP3    H162301  10.123   7.187   5.530
20808TIP3    H262302  10.156   7.092   5.414
20809TIP3   OH262303   9.569   7.278   5.920
20809TIP3    H162304   9.501   7.322   5.867
20809TIP3    H262305   9.529   7.195   5.946
20810TIP3   OH262306  10.123   6.732   5.581
20810TIP3    H162307  10.090   6.729   5.673
20810TIP3    H262308  10.082   6.650   5.547
20811TIP3   OH262309   9.762   7.070   6.134
20811TIP3    H162310   9.673   7.039   6.161
20811TIP3    H262311   9.769   7.032   6.045
20812TIP3   OH262312   9.769   6.701   5.547
20812TIP3    H162313   9.764   6.695   5.645
20812TIP3    H262314   9.686   6.748   5.528
20813TIP3   OH262315   9.308   6.741   6.418
20813TIP3    H162316   9.379   6.778   6.473
20813TIP3    H262317   9.353   6.719   6.336
20814TIP3   OH262318   9.286   6.727   5.939
20814TIP3    H162319   9.333   6.764   5.862
20814TIP3    H262320   9.227   6.802   5.960
20815TIP3   OH262321   9.527   6.950   6.205
20815TIP3    H162322   9.434   6.963   6.176
20815TIP3    H262323   9.547   6.858   6.175
20816TIP3   OH262324   9.785   6.940   5.894
20816TIP3    H162325   9.875   6.969   5.873
20816TIP3    H262326   9.733   6.970   5.816
20817TIP3   OH262327   9.638   6.991   5.673
20817TIP3    H162328   9.570   6.945   5.620
20817TIP3    H262329   9.697   7.024   5.602
20818TIP3   OH262330   9.582   6.691   6.142
20818TIP3    H162331   9.616   6.628   6.209
20818TIP3    H262332   9.519   6.636   6.095
20819TIP3   OH262333   9.893   7.522   5.668
20819TIP3    H162334   9.829   7.448   5.672
20819TIP3    H262335   9.891   7.555   5.759
20820TIP3   OH262336  10.360   6.865   5.538
20820TIP3    H162337  10.270   6.830   5.557
20820TIP3    H262338  10.353   6.957   5.565
20821TIP3   OH262339   9.258   7.146   5.689
20821TIP3    H162340   9.307   7.229   5.709
20821TIP3    H262341   9.183   7.154   5.752
20822TIP3   OH262342   9.704   7.688   5.300
20822TIP3    H162343   9.709   7.596   5.269
20822TIP3    H262344   9.675   7.676   5.393
20823TIP3   OH262345   9.644   7.701   5.572
20823TIP3    H162346   9.713   7.652   5.620
20823TIP3    H262347   9.666   7.793   5.589
20824TIP3   OH262348   9.368   7.391   5.770
20824TIP3    H162349   9.309   7.439   5.831
20824TIP3    H262350   9.391   7.462   5.707
20825TIP3   OH262351  10.398   6.756   5.803
20825TIP3    H162352  10.408   6.788   5.712
20825TIP3    H262353  10.401   6.839   5.855
20826TIP3   OH262354  10.055   6.987   5.907
20826TIP3    H162355  10.153   6.982   5.908
20826TIP3    H262356  10.038   7.016   5.998
20827TIP3   OH262357  10.241   6.673   6.037
20827TIP3    H162358  10.289   6.708   6.114
20827TIP3    H262359  10.300   6.701   5.964
20828TIP3   OH262360   9.748   6.677   5.819
20828TIP3    H162361   9.743   6.765   5.863
20828TIP3    H262362   9.842   6.656   5.837
20829TIP3   OH262363   9.365   7.605   5.579
20829TIP3    H162364   9.427   7.680   5.587
20829TIP3    H262365   9.415   7.551   5.514
20830TIP3   OH262366   9.314   6.877   5.713
20830TIP3    H162367   9.314   6.974   5.707
20830TIP3    H262368   9.231   6.854   5.669
20831TIP3   OH262369   9.688   6.603   6.602
20831TIP3    H162370   9.680   6.572   6.510
20831TIP3    H262371   9.694   6.519   6.652
20832TIP3   OH262372   9.235   7.800   5.981
20832TIP3    H162373   9.165   7.852   6.023
20832TIP3    H262374   9.248   7.854   5.901
20833TIP3   OH262375   9.858   7.897   5.213
20833TIP3    H162376   9.802   7.827   5.252
20833TIP3    H262377   9.935   7.847   5.184
20834TIP3   OH262378   9.506   7.416   5.432
20834TIP3    H162379   9.557   7.379   5.506
20834TIP3    H262380   9.574   7.418   5.362
20835TIP3   OH262381  10.009   7.611   5.239
20835TIP3    H162382   9.984   7.625   5.331
20835TIP3    H262383  10.008   7.513   5.234
20836TIP3   OH262384   9.704   7.318   5.653
20836TIP3    H162385   9.691   7.292   5.747
20836TIP3    H262386   9.740   7.236   5.614
20837TIP3   OH262387   9.811   7.107   5.495
20837TIP3    H162388   9.783   7.112   5.402
20837TIP3    H262389   9.907   7.122   5.486
20838TIP3   OH262390   3.967   2.524  -0.255
20838TIP3    H162391   4.058   2.508  -0.280
20838TIP3    H262392   3.932   2.562  -0.338
20839TIP3   OH262393   9.098   7.555   5.615
20839TIP3    H162394   9.193   7.579   5.604
20839TIP3    H262395   9.096   7.466   5.575
20840TIP3   OH262396   8.988   8.155   6.041
20840TIP3    H162397   8.920   8.096   6.001
20840TIP3    H262398   8.986   8.122   6.132
20841TIP3   OH262399   9.484   6.776   6.648
20841TIP3    H162400   9.550   6.705   6.632
20841TIP3    H262401   9.544   6.852   6.650
20842TIP3   OH262402   9.322   7.047   6.702
20842TIP3    H162403   9.359   7.018   6.616
20842TIP3    H262404   9.365   7.135   6.706
20843TIP3   OH262405   9.295   6.576   6.159
20843TIP3    H162406   9.203   6.578   6.192
20843TIP3    H262407   9.292   6.640   6.085
20844TIP3   OH262408   9.553   6.635   6.920
20844TIP3    H162409   9.538   6.666   7.010
20844TIP3    H262410   9.483   6.682   6.872
20845TIP3   OH262411   9.610   6.502   6.347
20845TIP3    H162412   9.521   6.463   6.351
20845TIP3    H262413   9.666   6.421   6.340
20846TIP3   OH262414   9.400   6.372   5.986
20846TIP3    H162415   9.430   6.429   5.913
20846TIP3    H262416   9.362   6.437   6.049
20847TIP3   OH262417  10.056   6.528   6.219
20847TIP3    H162418  10.105   6.585   6.158
20847TIP3    H262419  10.057   6.578   6.301
20848TIP3   OH262420   9.117   7.935   5.764
20848TIP3    H162421   9.029   7.911   5.729
20848TIP3    H262422   9.116   8.031   5.747
20849TIP3   OH262423   9.514   6.533   5.755
20849TIP3    H162424   9.561   6.471   5.696
20849TIP3    H262425   9.588   6.589   5.787
20850TIP3   OH262426  10.030   6.713   5.843
20850TIP3    H162427  10.092   6.677   5.909
20850TIP3    H262428  10.030   6.808   5.869
20851TIP3   OH262429   9.191   7.972   5.406
20851TIP3    H162430   9.187   8.001   5.499
20851TIP3    H262431   9.281   7.932   5.400
20852TIP3   OH262432   1.757   7.569   8.523
20852TIP3    H162433   1.789   7.646   8.575
20852TIP3    H262434   1.785   7.596   8.434
20853TIP3   OH262435   1.253   7.759   8.550
20853TIP3    H162436   1.276   7.666   8.568
20853TIP3    H262437   1.207   7.751   8.465
20854TIP3   OH262438   1.191   7.504   8.170
20854TIP3    H162439   1.269   7.493   8.230
20854TIP3    H262440   1.233   7.551   8.097
20855TIP3   OH262441   1.842   7.767   8.679
20855TIP3    H162442   1.817   7.854   8.647
20855TIP3    H262443   1.894   7.791   8.758
20856TIP3   OH262444   1.412   7.527   8.327
20856TIP3    H162445   1.407   7.473   8.407
20856TIP3    H262446   1.471   7.599   8.354
20857TIP3   OH262447   1.554   7.507   8.705
20857TIP3    H162448   1.468   7.508   8.659
20857TIP3    H262449   1.617   7.523   8.631
20858TIP3   OH262450  10.577   6.516   6.004
20858TIP3    H162451  10.501   6.460   5.980
20858TIP3    H262452  10.559   6.539   6.096
20859TIP3   OH262453   1.655   8.101   8.485
20859TIP3    H162454   1.623   8.180   8.530
20859TIP3    H262455   1.700   8.141   8.407
20860TIP3   OH262456   1.147   7.984   7.908
20860TIP3    H162457   1.082   7.999   7.980
20860TIP3    H262458   1.223   7.945   7.956
20861TIP3   OH262459   1.073   7.779   7.731
20861TIP3    H162460   1.071   7.849   7.800
20861TIP3    H262461   1.015   7.820   7.665
20862TIP3   OH262462   1.494   7.077   7.785
20862TIP3    H162463   1.414   7.093   7.840
20862TIP3    H262464   1.506   7.164   7.743
20863TIP3   OH262465   1.291   8.445   7.329
20863TIP3    H162466   1.303   8.542   7.323
20863TIP3    H262467   1.384   8.414   7.320
20864TIP3   OH262468   1.169   7.314   8.995
20864TIP3    H162469   1.246   7.273   9.040
20864TIP3    H262470   1.096   7.278   9.048
20865TIP3   OH262471   1.041   7.903   7.465
20865TIP3    H162472   1.032   7.855   7.380
20865TIP3    H262473   1.134   7.934   7.460
20866TIP3   OH262474   1.104   7.727   8.311
20866TIP3    H162475   1.022   7.753   8.266
20866TIP3    H262476   1.119   7.639   8.269
20867TIP3   OH262477   1.282   7.488   8.594
20867TIP3    H162478   1.241   7.506   8.682
20867TIP3    H262479   1.214   7.426   8.559
20868TIP3   OH262480   1.543   7.699   7.679
20868TIP3    H162481   1.481   7.660   7.615
20868TIP3    H262482   1.538   7.793   7.650
20869TIP3   OH262483   1.252   8.514   7.603
20869TIP3    H162484   1.208   8.460   7.671
20869TIP3    H262485   1.251   8.457   7.524
20870TIP3   OH262486   1.324   8.721   7.322
20870TIP3    H162487   1.377   8.790   7.276
20870TIP3    H262488   1.239   8.766   7.323
20871TIP3   OH262489   1.136   8.167   7.694
20871TIP3    H162490   1.127   8.104   7.769
20871TIP3    H262491   1.233   8.180   7.697
20872TIP3   OH262492   1.176   7.539   8.837
20872TIP3    H162493   1.190   7.596   8.914
20872TIP3    H262494   1.162   7.453   8.881
20873TIP3   OH262495   1.070   7.334   7.979
20873TIP3    H162496   0.996   7.394   7.956
20873TIP3    H262497   1.103   7.380   8.059
20874TIP3   OH262498   1.661   7.712   8.905
20874TIP3    H162499   1.585   7.678   8.954
20874TIP3    H262500   1.676   7.643   8.839
20875TIP3   OH262501   1.316   7.913   8.306
20875TIP3    H162502   1.241   7.852   8.311
20875TIP3    H262503   1.386   7.865   8.355
20876TIP3   OH262504   1.292   7.976   7.357
20876TIP3    H162505   1.274   7.928   7.274
20876TIP3    H262506   1.268   8.066   7.329
20877TIP3   OH262507   1.427   8.161   7.690
20877TIP3    H162508   1.497   8.225   7.667
20877TIP3    H262509   1.465   8.122   7.772
20878TIP3   OH262510   1.551   8.029   7.895
20878TIP3    H162511   1.487   7.986   7.956
20878TIP3    H262512   1.617   8.067   7.956
20879TIP3   OH262513   1.487   7.935   7.544
20879TIP3    H162514   1.417   7.946   7.476
20879TIP3    H262515   1.465   8.010   7.602
20880TIP3   OH262516   1.340   7.603   7.511
20880TIP3    H162517   1.329   7.683   7.457
20880TIP3    H262518   1.335   7.535   7.442
20881TIP3   OH262519   1.372   7.878   8.046
20881TIP3    H162520   1.408   7.789   8.059
20881TIP3    H262521   1.355   7.905   8.139
20882TIP3   OH262522   1.287   7.339   7.577
20882TIP3    H162523   1.379   7.305   7.567
20882TIP3    H262524   1.235   7.273   7.527
20883TIP3   OH262525   1.528   7.779   8.424
20883TIP3    H162526   1.620   7.804   8.398
20883TIP3    H262527   1.521   7.825   8.509
20884TIP3   OH262528   2.072   7.506   9.242
20884TIP3    H162529   2.102   7.439   9.178
20884TIP3    H262530   2.029   7.570   9.180
20885TIP3   OH262531   1.475   7.345   7.963
20885TIP3    H162532   1.518   7.341   8.051
20885TIP3    H262533   1.411   7.272   7.971
20886TIP3   OH262534   1.934   7.636   9.038
20886TIP3    H162535   1.850   7.654   9.086
20886TIP3    H262536   1.903   7.572   8.971
20887TIP3   OH262537   1.557   7.295   7.595
20887TIP3    H162538   1.600   7.215   7.557
20887TIP3    H262539   1.632   7.358   7.598
20888TIP3   OH262540   1.810   7.417   8.889
20888TIP3    H162541   1.718   7.393   8.867
20888TIP3    H262542   1.851   7.327   8.890
20889TIP3   OH262543   1.068   7.304   8.543
20889TIP3    H162544   1.044   7.228   8.597
20889TIP3    H262545   1.137   7.266   8.485
20890TIP3   OH262546   1.548   7.215   8.434
20890TIP3    H162547   1.584   7.263   8.356
20890TIP3    H262548   1.452   7.225   8.421
20891TIP3   OH262549   1.636   7.311   8.192
20891TIP3    H162550   1.708   7.259   8.151
20891TIP3    H262551   1.671   7.402   8.178
20892TIP3   OH262552   1.274   7.206   8.395
20892TIP3    H162553   1.275   7.166   8.307
20892TIP3    H262554   1.259   7.127   8.451
20893TIP3   OH262555   1.289   7.137   7.964
20893TIP3    H162556   1.203   7.182   7.972
20893TIP3    H262557   1.272   7.052   8.011
20894TIP3   OH262558   1.263   8.780   7.643
20894TIP3    H162559   1.265   8.682   7.636
20894TIP3    H262560   1.217   8.803   7.562
20895TIP3   OH262561   2.749   8.305   7.610
20895TIP3    H162562   2.722   8.394   7.579
20895TIP3    H262563   2.682   8.251   7.564
20896TIP3   OH262564   2.754   8.303   7.980
20896TIP3    H162565   2.783   8.263   8.063
20896TIP3    H262566   2.715   8.227   7.933
20897TIP3   OH262567   2.070   8.216   8.357
20897TIP3    H162568   2.092   8.143   8.419
20897TIP3    H262569   2.154   8.227   8.310
20898TIP3   OH262570   3.000   8.601   7.660
20898TIP3    H162571   2.983   8.529   7.721
20898TIP3    H262572   3.026   8.674   7.719
20899TIP3   OH262573   2.049   8.604   8.090
20899TIP3    H162574   2.024   8.509   8.087
20899TIP3    H262575   2.141   8.599   8.059
20900TIP3   OH262576   1.732   7.810   7.859
20900TIP3    H162577   1.684   7.894   7.869
20900TIP3    H262578   1.661   7.752   7.825
20901TIP3   OH262579   1.791   8.095   8.017
20901TIP3    H162580   1.839   8.022   8.062
20901TIP3    H262581   1.852   8.119   7.946
20902TIP3   OH262582   2.655   9.063   7.686
20902TIP3    H162583   2.698   8.999   7.625
20902TIP3    H262584   2.625   9.002   7.755
20903TIP3   OH262585   2.556   8.525   8.030
20903TIP3    H162586   2.585   8.446   7.980
20903TIP3    H262587   2.643   8.567   8.043
20904TIP3   OH262588   3.566   7.847   8.025
20904TIP3    H162589   3.595   7.931   8.066
20904TIP3    H262590   3.585   7.865   7.931
20905TIP3   OH262591   2.966   8.029   8.061
20905TIP3    H162592   3.008   7.943   8.080
20905TIP3    H262593   2.935   8.015   7.970
20906TIP3   OH262594   2.302   7.687   8.026
20906TIP3    H162595   2.281   7.759   7.963
20906TIP3    H262596   2.254   7.613   7.982
20907TIP3   OH262597   2.995   7.779   7.651
20907TIP3    H162598   3.070   7.762   7.712
20907TIP3    H262599   3.044   7.814   7.574
20908TIP3   OH262600   1.938   7.893   8.132
20908TIP3    H162601   2.019   7.867   8.180
20908TIP3    H262602   1.947   7.836   8.052
20909TIP3   OH262603   2.376   8.087   7.931
20909TIP3    H162604   2.471   8.062   7.939
20909TIP3    H262605   2.337   8.004   7.895
20910TIP3   OH262606   3.641   8.056   8.193
20910TIP3    H162607   3.557   8.102   8.173
20910TIP3    H262608   3.644   8.068   8.289
20911TIP3   OH262609   2.301   7.666   8.452
20911TIP3    H162610   2.239   7.704   8.387
20911TIP3    H262611   2.251   7.682   8.535
20912TIP3   OH262612   2.650   8.522   7.469
20912TIP3    H162613   2.613   8.495   7.384
20912TIP3    H262614   2.600   8.604   7.487
20913TIP3   OH262615   2.404   8.450   8.259
20913TIP3    H162616   2.342   8.512   8.299
20913TIP3    H262617   2.442   8.501   8.185
20914TIP3   OH262618   3.210   7.778   7.818
20914TIP3    H162619   3.203   7.726   7.898
20914TIP3    H262620   3.264   7.853   7.846
20915TIP3   OH262621   2.168   7.786   8.243
20915TIP3    H162622   2.233   7.857   8.267
20915TIP3    H262623   2.217   7.744   8.169
20916TIP3   OH262624   1.632   8.328   7.589
20916TIP3    H162625   1.590   8.354   7.506
20916TIP3    H262626   1.661   8.413   7.627
20917TIP3   OH262627   3.071   8.837   7.833
20917TIP3    H162628   2.979   8.836   7.869
20917TIP3    H262629   3.068   8.919   7.778
20918TIP3   OH262630   3.358   7.751   8.193
20918TIP3    H162631   3.269   7.775   8.162
20918TIP3    H262632   3.415   7.778   8.118
20919TIP3   OH262633   2.659   7.391   8.173
20919TIP3    H162634   2.647   7.296   8.189
20919TIP3    H262635   2.580   7.427   8.219
20920TIP3   OH262636   2.771   8.894   7.506
20920TIP3    H162637   2.819   8.811   7.484
20920TIP3    H262638   2.832   8.958   7.461
20921TIP3   OH262639   2.911   8.678   7.410
20921TIP3    H162640   2.869   8.600   7.371
20921TIP3    H262641   2.949   8.641   7.492
20922TIP3   OH262642   3.300   8.758   8.173
20922TIP3    H162643   3.286   8.679   8.116
20922TIP3    H262644   3.282   8.830   8.108
20923TIP3   OH262645   2.591   8.156   7.426
20923TIP3    H162646   2.509   8.203   7.402
20923TIP3    H262647   2.638   8.155   7.341
20924TIP3   OH262648   2.548   7.933   7.155
20924TIP3    H162649   2.619   7.989   7.192
20924TIP3    H262650   2.601   7.871   7.102
20925TIP3   OH262651   3.492   8.398   8.018
20925TIP3    H162652   3.407   8.448   8.023
20925TIP3    H262653   3.519   8.418   7.926
20926TIP3   OH262654   2.925   8.203   7.421
20926TIP3    H162655   2.878   8.252   7.491
20926TIP3    H262656   3.017   8.205   7.451
20927TIP3   OH262657   3.169   8.275   8.308
20927TIP3    H162658   3.163   8.358   8.359
20927TIP3    H262659   3.082   8.277   8.263
20928TIP3   OH262660   2.165   8.233   7.818
20928TIP3    H162661   2.122   8.176   7.751
20928TIP3    H262662   2.242   8.179   7.844
20929TIP3   OH262663   2.292   8.617   7.963
20929TIP3    H162664   2.282   8.582   7.873
20929TIP3    H262665   2.387   8.601   7.980
20930TIP3   OH262666   2.299   8.205   8.178
20930TIP3    H162667   2.329   8.179   8.088
20930TIP3    H262668   2.344   8.290   8.192
20931TIP3   OH262669   2.826   8.851   7.948
20931TIP3    H162670   2.811   8.912   8.020
20931TIP3    H262671   2.817   8.764   7.994
20932TIP3   OH262672   2.782   8.103   7.213
20932TIP3    H162673   2.838   8.149   7.279
20932TIP3    H262674   2.810   8.154   7.133
20933TIP3   OH262675   2.514   8.776   7.509
20933TIP3    H162676   2.593   8.831   7.520
20933TIP3    H262677   2.454   8.834   7.460
20934TIP3   OH262678   3.291   7.335   7.276
20934TIP3    H162679   3.209   7.354   7.326
20934TIP3    H262680   3.303   7.417   7.224
20935TIP3   OH262681   2.030   8.076   7.628
20935TIP3    H162682   1.968   8.121   7.566
20935TIP3    H262683   1.991   7.989   7.634
20936TIP3   OH262684   3.082   8.713   6.821
20936TIP3    H162685   3.104   8.806   6.805
20936TIP3    H262686   3.167   8.668   6.805
20937TIP3   OH262687   3.538   9.099   8.207
20937TIP3    H162688   3.541   9.002   8.220
20937TIP3    H262689   3.455   9.120   8.251
20938TIP3   OH262690   2.400   9.019   7.301
20938TIP3    H162691   2.353   8.997   7.219
20938TIP3    H262692   2.363   9.107   7.324
20939TIP3   OH262693   1.830   8.877   7.686
20939TIP3    H162694   1.892   8.845   7.755
20939TIP3    H262695   1.774   8.799   7.675
20940TIP3   OH262696   2.605   8.915   6.942
20940TIP3    H162697   2.663   8.843   6.909
20940TIP3    H262698   2.636   8.925   7.035
20941TIP3   OH262699   2.652   8.968   7.214
20941TIP3    H162700   2.562   8.980   7.254
20941TIP3    H262701   2.696   8.918   7.283
20942TIP3   OH262702   3.423   8.237   8.489
20942TIP3    H162703   3.341   8.248   8.438
20942TIP3    H262704   3.438   8.141   8.480
20943TIP3   OH262705   2.419   7.465   8.298
20943TIP3    H162706   2.329   7.434   8.275
20943TIP3    H262707   2.394   7.547   8.345
20944TIP3   OH262708   2.950   7.583   8.496
20944TIP3    H162709   3.018   7.554   8.560
20944TIP3    H262710   2.866   7.560   8.540
20945TIP3   OH262711   3.197   8.013   8.419
20945TIP3    H162712   3.144   8.005   8.501
20945TIP3    H262713   3.164   8.096   8.380
20946TIP3   OH262714   2.564   7.514   7.272
20946TIP3    H162715   2.531   7.513   7.364
20946TIP3    H262716   2.525   7.431   7.239
20947TIP3   OH262717   2.347   7.978   8.322
20947TIP3    H162718   2.308   8.005   8.408
20947TIP3    H262719   2.334   8.060   8.269
20948TIP3   OH262720   2.234   7.868   7.834
20948TIP3    H162721   2.141   7.841   7.850
20948TIP3    H262722   2.248   7.828   7.745
20949TIP3   OH262723   2.723   7.953   7.561
20949TIP3    H162724   2.671   8.025   7.519
20949TIP3    H262725   2.780   7.927   7.486
20950TIP3   OH262726   2.916   8.227   8.637
20950TIP3    H162727   2.883   8.159   8.701
20950TIP3    H262728   3.007   8.239   8.668
20951TIP3   OH262729   2.883   7.985   7.801
20951TIP3    H162730   2.824   8.014   7.728
20951TIP3    H262731   2.915   7.902   7.759
20952TIP3   OH262732   2.169   8.021   8.541
20952TIP3    H162733   2.201   8.067   8.622
20952TIP3    H262734   2.157   7.931   8.575
20953TIP3   OH262735   2.219   7.487   7.239
20953TIP3    H162736   2.211   7.485   7.336
20953TIP3    H262737   2.140   7.537   7.214
20954TIP3   OH262738   1.761   7.535   8.108
20954TIP3    H162739   1.837   7.564   8.163
20954TIP3    H262740   1.804   7.498   8.029
20955TIP3   OH262741   1.741   7.511   7.630
20955TIP3    H162742   1.784   7.549   7.551
20955TIP3    H262743   1.683   7.587   7.653
20956TIP3   OH262744   2.895   8.229   8.226
20956TIP3    H162745   2.926   8.157   8.167
20956TIP3    H262746   2.866   8.177   8.303
20957TIP3   OH262747   2.560   7.692   7.898
20957TIP3    H162748   2.476   7.687   7.949
20957TIP3    H262749   2.626   7.689   7.968
20958TIP3   OH262750   1.996   7.745   7.905
20958TIP3    H162751   1.901   7.750   7.878
20958TIP3    H262752   2.020   7.653   7.881
20959TIP3   OH262753   2.267   7.744   7.591
20959TIP3    H162754   2.361   7.757   7.570
20959TIP3    H262755   2.221   7.766   7.507
20960TIP3   OH262756   3.054   7.765   8.099
20960TIP3    H162757   3.016   7.776   8.189
20960TIP3    H262758   2.990   7.703   8.059
20961TIP3   OH262759   2.103   7.775   7.370
20961TIP3    H162760   2.033   7.729   7.319
20961TIP3    H262761   2.156   7.812   7.297
20962TIP3   OH262762   2.645   8.018   7.995
20962TIP3    H162763   2.714   7.976   7.940
20962TIP3    H262764   2.657   7.973   8.081
20963TIP3   OH262765   2.169   7.506   7.869
20963TIP3    H162766   2.137   7.425   7.914
20963TIP3    H262767   2.221   7.470   7.796
20964TIP3   OH262768   2.621   7.912   8.283
20964TIP3    H162769   2.531   7.947   8.299
20964TIP3    H262770   2.678   7.971   8.336
20965TIP3   OH262771   2.354   8.305   7.380
20965TIP3    H162772   2.282   8.239   7.370
20965TIP3    H262773   2.339   8.336   7.472
20966TIP3   OH262774   3.259   8.541   8.010
20966TIP3    H162775   3.282   8.589   7.928
20966TIP3    H262776   3.173   8.499   7.987
20967TIP3   OH262777   2.818   7.617   7.244
20967TIP3    H162778   2.720   7.603   7.245
20967TIP3    H262779   2.826   7.714   7.257
20968TIP3   OH262780   2.792   8.588   8.350
20968TIP3    H162781   2.791   8.566   8.444
20968TIP3    H262782   2.713   8.643   8.344
20969TIP3   OH262783   2.884   7.870   7.341
20969TIP3    H162784   2.981   7.876   7.355
20969TIP3    H262785   2.867   7.947   7.284
20970TIP3   OH262786   2.052   8.328   8.053
20970TIP3    H162787   2.086   8.301   7.965
20970TIP3    H262788   2.087   8.257   8.109
20971TIP3   OH262789   2.498   8.457   7.204
20971TIP3    H162790   2.451   8.542   7.210
20971TIP3    H262791   2.443   8.399   7.261
20972TIP3   OH262792   2.669   8.342   8.651
20972TIP3    H162793   2.641   8.318   8.560
20972TIP3    H262794   2.764   8.317   8.646
20973TIP3   OH262795   2.954   8.873   8.276
20973TIP3    H162796   2.859   8.881   8.297
20973TIP3    H262797   2.994   8.928   8.344
20974TIP3   OH262798   3.332   7.954   7.176
20974TIP3    H162799   3.269   7.907   7.116
20974TIP3    H262800   3.322   8.043   7.137
20975TIP3   OH262801   3.547   8.816   8.257
20975TIP3    H162802   3.449   8.804   8.247
20975TIP3    H262803   3.575   8.783   8.169
20976TIP3   OH262804   3.032   8.769   7.086
20976TIP3    H162805   3.009   8.692   7.141
20976TIP3    H262806   3.038   8.728   6.997
20977TIP3   OH262807   3.021   8.403   7.932
20977TIP3    H162808   2.928   8.373   7.942
20977TIP3    H262809   3.059   8.326   7.885
20978TIP3   OH262810   2.154   8.628   7.679
20978TIP3    H162811   2.154   8.707   7.622
20978TIP3    H262812   2.058   8.617   7.692
20979TIP3   OH262813   1.713   7.936   7.380
20979TIP3    H162814   1.761   8.019   7.400
20979TIP3    H262815   1.637   7.943   7.441
20980TIP3   OH262816   2.295   8.396   7.630
20980TIP3    H162817   2.257   8.485   7.642
20980TIP3    H262818   2.252   8.347   7.701
20981TIP3   OH262819   2.070   8.859   7.536
20981TIP3    H162820   1.983   8.882   7.573
20981TIP3    H262821   2.111   8.949   7.527
20982TIP3   OH262822   2.825   8.609   8.083
20982TIP3    H162823   2.828   8.592   8.180
20982TIP3    H262824   2.896   8.550   8.052
20983TIP3   OH262825   3.076   9.127   8.117
20983TIP3    H162826   2.989   9.100   8.150
20983TIP3    H262827   3.054   9.195   8.051
20984TIP3   OH262828   3.128   8.984   6.807
20984TIP3    H162829   3.160   9.062   6.759
20984TIP3    H262830   3.045   9.021   6.842
20985TIP3   OH262831   2.158   7.740   8.668
20985TIP3    H162832   2.079   7.775   8.713
20985TIP3    H262833   2.186   7.675   8.735
20986TIP3   OH262834   2.143   8.485   6.989
20986TIP3    H162835   2.170   8.397   6.957
20986TIP3    H262836   2.128   8.467   7.083
20987TIP3   OH262837   2.093   8.486   7.265
20987TIP3    H162838   2.169   8.459   7.318
20987TIP3    H262839   2.099   8.584   7.269
20988TIP3   OH262840   1.832   8.180   7.463
20988TIP3    H162841   1.767   8.226   7.520
20988TIP3    H262842   1.849   8.249   7.396
20989TIP3   OH262843   2.976   7.819   8.358
20989TIP3    H162844   3.057   7.852   8.399
20989TIP3    H262845   2.959   7.737   8.409
20990TIP3   OH262846   2.855   7.571   7.519
20990TIP3    H162847   2.841   7.592   7.425
20990TIP3    H262848   2.894   7.654   7.553
20991TIP3   OH262849   2.358   8.688   7.216
20991TIP3    H162850   2.270   8.718   7.245
20991TIP3    H262851   2.375   8.749   7.143
20992TIP3   OH262852   2.549   7.746   7.623
20992TIP3    H162853   2.614   7.817   7.602
20992TIP3    H262854   2.555   7.742   7.720
20993TIP3   OH262855   2.816   8.066   8.429
20993TIP3    H162856   2.841   8.117   8.509
20993TIP3    H262857   2.869   7.985   8.440
20994TIP3   OH262858   2.696   7.479   7.728
20994TIP3    H162859   2.686   7.557   7.785
20994TIP3    H262860   2.754   7.515   7.657
20995TIP3   OH262861   2.100   8.760   7.275
20995TIP3    H162862   2.071   8.829   7.211
20995TIP3    H262863   2.083   8.803   7.361
20996TIP3   OH262864   2.203   7.472   7.517
20996TIP3    H162865   2.202   7.563   7.551
20996TIP3    H262866   2.299   7.452   7.524
20997TIP3   OH262867   3.462   7.968   8.407
20997TIP3    H162868   3.364   7.969   8.420
20997TIP3    H262869   3.465   7.920   8.323
20998TIP3   OH262870   3.108   8.164   7.804
20998TIP3    H162871   3.032   8.103   7.810
20998TIP3    H262872   3.179   8.113   7.848
20999TIP3   OH262873   1.819   8.394   7.270
20999TIP3    H162874   1.885   8.464   7.279
20999TIP3    H262875   1.865   8.339   7.203
21000TIP3   OH262876   1.765   7.666   7.408
21000TIP3    H162877   1.766   7.763   7.399
21000TIP3    H262878   1.695   7.641   7.347
21001TIP3   OH262879   3.083   9.091   7.726
21001TIP3    H162880   3.038   9.143   7.656
21001TIP3    H262881   3.176   9.118   7.709
21002TIP3   OH262882   2.154   7.386   8.278
21002TIP3    H162883   2.121   7.353   8.192
21002TIP3    H262884   2.143   7.307   8.336
21003TIP3   OH262885   1.699   8.617   7.664
21003TIP3    H162886   1.614   8.634   7.707
21003TIP3    H262887   1.678   8.647   7.573
21004TIP3   OH262888   2.314   8.685   6.906
21004TIP3    H162889   2.256   8.614   6.942
21004TIP3    H262890   2.388   8.632   6.874
21005TIP3   OH262891   2.760   8.719   6.814
21005TIP3    H162892   2.819   8.658   6.861
21005TIP3    H262893   2.810   8.729   6.730
21006TIP3   OH262894   1.954   8.204   7.122
21006TIP3    H162895   2.011   8.169   7.193
21006TIP3    H262896   2.020   8.208   7.049
21007TIP3   OH262897   2.450   8.401   6.930
21007TIP3    H162898   2.479   8.416   7.023
21007TIP3    H262899   2.460   8.304   6.924
21008TIP3   OH262900   3.092   8.632   8.305
21008TIP3    H162901   3.156   8.688   8.258
21008TIP3    H262902   3.012   8.687   8.297
21009TIP3   OH262903   2.164   8.104   7.346
21009TIP3    H162904   2.141   8.057   7.427
21009TIP3    H262905   2.202   8.032   7.291
21010TIP3   OH262906   2.439   8.151   8.553
21010TIP3    H162907   2.381   8.212   8.602
21010TIP3    H262908   2.484   8.209   8.488
21011TIP3   OH262909   2.264   7.898   7.187
21011TIP3    H162910   2.238   7.899   7.092
21011TIP3    H262911   2.362   7.905   7.179
21012TIP3   OH262912   2.972   8.586   8.702
21012TIP3    H162913   3.034   8.543   8.642
21012TIP3    H262914   2.953   8.513   8.765
21013TIP3   OH262915   2.580   7.948   8.666
21013TIP3    H162916   2.572   7.867   8.612
21013TIP3    H262917   2.529   8.013   8.612
21014TIP3   OH262918   2.560   7.734   8.495
21014TIP3    H162919   2.585   7.777   8.411
21014TIP3    H262920   2.465   7.714   8.480
21015TIP3   OH262921   2.595   8.294   8.382
21015TIP3    H162922   2.669   8.282   8.321
21015TIP3    H262923   2.535   8.353   8.332
21016TIP3   OH262924   3.179   8.244   8.766
21016TIP3    H162925   3.224   8.158   8.762
21016TIP3    H262926   3.246   8.304   8.732
21017TIP3   OH262927   3.211   8.495   8.497
21017TIP3    H162928   3.153   8.546   8.436
21017TIP3    H262929   3.297   8.513   8.453
21018TIP3   OH262930   2.472   8.029   8.897
21018TIP3    H162931   2.377   8.004   8.890
21018TIP3    H262932   2.502   8.004   8.807
21019TIP3   OH262933   2.693   7.506   8.570
21019TIP3    H162934   2.644   7.588   8.546
21019TIP3    H262935   2.622   7.439   8.560
21020TIP3   OH262936   2.818   8.021   8.782
21020TIP3    H162937   2.810   8.004   8.877
21020TIP3    H262938   2.731   7.990   8.749
21021TIP3   OH262939   3.059   7.960   8.645
21021TIP3    H162940   2.982   7.966   8.705
21021TIP3    H262941   3.129   7.926   8.705
21022TIP3   OH262942   3.296   7.900   8.792
21022TIP3    H162943   3.302   7.803   8.806
21022TIP3    H262944   3.286   7.933   8.884
21023TIP3   OH262945   2.265   7.838   8.948
21023TIP3    H162946   2.284   7.748   8.916
21023TIP3    H262947   2.263   7.824   9.044
21024TIP3   OH262948   2.784   7.515   8.827
21024TIP3    H162949   2.853   7.446   8.822
21024TIP3    H262950   2.745   7.509   8.738
21025TIP3   OH262951   2.860   7.726   8.983
21025TIP3    H162952   2.828   7.657   8.921
21025TIP3    H262953   2.785   7.789   8.987
21026TIP3   OH262954   2.071   8.959   7.087
21026TIP3    H162955   2.166   8.961   7.069
21026TIP3    H262956   2.039   9.010   7.010
21027TIP3   OH262957   1.551   8.343   7.307
21027TIP3    H162958   1.645   8.367   7.294
21027TIP3    H262959   1.549   8.254   7.266
21028TIP3   OH262960   3.325   9.209   7.701
21028TIP3    H162961   3.352   9.233   7.792
21028TIP3    H262962   3.389   9.257   7.647
21029TIP3   OH262963   3.374   9.220   7.970
21029TIP3    H162964   3.325   9.136   7.977
21029TIP3    H262965   3.438   9.209   8.041
21030TIP3   OH262966   3.384   8.900   8.543
21030TIP3    H162967   3.291   8.882   8.567
21030TIP3    H262968   3.375   8.979   8.488
21031TIP3   OH262969   3.248   8.421   7.177
21031TIP3    H162970   3.321   8.483   7.166
21031TIP3    H262971   3.269   8.376   7.261
21032TIP3   OH262972   3.355   8.284   7.389
21032TIP3    H162973   3.284   8.240   7.441
21032TIP3    H262974   3.408   8.327   7.458
21033TIP3   OH262975   3.404   8.678   7.820
21033TIP3    H162976   3.455   8.613   7.766
21033TIP3    H262977   3.391   8.751   7.756
21034TIP3   OH262978   3.253   8.966   8.003
21034TIP3    H162979   3.185   9.016   8.054
21034TIP3    H262980   3.197   8.919   7.938
21035TIP3   OH262981   3.271   8.200   7.021
21035TIP3    H162982   3.181   8.196   6.983
21035TIP3    H262983   3.257   8.279   7.078
21036TIP3   OH262984   3.164   7.865   6.984
21036TIP3    H162985   3.113   7.910   6.915
21036TIP3    H262986   3.134   7.772   6.972
21037TIP3   OH262987   3.175   8.141   7.536
21037TIP3    H162988   3.169   8.045   7.524
21037TIP3    H262989   3.154   8.153   7.631
21038TIP3   OH262990   1.798   8.196   8.280
21038TIP3    H162991   1.788   8.193   8.183
21038TIP3    H262992   1.894   8.215   8.289
21039TIP3   OH262993   3.452   8.564   8.384
21039TIP3    H162994   3.523   8.497   8.376
21039TIP3    H262995   3.475   8.629   8.316
21040TIP3   OH262996   3.641   8.376   8.412
21040TIP3    H162997   3.565   8.324   8.445
21040TIP3    H262998   3.712   8.310   8.424
21041TIP3   OH262999   3.102   7.600   6.976
21041TIP3    H163000   3.175   7.567   7.031
21041TIP3    H263001   3.027   7.542   6.998
21042TIP3   OH263002   3.160   7.859   7.431
21042TIP3    H163003   3.200   7.770   7.444
21042TIP3    H263004   3.215   7.891   7.358
21043TIP3   OH263005   3.323   8.034   7.921
21043TIP3    H163006   3.409   8.060   7.881
21043TIP3    H263007   3.336   8.069   8.011
21044TIP3   OH263008   3.391   8.176   8.155
21044TIP3    H163009   3.311   8.208   8.202
21044TIP3    H263010   3.421   8.258   8.109
21045TIP3   OH263011   2.006   7.843   8.875
21045TIP3    H163012   2.097   7.870   8.900
21045TIP3    H263013   1.984   7.785   8.951
21046TIP3   OH263014   3.843   7.767   8.710
21046TIP3    H163015   3.899   7.699   8.666
21046TIP3    H263016   3.815   7.822   8.634
21047TIP3   OH263017   3.269   7.607   7.465
21047TIP3    H163018   3.316   7.590   7.549
21047TIP3    H263019   3.208   7.530   7.461
21048TIP3   OH263020   1.968   7.592   8.282
21048TIP3    H163021   2.031   7.519   8.294
21048TIP3    H263022   2.028   7.668   8.280
21049TIP3   OH263023   1.782   7.862   8.364
21049TIP3    H163024   1.830   7.862   8.279
21049TIP3    H263025   1.777   7.957   8.385
21050TIP3   OH263026   3.715   7.909   8.516
21050TIP3    H163027   3.626   7.946   8.536
21050TIP3    H263028   3.689   7.836   8.457
21051TIP3   OH263029   3.354   7.543   7.100
21051TIP3    H163030   3.387   7.470   7.043
21051TIP3    H263031   3.418   7.614   7.083
21052TIP3   OH263032   1.754   7.371   7.859
21052TIP3    H163033   1.660   7.372   7.885
21052TIP3    H263034   1.754   7.430   7.780
21053TIP3   OH263035   2.919   9.073   7.366
21053TIP3    H163036   2.961   9.050   7.280
21053TIP3    H263037   2.975   9.145   7.395
21054TIP3   OH263038   1.976   7.447   8.666
21054TIP3    H163039   1.925   7.446   8.749
21054TIP3    H263040   1.911   7.484   8.605
21055TIP3   OH263041   3.611   7.670   8.393
21055TIP3    H163042   3.520   7.664   8.361
21055TIP3    H263043   3.641   7.577   8.381
21056TIP3   OH263044   2.778   9.150   8.037
21056TIP3    H163045   2.697   9.120   7.994
21056TIP3    H263046   2.828   9.186   7.961
21057TIP3   OH263047   3.020   9.300   7.891
21057TIP3    H163048   2.995   9.358   7.818
21057TIP3    H263049   3.056   9.224   7.840
21058TIP3   OH263050   1.987   8.779   7.883
21058TIP3    H163051   2.017   8.701   7.934
21058TIP3    H263052   2.029   8.852   7.932
21059TIP3   OH263053   2.260   8.898   7.903
21059TIP3    H163054   2.257   8.802   7.887
21059TIP3    H263055   2.195   8.932   7.840
21060TIP3   OH263056   2.817   7.586   8.014
21060TIP3    H163057   2.772   7.516   8.065
21060TIP3    H263058   2.885   7.536   7.965
21061TIP3   OH263059   3.342   7.469   7.922
21061TIP3    H163060   3.378   7.518   7.844
21061TIP3    H263061   3.246   7.481   7.911
21062TIP3   OH263062   3.436   7.566   7.683
21062TIP3    H163063   3.508   7.515   7.640
21062TIP3    H263064   3.467   7.658   7.666
21063TIP3   OH263065   2.065   7.294   8.030
21063TIP3    H163066   1.973   7.260   8.030
21063TIP3    H263067   2.115   7.209   8.027
21064TIP3   OH263068   1.846   7.163   7.673
21064TIP3    H163069   1.882   7.220   7.603
21064TIP3    H263070   1.823   7.228   7.743
21065TIP3   OH263071   2.506   7.327   7.908
21065TIP3    H163072   2.567   7.377   7.851
21065TIP3    H263073   2.528   7.363   7.995
21066TIP3   OH263074   3.061   7.472   7.893
21066TIP3    H163075   3.052   7.438   7.803
21066TIP3    H263076   3.044   7.390   7.946
21067TIP3   OH263077   3.086   7.394   7.455
21067TIP3    H163078   2.998   7.435   7.461
21067TIP3    H263079   3.070   7.309   7.502
21068TIP3   OH263080   1.570   8.725   7.456
21068TIP3    H163081   1.483   8.694   7.423
21068TIP3    H263082   1.560   8.820   7.441
21069TIP3   OH263083   1.967   7.323   7.441
21069TIP3    H163084   2.015   7.260   7.384
21069TIP3    H263085   2.041   7.377   7.477
21070TIP3   OH263086   2.480   7.496   7.540
21070TIP3    H163087   2.541   7.449   7.598
21070TIP3    H263088   2.503   7.589   7.563
21071TIP3   OH263089   2.341   8.925   7.036
21071TIP3    H163090   2.430   8.946   7.000
21071TIP3    H263091   2.319   8.848   6.978
21072TIP3   OH263092   3.059   9.036   7.130
21072TIP3    H163093   3.052   8.939   7.116
21072TIP3    H263094   3.013   9.069   7.050
21073TIP3   OH263095   2.276   7.560   8.910
21073TIP3    H163096   2.238   7.497   8.974
21073TIP3    H263097   2.369   7.563   8.941
21074TIP3   OH263098   2.521   7.562   9.033
21074TIP3    H163099   2.607   7.542   8.992
21074TIP3    H263100   2.513   7.489   9.097
21075TIP3   OH263101   1.645   8.759   7.096
21075TIP3    H163102   1.646   8.787   7.188
21075TIP3    H263103   1.734   8.718   7.085
21076TIP3   OH263104   3.345   7.630   8.826
21076TIP3    H163105   3.365   7.600   8.918
21076TIP3    H263106   3.434   7.625   8.784
21077TIP3   OH263107   4.554   8.560   7.085
21077TIP3    H163108   4.525   8.651   7.066
21077TIP3    H263109   4.478   8.509   7.052
21078TIP3   OH263110   4.549   8.557   7.465
21078TIP3    H163111   4.580   8.524   7.551
21078TIP3    H263112   4.508   8.477   7.427
21079TIP3   OH263113   3.852   8.454   7.831
21079TIP3    H163114   3.883   8.386   7.893
21079TIP3    H263115   3.932   8.508   7.820
21080TIP3   OH263116   4.791   8.866   7.144
21080TIP3    H163117   4.781   8.791   7.205
21080TIP3    H263118   4.822   8.936   7.204
21081TIP3   OH263119   3.824   8.864   7.560
21081TIP3    H163120   3.812   8.767   7.562
21081TIP3    H263121   3.921   8.868   7.551
21082TIP3   OH263122   3.530   8.070   7.345
21082TIP3    H163123   3.475   8.150   7.356
21082TIP3    H263124   3.463   8.010   7.308
21083TIP3   OH263125   3.597   8.360   7.516
21083TIP3    H163126   3.640   8.278   7.550
21083TIP3    H263127   3.637   8.367   7.428
21084TIP3   OH263128   4.439   9.316   7.159
21084TIP3    H163129   4.491   9.246   7.116
21084TIP3    H263130   4.436   9.287   7.250
21085TIP3   OH263131   4.350   8.783   7.513
21085TIP3    H163132   4.384   8.704   7.467
21085TIP3    H263133   4.435   8.825   7.536
21086TIP3   OH263134   5.361   8.104   7.511
21086TIP3    H163135   5.391   8.186   7.554
21086TIP3    H263136   5.382   8.122   7.418
21087TIP3   OH263137   4.764   8.287   7.548
21087TIP3    H163138   4.804   8.200   7.567
21087TIP3    H263139   4.731   8.271   7.457
21088TIP3   OH263140   4.099   7.944   7.513
21088TIP3    H163141   4.076   8.016   7.449
21088TIP3    H263142   4.053   7.869   7.469
21089TIP3   OH263143   4.791   8.035   7.137
21089TIP3    H163144   4.864   8.017   7.201
21089TIP3    H263145   4.843   8.069   7.062
21090TIP3   OH263146   3.733   8.146   7.619
21090TIP3    H163147   3.816   8.122   7.666
21090TIP3    H263148   3.741   8.089   7.540
21091TIP3   OH263149   4.174   8.344   7.410
21091TIP3    H163150   4.267   8.317   7.425
21091TIP3    H263151   4.133   8.261   7.379
21092TIP3   OH263152   5.437   8.312   7.680
21092TIP3    H163153   5.353   8.358   7.659
21092TIP3    H263154   5.442   8.326   7.775
21093TIP3   OH263155   4.097   7.928   7.947
21093TIP3    H163156   4.036   7.962   7.879
21093TIP3    H263157   4.045   7.944   8.028
21094TIP3   OH263158   4.461   8.792   6.942
21094TIP3    H163159   4.401   8.748   6.880
21094TIP3    H263160   4.405   8.868   6.970
21095TIP3   OH263161   4.205   8.702   7.745
21095TIP3    H163162   4.138   8.764   7.782
21095TIP3    H263163   4.243   8.755   7.672
21096TIP3   OH263164   5.006   8.035   7.303
21096TIP3    H163165   5.002   7.978   7.381
21096TIP3    H263166   5.061   8.109   7.334
21097TIP3   OH263167   3.967   8.042   7.731
21097TIP3    H163168   4.031   8.114   7.753
21097TIP3    H263169   4.014   8.000   7.656
21098TIP3   OH263170   4.030   8.894   7.843
21098TIP3    H163171   4.001   8.975   7.797
21098TIP3    H263172   3.951   8.876   7.898
21099TIP3   OH263173   3.443   8.590   7.072
21099TIP3    H163174   3.374   8.604   7.005
21099TIP3    H263175   3.456   8.680   7.109
21100TIP3   OH263176   4.864   9.099   7.314
21100TIP3    H163177   4.774   9.093   7.353
21100TIP3    H263178   4.859   9.187   7.271
21101TIP3   OH263179   5.155   8.009   7.681
21101TIP3    H163180   5.066   8.031   7.649
21101TIP3    H263181   5.212   8.034   7.606
21102TIP3   OH263182   4.456   7.648   7.661
21102TIP3    H163183   4.443   7.553   7.676
21102TIP3    H263184   4.377   7.684   7.706
21103TIP3   OH263185   4.572   9.145   6.989
21103TIP3    H163186   4.625   9.065   6.972
21103TIP3    H263187   4.630   9.213   6.949
21104TIP3   OH263188   4.712   8.911   6.884
21104TIP3    H163189   4.631   8.859   6.898
21104TIP3    H263190   4.757   8.895   6.970
21105TIP3   OH263191   5.092   9.015   7.661
21105TIP3    H163192   5.083   8.938   7.601
21105TIP3    H263193   5.076   9.090   7.599
21106TIP3   OH263194   4.384   8.413   6.915
21106TIP3    H163195   4.299   8.455   6.891
21106TIP3    H263196   4.426   8.402   6.828
21107TIP3   OH263197   4.341   8.192   6.636
21107TIP3    H163198   4.413   8.239   6.681
21107TIP3    H263199   4.392   8.125   6.587
21108TIP3   OH263200   5.287   8.651   7.503
21108TIP3    H163201   5.204   8.704   7.509
21108TIP3    H263202   5.316   8.674   7.412
21109TIP3   OH263203   4.729   8.483   6.888
21109TIP3    H163204   4.675   8.514   6.965
21109TIP3    H263205   4.813   8.462   6.933
21110TIP3   OH263206   4.966   8.533   7.796
21110TIP3    H163207   4.960   8.617   7.843
21110TIP3    H263208   4.879   8.532   7.751
21111TIP3   OH263209   3.964   8.492   7.300
21111TIP3    H163210   3.918   8.433   7.236
21111TIP3    H263211   4.038   8.435   7.330
21112TIP3   OH263212   4.095   8.903   7.451
21112TIP3    H163213   4.069   8.852   7.373
21112TIP3    H263214   4.184   8.867   7.470
21113TIP3   OH263215   4.105   8.458   7.661
21113TIP3    H163216   4.131   8.439   7.569
21113TIP3    H263217   4.143   8.546   7.678
21114TIP3   OH263218   4.622   9.099   7.434
21114TIP3    H163219   4.610   9.178   7.490
21114TIP3    H263220   4.611   9.025   7.497
21115TIP3   OH263221   4.233   9.023   7.980
21115TIP3    H163222   4.171   9.078   8.030
21115TIP3    H263223   4.170   8.965   7.930
21116TIP3   OH263224   4.572   8.348   6.712
21116TIP3    H163225   4.630   8.404   6.769
21116TIP3    H263226   4.597   8.379   6.622
21117TIP3   OH263227   3.990   8.577   8.080
21117TIP3    H163228   3.992   8.661   8.130
21117TIP3    H263229   3.895   8.555   8.087
21118TIP3   OH263230   4.312   9.031   6.985
21118TIP3    H163231   4.388   9.084   7.014
21118TIP3    H263232   4.249   9.098   6.957
21119TIP3   OH263233   4.008   9.218   8.060
21119TIP3    H163234   3.986   9.183   7.971
21119TIP3    H263235   3.942   9.171   8.116
21120TIP3   OH263236   5.087   7.594   6.755
21120TIP3    H163237   5.009   7.607   6.813
21120TIP3    H263238   5.092   7.679   6.709
21121TIP3   OH263239   3.827   8.333   7.112
21121TIP3    H163240   3.762   8.376   7.053
21121TIP3    H263241   3.788   8.246   7.123
21122TIP3   OH263242   4.886   8.961   6.322
21122TIP3    H163243   4.896   9.054   6.291
21122TIP3    H263244   4.973   8.924   6.297
21123TIP3   OH263245   3.612   8.717   8.015
21123TIP3    H163246   3.545   8.696   7.947
21123TIP3    H263247   3.645   8.628   8.039
21124TIP3   OH263248   3.463   8.909   7.650
21124TIP3    H163249   3.559   8.905   7.641
21124TIP3    H263250   3.451   8.989   7.703
21125TIP3   OH263251   5.331   9.358   7.707
21125TIP3    H163252   5.328   9.261   7.716
21125TIP3    H263253   5.245   9.383   7.748
21126TIP3   OH263254   4.436   9.148   7.840
21126TIP3    H163255   4.434   9.241   7.872
21126TIP3    H263256   4.363   9.108   7.891
21127TIP3   OH263257   4.188   9.274   6.789
21127TIP3    H163258   4.151   9.266   6.699
21127TIP3    H263259   4.164   9.365   6.815
21128TIP3   OH263260   3.637   9.124   7.170
21128TIP3    H163261   3.678   9.114   7.259
21128TIP3    H263262   3.575   9.048   7.171
21129TIP3   OH263263   4.395   9.171   6.433
21129TIP3    H163264   4.453   9.100   6.400
21129TIP3    H263265   4.427   9.184   6.524
21130TIP3   OH263266   4.444   9.221   6.704
21130TIP3    H163267   4.355   9.231   6.746
21130TIP3    H263268   4.495   9.187   6.779
21131TIP3   OH263269   5.218   8.492   7.978
21131TIP3    H163270   5.138   8.505   7.924
21131TIP3    H263271   5.234   8.397   7.966
21132TIP3   OH263272   3.815   8.902   8.010
21132TIP3    H163273   3.865   8.879   8.091
21132TIP3    H263274   3.742   8.836   8.012
21133TIP3   OH263275   4.215   7.723   7.786
21133TIP3    H163276   4.126   7.690   7.761
21133TIP3    H263277   4.188   7.805   7.832
21134TIP3   OH263278   4.746   7.840   7.983
21134TIP3    H163279   4.813   7.809   8.047
21134TIP3    H263280   4.662   7.817   8.027
21135TIP3   OH263281   4.993   8.269   7.905
21135TIP3    H163282   4.941   8.263   7.988
21135TIP3    H263283   4.962   8.353   7.866
21136TIP3   OH263284   4.651   8.427   6.461
21136TIP3    H163285   4.604   8.387   6.385
21136TIP3    H263286   4.737   8.447   6.421
21137TIP3   OH263287   4.364   7.772   6.759
21137TIP3    H163288   4.328   7.770   6.850
21137TIP3    H263289   4.322   7.691   6.724
21138TIP3   OH263290   4.148   8.236   7.809
21138TIP3    H163291   4.094   8.256   7.888
21138TIP3    H263292   4.132   8.316   7.755
21139TIP3   OH263293   4.029   8.125   7.321
21139TIP3    H163294   3.936   8.097   7.338
21139TIP3    H263295   4.043   8.085   7.233
21140TIP3   OH263296   4.522   8.214   7.050
21140TIP3    H163297   4.467   8.283   7.008
21140TIP3    H263298   4.574   8.181   6.974
21141TIP3   OH263299   4.695   8.493   8.140
21141TIP3    H163300   4.671   8.418   8.199
21141TIP3    H263301   4.790   8.500   8.158
21142TIP3   OH263302   4.680   8.241   7.287
21142TIP3    H163303   4.619   8.268   7.216
21142TIP3    H263304   4.712   8.157   7.248
21143TIP3   OH263305   3.966   8.267   8.016
21143TIP3    H163306   3.987   8.328   8.089
21143TIP3    H263307   3.951   8.183   8.064
21144TIP3   OH263308   4.019   7.748   6.727
21144TIP3    H163309   4.008   7.738   6.823
21144TIP3    H263310   3.935   7.790   6.702
21145TIP3   OH263311   3.556   7.793   7.598
21145TIP3    H163312   3.637   7.818   7.647
21145TIP3    H263313   3.590   7.755   7.514
21146TIP3   OH263314   3.538   7.773   7.117
21146TIP3    H163315   3.580   7.812   7.038
21146TIP3    H263316   3.473   7.843   7.137
21147TIP3   OH263317   4.692   8.487   7.712
21147TIP3    H163318   4.723   8.414   7.653
21147TIP3    H263319   4.661   8.435   7.789
21148TIP3   OH263320   4.356   7.952   7.384
21148TIP3    H163321   4.272   7.945   7.433
21148TIP3    H263322   4.421   7.945   7.456
21149TIP3   OH263323   3.792   8.001   7.391
21149TIP3    H163324   3.697   8.009   7.365
21149TIP3    H263325   3.813   7.909   7.368
21150TIP3   OH263326   4.063   8.003   7.079
21150TIP3    H163327   4.157   8.013   7.054
21150TIP3    H263328   4.014   8.022   6.996
21151TIP3   OH263329   4.848   8.022   7.586
21151TIP3    H163330   4.810   8.033   7.676
21151TIP3    H263331   4.786   7.959   7.546
21152TIP3   OH263332   3.899   8.034   6.861
21152TIP3    H163333   3.825   7.988   6.819
21152TIP3    H263334   3.949   8.063   6.782
21153TIP3   OH263335   5.014   9.711   7.802
21153TIP3    H163336   5.013   9.731   7.706
21153TIP3    H263337   5.099   9.753   7.828
21154TIP3   OH263338   3.977   8.823   8.226
21154TIP3    H163339   4.055   8.853   8.277
21154TIP3    H263340   3.911   8.815   8.298
21155TIP3   OH263341   4.443   8.276   7.483
21155TIP3    H163342   4.509   8.229   7.430
21155TIP3    H263343   4.449   8.231   7.569
21156TIP3   OH263344   3.970   7.761   7.358
21156TIP3    H163345   3.932   7.681   7.401
21156TIP3    H263346   4.013   7.723   7.280
21157TIP3   OH263347   4.418   8.170   7.767
21157TIP3    H163348   4.327   8.203   7.783
21157TIP3    H263349   4.473   8.229   7.821
21158TIP3   OH263350   4.151   8.565   6.865
21158TIP3    H163351   4.082   8.495   6.854
21158TIP3    H263352   4.134   8.594   6.958
21159TIP3   OH263353   5.055   8.798   7.496
21159TIP3    H163354   5.080   8.846   7.414
21159TIP3    H263355   4.970   8.757   7.471
21160TIP3   OH263356   4.612   7.877   6.721
21160TIP3    H163357   4.516   7.856   6.734
21160TIP3    H263358   4.619   7.970   6.750
21161TIP3   OH263359   4.558   8.881   7.861
21161TIP3    H163360   4.568   8.850   7.951
21161TIP3    H263361   4.516   8.968   7.872
21162TIP3   OH263362   4.681   8.121   6.832
21162TIP3    H163363   4.778   8.125   6.847
21162TIP3    H263364   4.664   8.199   6.776
21163TIP3   OH263365   3.854   8.590   7.543
21163TIP3    H163366   3.884   8.556   7.456
21163TIP3    H263367   3.874   8.516   7.602
21164TIP3   OH263368   4.303   8.712   6.693
21164TIP3    H163369   4.252   8.796   6.696
21164TIP3    H263370   4.245   8.654   6.746
21165TIP3   OH263371   3.724   8.505   8.155
21165TIP3    H163372   3.743   8.484   8.249
21165TIP3    H263373   3.655   8.438   8.134
21166TIP3   OH263374   4.449   8.618   8.173
21166TIP3    H163375   4.389   8.559   8.125
21166TIP3    H263376   4.536   8.583   8.145
21167TIP3   OH263377   4.716   9.141   7.758
21167TIP3    H163378   4.619   9.135   7.768
21167TIP3    H263379   4.740   9.194   7.836
21168TIP3   OH263380   5.127   8.205   6.663
21168TIP3    H163381   5.062   8.160   6.605
21168TIP3    H263382   5.122   8.294   6.623
21169TIP3   OH263383   5.343   9.066   7.750
21169TIP3    H163384   5.245   9.062   7.740
21169TIP3    H263385   5.369   9.038   7.659
21170TIP3   OH263386   4.789   8.936   6.575
21170TIP3    H163387   4.827   8.982   6.654
21170TIP3    H263388   4.840   8.975   6.499
21171TIP3   OH263389   4.819   8.659   7.415
21171TIP3    H163390   4.727   8.632   7.428
21171TIP3    H263391   4.855   8.580   7.370
21172TIP3   OH263392   3.944   8.885   7.163
21172TIP3    H163393   3.942   8.970   7.114
21172TIP3    H263394   3.849   8.868   7.177
21173TIP3   OH263395   3.505   8.190   6.872
21173TIP3    H163396   3.549   8.275   6.892
21173TIP3    H263397   3.422   8.198   6.924
21174TIP3   OH263398   4.093   8.657   7.114
21174TIP3    H163399   4.050   8.743   7.132
21174TIP3    H263400   4.053   8.602   7.184
21175TIP3   OH263401   4.216   9.235   7.638
21175TIP3    H163402   4.255   9.303   7.581
21175TIP3    H263403   4.295   9.196   7.679
21176TIP3   OH263404   3.866   9.123   7.011
21176TIP3    H163405   3.782   9.130   7.062
21176TIP3    H263406   3.900   9.215   7.020
21177TIP3   OH263407   4.608   8.867   7.592
21177TIP3    H163408   4.600   8.863   7.690
21177TIP3    H263409   4.685   8.810   7.577
21178TIP3   OH263410   4.852   9.403   7.647
21178TIP3    H163411   4.775   9.345   7.634
21178TIP3    H263412   4.840   9.467   7.573
21179TIP3   OH263413   4.914   9.233   6.298
21179TIP3    H163414   4.956   9.300   6.241
21179TIP3    H263415   4.836   9.286   6.326
21180TIP3   OH263416   3.938   8.011   8.164
21180TIP3    H163417   3.841   8.015   8.176
21180TIP3    H263418   3.964   7.947   8.232
21181TIP3   OH263419   3.659   9.091   7.790
21181TIP3    H163420   3.704   9.017   7.834
21181TIP3    H263421   3.672   9.163   7.853
21182TIP3   OH263422   3.959   8.733   6.479
21182TIP3    H163423   3.960   8.642   6.442
21182TIP3    H263424   3.926   8.716   6.569
21183TIP3   OH263425   3.886   8.744   6.753
21183TIP3    H163426   3.957   8.705   6.806
21183TIP3    H263427   3.900   8.839   6.764
21184TIP3   OH263428   3.633   8.439   6.948
21184TIP3    H163429   3.565   8.481   7.006
21184TIP3    H263430   3.642   8.509   6.881
21185TIP3   OH263431   4.771   8.077   7.846
21185TIP3    H163432   4.855   8.108   7.883
21185TIP3    H263433   4.755   7.994   7.896
21186TIP3   OH263434   4.651   7.828   7.006
21186TIP3    H163435   4.638   7.851   6.912
21186TIP3    H263436   4.691   7.910   7.042
21187TIP3   OH263437   4.153   8.939   6.698
21187TIP3    H163438   4.084   8.986   6.745
21187TIP3    H263439   4.174   9.000   6.626
21188TIP3   OH263440   4.348   8.004   7.110
21188TIP3    H163441   4.413   8.075   7.094
21188TIP3    H263442   4.349   7.998   7.208
21189TIP3   OH263443   4.614   8.325   7.918
21189TIP3    H163444   4.631   8.376   7.999
21189TIP3    H263445   4.667   8.245   7.930
21190TIP3   OH263446   4.492   7.736   7.217
21190TIP3    H163447   4.483   7.815   7.273
21190TIP3    H263448   4.549   7.771   7.145
21191TIP3   OH263449   3.840   9.035   6.754
21191TIP3    H163450   3.896   9.109   6.722
21191TIP3    H263451   3.845   9.050   6.851
21192TIP3   OH263452   4.000   7.727   7.003
21192TIP3    H163453   3.997   7.818   7.038
21192TIP3    H263454   4.096   7.709   7.010
21193TIP3   OH263455   5.258   8.224   7.894
21193TIP3    H163456   5.161   8.225   7.906
21193TIP3    H263457   5.263   8.177   7.810
21194TIP3   OH263458   4.905   8.419   7.286
21194TIP3    H163459   4.829   8.359   7.297
21194TIP3    H263460   4.977   8.371   7.334
21195TIP3   OH263461   3.622   8.650   6.757
21195TIP3    H163462   3.699   8.708   6.771
21195TIP3    H263463   3.659   8.592   6.687
21196TIP3   OH263464   3.565   7.923   6.888
21196TIP3    H163465   3.556   8.020   6.886
21196TIP3    H263466   3.479   7.894   6.852
21197TIP3   OH263467   4.874   9.370   7.237
21197TIP3    H163468   4.832   9.417   7.161
21197TIP3    H263469   4.968   9.393   7.219
21198TIP3   OH263470   3.951   7.643   7.765
21198TIP3    H163471   3.918   7.610   7.678
21198TIP3    H263472   3.939   7.564   7.822
21199TIP3   OH263473   3.494   8.872   7.151
21199TIP3    H163474   3.415   8.893   7.202
21199TIP3    H263475   3.466   8.904   7.062
21200TIP3   OH263476   3.681   9.362   8.205
21200TIP3    H163477   3.754   9.328   8.260
21200TIP3    H263478   3.643   9.277   8.176
21201TIP3   OH263479   4.165   9.377   8.205
21201TIP3    H163480   4.244   9.345   8.252
21201TIP3    H263481   4.120   9.292   8.188
21202TIP3   OH263482   4.110   8.943   6.394
21202TIP3    H163483   4.053   8.869   6.428
21202TIP3    H263484   4.182   8.891   6.354
21203TIP3   OH263485   4.758   9.279   7.999
21203TIP3    H163486   4.755   9.203   8.062
21203TIP3    H263487   4.843   9.321   8.021
21204TIP3   OH263488   4.562   8.980   6.302
21204TIP3    H163489   4.655   8.971   6.328
21204TIP3    H263490   4.574   8.989   6.205
21205TIP3   OH263491   3.777   8.788   8.410
21205TIP3    H163492   3.794   8.692   8.407
21205TIP3    H263493   3.688   8.795   8.369
21206TIP3   OH263494   3.754   8.465   6.607
21206TIP3    H163495   3.802   8.419   6.678
21206TIP3    H263496   3.822   8.464   6.536
21207TIP3   OH263497   4.387   8.892   8.186
21207TIP3    H163498   4.342   8.900   8.100
21207TIP3    H263499   4.417   8.798   8.184
21208TIP3   OH263500   4.267   8.660   6.415
21208TIP3    H163501   4.270   8.672   6.511
21208TIP3    H263502   4.265   8.561   6.410
21209TIP3   OH263503   4.878   8.898   7.797
21209TIP3    H163504   4.950   8.944   7.751
21209TIP3    H263505   4.804   8.960   7.783
21210TIP3   OH263506   3.897   8.537   8.396
21210TIP3    H163507   3.967   8.472   8.380
21210TIP3    H263508   3.922   8.571   8.484
21211TIP3   OH263509   3.969   8.361   6.837
21211TIP3    H163510   3.932   8.318   6.915
21211TIP3    H263511   3.998   8.285   6.783
21212TIP3   OH263512   4.231   8.431   8.063
21212TIP3    H163513   4.151   8.487   8.065
21212TIP3    H263514   4.275   8.461   7.981
21213TIP3   OH263515   4.059   8.157   6.672
21213TIP3    H163516   4.031   8.153   6.578
21213TIP3    H263517   4.156   8.162   6.663
21214TIP3   OH263518   4.750   8.832   8.197
21214TIP3    H163519   4.824   8.803   8.142
21214TIP3    H263520   4.743   8.759   8.261
21215TIP3   OH263521   4.880   8.508   6.330
21215TIP3    H163522   4.854   8.447   6.257
21215TIP3    H263523   4.913   8.582   6.278
21216TIP3   OH263524   4.354   8.214   8.187
21216TIP3    H163525   4.352   8.133   8.133
21216TIP3    H263526   4.309   8.279   8.129
21217TIP3   OH263527   4.355   8.002   7.993
21217TIP3    H163528   4.381   8.040   7.906
21217TIP3    H263529   4.262   7.977   7.976
21218TIP3   OH263530   4.388   8.542   7.867
21218TIP3    H163531   4.466   8.541   7.810
21218TIP3    H263532   4.330   8.606   7.822
21219TIP3   OH263533   4.969   8.506   8.251
21219TIP3    H163534   5.011   8.419   8.256
21219TIP3    H263535   5.039   8.559   8.210
21220TIP3   OH263536   5.007   8.759   7.988
21220TIP3    H163537   4.949   8.810   7.926
21220TIP3    H263538   5.094   8.776   7.946
21221TIP3   OH263539   4.229   8.331   8.413
21221TIP3    H163540   4.161   8.262   8.429
21221TIP3    H263541   4.265   8.303   8.327
21222TIP3   OH263542   4.488   7.766   8.058
21222TIP3    H163543   4.438   7.848   8.036
21222TIP3    H263544   4.418   7.698   8.046
21223TIP3   OH263545   4.612   8.273   8.276
21223TIP3    H163546   4.600   8.259   8.371
21223TIP3    H263547   4.523   8.246   8.245
21224TIP3   OH263548   4.855   8.224   8.133
21224TIP3    H163549   4.777   8.220   8.191
21224TIP3    H263550   4.925   8.187   8.190
21225TIP3   OH263551   5.089   8.160   8.283
21225TIP3    H163552   5.097   8.064   8.302
21225TIP3    H263553   5.080   8.198   8.373
21226TIP3   OH263554   4.072   8.110   8.466
21226TIP3    H163555   4.076   8.019   8.431
21226TIP3    H263556   4.106   8.095   8.557
21227TIP3   OH263557   4.585   7.777   8.315
21227TIP3    H163558   4.650   7.705   8.310
21227TIP3    H263559   4.543   7.769   8.227
21228TIP3   OH263560   4.649   7.991   8.473
21228TIP3    H163561   4.626   7.919   8.411
21228TIP3    H263562   4.570   8.049   8.468
21229TIP3   OH263563   3.851   9.206   6.547
21229TIP3    H163564   3.949   9.210   6.540
21229TIP3    H263565   3.832   9.273   6.476
21230TIP3   OH263566   3.346   8.606   6.779
21230TIP3    H163567   3.443   8.621   6.777
21230TIP3    H263568   3.339   8.513   6.750
21231TIP3   OH263569   3.260   9.212   7.205
21231TIP3    H163570   3.193   9.150   7.169
21231TIP3    H263571   3.305   9.156   7.271
21232TIP3   OH263572   3.398   9.069   7.392
21232TIP3    H163573   3.384   8.991   7.449
21232TIP3    H263574   3.446   9.128   7.452
21233TIP3   OH263575   5.122   9.470   7.191
21233TIP3    H163576   5.154   9.511   7.273
21233TIP3    H263577   5.185   9.505   7.126
21234TIP3   OH263578   5.148   9.488   7.479
21234TIP3    H163579   5.115   9.396   7.470
21234TIP3    H263580   5.235   9.471   7.517
21235TIP3   OH263581   5.197   9.156   8.046
21235TIP3    H163582   5.123   9.166   8.109
21235TIP3    H263583   5.242   9.243   8.054
21236TIP3   OH263584   5.011   8.681   6.655
21236TIP3    H163585   5.089   8.738   6.635
21236TIP3    H263586   5.042   8.640   6.738
21237TIP3   OH263587   5.139   8.546   6.865
21237TIP3    H163588   5.077   8.501   6.926
21237TIP3    H263589   5.206   8.583   6.927
21238TIP3   OH263590   5.196   8.932   7.302
21238TIP3    H163591   5.252   8.871   7.251
21238TIP3    H263592   5.192   9.011   7.244
21239TIP3   OH263593   5.031   9.230   7.501
21239TIP3    H163594   4.960   9.277   7.548
21239TIP3    H263595   4.982   9.183   7.430
21240TIP3   OH263596   5.084   8.450   6.515
21240TIP3    H163597   5.008   8.452   6.454
21240TIP3    H263598   5.062   8.525   6.574
21241TIP3   OH263599   4.951   8.126   6.470
21241TIP3    H163600   4.913   8.152   6.385
21241TIP3    H263601   4.929   8.030   6.471
21242TIP3   OH263602   4.963   8.397   7.018
21242TIP3    H163603   4.967   8.300   7.013
21242TIP3    H263604   4.948   8.412   7.114
21243TIP3   OH263605   3.587   8.472   7.765
21243TIP3    H163606   3.585   8.442   7.672
21243TIP3    H263607   3.684   8.473   7.781
21244TIP3   OH263608   5.248   8.822   7.876
21244TIP3    H163609   5.321   8.757   7.866
21244TIP3    H263610   5.273   8.892   7.813
21245TIP3   OH263611   5.435   8.632   7.900
21245TIP3    H163612   5.359   8.579   7.933
21245TIP3    H263613   5.507   8.565   7.910
21246TIP3   OH263614   4.897   7.861   6.463
21246TIP3    H163615   4.973   7.826   6.514
21246TIP3    H263616   4.825   7.800   6.485
21247TIP3   OH263617   4.956   8.113   6.915
21247TIP3    H163618   4.994   8.024   6.932
21247TIP3    H263619   5.016   8.143   6.845
21248TIP3   OH263620   5.119   8.292   7.407
21248TIP3    H163621   5.205   8.318   7.369
21248TIP3    H263622   5.131   8.326   7.498
21249TIP3   OH263623   5.186   8.433   7.642
21249TIP3    H163624   5.107   8.466   7.689
21249TIP3    H263625   5.217   8.513   7.596
21250TIP3   OH263626   3.805   8.164   8.445
21250TIP3    H163627   3.902   8.152   8.442
21250TIP3    H263628   3.779   8.077   8.482
21251TIP3   OH263629   5.644   8.026   8.197
21251TIP3    H163630   5.695   7.956   8.152
21251TIP3    H263631   5.611   8.080   8.122
21252TIP3   OH263632   5.064   7.863   6.951
21252TIP3    H163633   5.111   7.844   7.035
21252TIP3    H263634   5.004   7.786   6.947
21253TIP3   OH263635   3.766   7.851   7.772
21253TIP3    H163636   3.827   7.775   7.780
21253TIP3    H263637   3.829   7.925   7.766
21254TIP3   OH263638   3.570   8.126   7.846
21254TIP3    H163639   3.615   8.113   7.760
21254TIP3    H263640   3.600   8.215   7.869
21255TIP3   OH263641   5.510   8.164   8.005
21255TIP3    H163642   5.421   8.202   8.022
21255TIP3    H263643   5.485   8.092   7.943
21256TIP3   OH263644   5.147   7.804   6.578
21256TIP3    H163645   5.184   7.725   6.535
21256TIP3    H263646   5.221   7.868   6.572
21257TIP3   OH263647   3.550   7.639   7.352
21257TIP3    H163648   3.455   7.628   7.368
21257TIP3    H263649   3.550   7.690   7.268
21258TIP3   OH263650   4.712   9.326   6.850
21258TIP3    H163651   4.767   9.321   6.768
21258TIP3    H263652   4.756   9.398   6.899
21259TIP3   OH263653   3.772   7.711   8.161
21259TIP3    H163654   3.720   7.702   8.242
21259TIP3    H263655   3.704   7.747   8.100
21260TIP3   OH263656   3.823   9.126   8.247
21260TIP3    H163657   3.736   9.091   8.221
21260TIP3    H263658   3.821   9.103   8.343
21261TIP3   OH263659   3.991   9.167   7.789
21261TIP3    H163660   3.933   9.231   7.744
21261TIP3    H263661   4.074   9.185   7.738
21262TIP3   OH263662   4.436   9.417   7.927
21262TIP3    H163663   4.484   9.414   8.012
21262TIP3    H263664   4.503   9.462   7.870
21263TIP3   OH263665   4.613   9.559   7.779
21263TIP3    H163666   4.683   9.512   7.733
21263TIP3    H263667   4.665   9.621   7.835
21264TIP3   OH263668   5.406   7.926   7.881
21264TIP3    H163669   5.315   7.919   7.847
21264TIP3    H263670   5.437   7.833   7.868
21265TIP3   OH263671   3.669   9.399   7.783
21265TIP3    H163672   3.576   9.429   7.772
21265TIP3    H263673   3.688   9.453   7.863
21266TIP3   OH263674   3.910   9.407   7.662
21266TIP3    H163675   3.820   9.408   7.703
21266TIP3    H263676   3.888   9.440   7.573
21267TIP3   OH263677   4.328   9.433   7.461
21267TIP3    H163678   4.258   9.452   7.395
21267TIP3    H263679   4.342   9.522   7.499
21268TIP3   OH263680   4.596   9.373   7.514
21268TIP3    H163681   4.502   9.390   7.492
21268TIP3    H263682   4.641   9.447   7.470
21269TIP3   OH263683   4.800   9.563   7.429
21269TIP3    H163684   4.788   9.649   7.383
21269TIP3    H263685   4.830   9.505   7.355
21270TIP3   OH263686   3.576   9.219   7.551
21270TIP3    H163687   3.604   9.197   7.642
21270TIP3    H263688   3.646   9.173   7.501
21271TIP3   OH263689   3.769   9.089   7.407
21271TIP3    H163690   3.784   9.005   7.457
21271TIP3    H263691   3.860   9.126   7.403
21272TIP3   OH263692   4.037   9.184   7.407
21272TIP3    H163693   4.067   9.092   7.397
21272TIP3    H263694   4.078   9.206   7.493
21273TIP3   OH263695   4.613   7.842   7.500
21273TIP3    H163696   4.569   7.773   7.552
21273TIP3    H263697   4.681   7.791   7.451
21274TIP3   OH263698   5.138   7.733   7.412
21274TIP3    H163699   5.173   7.775   7.331
21274TIP3    H263700   5.041   7.737   7.397
21275TIP3   OH263701   5.234   7.818   7.168
21275TIP3    H163702   5.305   7.764   7.130
21275TIP3    H263703   5.268   7.909   7.152
21276TIP3   OH263704   3.862   7.551   7.518
21276TIP3    H163705   3.769   7.519   7.515
21276TIP3    H263706   3.910   7.466   7.513
21277TIP3   OH263707   3.656   7.418   7.168
21277TIP3    H163708   3.678   7.473   7.090
21277TIP3    H263709   3.616   7.484   7.228
21278TIP3   OH263710   4.304   7.584   7.394
21278TIP3    H163711   4.365   7.634   7.338
21278TIP3    H263712   4.322   7.619   7.481
21279TIP3   OH263713   4.856   7.728   7.378
21279TIP3    H163714   4.851   7.690   7.289
21279TIP3    H263715   4.841   7.648   7.434
21280TIP3   OH263716   4.883   7.651   6.940
21280TIP3    H163717   4.793   7.688   6.949
21280TIP3    H263718   4.872   7.566   6.987
21281TIP3   OH263719   3.369   8.988   6.944
21281TIP3    H163720   3.287   8.950   6.907
21281TIP3    H263721   3.352   9.082   6.924
21282TIP3   OH263722   3.763   7.580   6.927
21282TIP3    H163723   3.809   7.514   6.871
21282TIP3    H263724   3.838   7.630   6.964
21283TIP3   OH263725   4.277   7.755   7.024
21283TIP3    H163726   4.333   7.703   7.084
21283TIP3    H263727   4.302   7.846   7.052
21284TIP3   OH263728   4.126   9.180   6.526
21284TIP3    H163729   4.212   9.209   6.491
21284TIP3    H263730   4.112   9.103   6.466
21285TIP3   OH263731   4.850   9.288   6.613
21285TIP3    H163732   4.823   9.201   6.583
21285TIP3    H263733   4.815   9.343   6.539
21286TIP3   OH263734   4.069   7.834   8.409
21286TIP3    H163735   4.036   7.761   8.464
21286TIP3    H263736   4.164   7.833   8.434
21287TIP3   OH263737   4.319   7.829   8.526
21287TIP3    H163738   4.402   7.799   8.486
21287TIP3    H263739   4.304   7.759   8.593
21288TIP3   OH263740   5.142   7.889   8.314
21288TIP3    H163741   5.161   7.857   8.405
21288TIP3    H263742   5.229   7.882   8.271
21289TIP3   OH263743   5.082   9.442   7.809
21289TIP3    H163744   5.005   9.411   7.756
21289TIP3    H263745   5.067   9.538   7.805
21290TIP3   OH263746   6.347   8.809   6.574
21290TIP3    H163747   6.325   8.903   6.558
21290TIP3    H263748   6.265   8.767   6.543
21291TIP3   OH263749   6.337   8.813   6.944
21291TIP3    H163750   6.366   8.791   7.035
21291TIP3    H263751   6.301   8.729   6.914
21292TIP3   OH263752   5.648   8.711   7.318
21292TIP3    H163753   5.681   8.644   7.381
21292TIP3    H263754   5.725   8.768   7.309
21293TIP3   OH263755   6.585   9.110   6.631
21293TIP3    H163756   6.582   9.046   6.703
21293TIP3    H263757   6.616   9.190   6.680
21294TIP3   OH263758   5.617   9.116   7.047
21294TIP3    H163759   5.610   9.019   7.050
21294TIP3    H263760   5.713   9.127   7.038
21295TIP3   OH263761   5.327   8.327   6.828
21295TIP3    H163762   5.275   8.408   6.843
21295TIP3    H263763   5.256   8.266   6.800
21296TIP3   OH263764   5.381   8.608   6.995
21296TIP3    H163765   5.431   8.534   7.036
21296TIP3    H263766   5.447   8.643   6.933
21297TIP3   OH263767   6.240   9.579   6.648
21297TIP3    H163768   6.287   9.507   6.601
21297TIP3    H263769   6.229   9.542   6.736
21298TIP3   OH263770   6.146   9.035   7.000
21298TIP3    H163771   6.187   8.960   6.954
21298TIP3    H263772   6.228   9.083   7.024
21299TIP3   OH263773   7.159   8.351   6.991
21299TIP3    H163774   7.183   8.433   7.038
21299TIP3    H263775   7.178   8.377   6.899
21300TIP3   OH263776   6.553   8.541   7.036
21300TIP3    H163777   6.603   8.461   7.057
21300TIP3    H263778   6.528   8.525   6.943
21301TIP3   OH263779   5.892   8.199   7.000
21301TIP3    H163780   5.872   8.272   6.937
21301TIP3    H263781   5.844   8.125   6.957
21302TIP3   OH263782   6.588   8.290   6.623
21302TIP3    H163783   6.661   8.274   6.687
21302TIP3    H263784   6.640   8.327   6.548
21303TIP3   OH263785   5.530   8.404   7.105
21303TIP3    H163786   5.612   8.382   7.153
21303TIP3    H263787   5.540   8.345   7.027
21304TIP3   OH263788   5.971   8.600   6.894
21304TIP3    H163789   6.065   8.576   6.911
21304TIP3    H263790   5.933   8.514   6.866
21305TIP3   OH263791   7.211   8.548   7.170
21305TIP3    H163792   7.131   8.597   7.140
21305TIP3    H263793   7.203   8.562   7.266
21306TIP3   OH263794   5.894   8.185   7.434
21306TIP3    H163795   5.832   8.220   7.367
21306TIP3    H263796   5.842   8.201   7.515
21307TIP3   OH263797   6.238   9.031   6.443
21307TIP3    H163798   6.200   9.017   6.356
21307TIP3    H263799   6.200   9.118   6.467
21308TIP3   OH263800   5.998   8.957   7.231
21308TIP3    H163801   5.934   9.023   7.268
21308TIP3    H263802   6.042   9.009   7.162
21309TIP3   OH263803   6.801   8.291   6.792
21309TIP3    H163804   6.794   8.246   6.877
21309TIP3    H263805   6.854   8.370   6.815
21310TIP3   OH263806   5.762   8.299   7.218
21310TIP3    H163807   5.825   8.372   7.241
21310TIP3    H263808   5.812   8.256   7.145
21311TIP3   OH263809   5.825   9.149   7.326
21311TIP3    H163810   5.805   9.237   7.288
21311TIP3    H263811   5.745   9.139   7.383
21312TIP3   OH263812   5.224   8.842   6.562
21312TIP3    H163813   5.188   8.872   6.477
21312TIP3    H263814   5.254   8.927   6.602
21313TIP3   OH263815   6.648   9.330   6.784
21313TIP3    H163816   6.564   9.336   6.835
21313TIP3    H263817   6.656   9.422   6.753
21314TIP3   OH263818   6.954   8.260   7.165
21314TIP3    H163819   6.866   8.292   7.137
21314TIP3    H263820   7.010   8.289   7.090
21315TIP3   OH263821   6.252   7.903   7.147
21315TIP3    H163822   6.239   7.807   7.165
21315TIP3    H263823   6.173   7.940   7.192
21316TIP3   OH263824   6.362   9.405   6.473
21316TIP3    H163825   6.414   9.324   6.454
21316TIP3    H263826   6.423   9.472   6.436
21317TIP3   OH263827   6.505   9.189   6.381
21317TIP3    H163828   6.472   9.108   6.341
21317TIP3    H263829   6.541   9.156   6.466
21318TIP3   OH263830   6.174   8.659   6.399
21318TIP3    H163831   6.099   8.719   6.377
21318TIP3    H263832   6.228   8.664   6.318
21319TIP3   OH263833   6.135   8.440   6.129
21319TIP3    H163834   6.201   8.496   6.175
21319TIP3    H263835   6.195   8.384   6.075
21320TIP3   OH263836   7.080   8.889   6.983
21320TIP3    H163837   7.003   8.950   6.989
21320TIP3    H263838   7.121   8.923   6.900
21321TIP3   OH263839   6.524   8.744   6.376
21321TIP3    H163840   6.472   8.771   6.454
21321TIP3    H263841   6.609   8.720   6.418
21322TIP3   OH263842   6.708   8.793   7.239
21322TIP3    H163843   6.738   8.867   7.293
21322TIP3    H263844   6.627   8.828   7.199
21323TIP3   OH263845   5.757   8.742   6.791
21323TIP3    H163846   5.725   8.683   6.720
21323TIP3    H263847   5.837   8.694   6.822
21324TIP3   OH263848   5.885   9.151   6.944
21324TIP3    H163849   5.870   9.113   6.856
21324TIP3    H263850   5.977   9.124   6.962
21325TIP3   OH263851   5.895   8.718   7.143
21325TIP3    H163852   5.931   8.700   7.055
21325TIP3    H263853   5.938   8.803   7.168
21326TIP3   OH263854   6.415   9.356   6.923
21326TIP3    H163855   6.407   9.435   6.978
21326TIP3    H263856   6.403   9.282   6.985
21327TIP3   OH263857   6.031   9.274   7.466
21327TIP3    H163858   5.967   9.335   7.508
21327TIP3    H263859   5.969   9.217   7.416
21328TIP3   OH263860   6.366   8.605   6.201
21328TIP3    H163861   6.426   8.663   6.253
21328TIP3    H263862   6.393   8.630   6.109
21329TIP3   OH263863   5.786   8.828   7.570
21329TIP3    H163864   5.790   8.916   7.613
21329TIP3    H263865   5.690   8.811   7.574
21330TIP3   OH263866   6.107   9.287   6.475
21330TIP3    H163867   6.187   9.339   6.494
21330TIP3    H263868   6.047   9.354   6.441
21331TIP3   OH263869   5.831   9.436   7.563
21331TIP3    H163870   5.800   9.444   7.471
21331TIP3    H263871   5.748   9.421   7.612
21332TIP3   OH263872   6.883   7.848   6.248
21332TIP3    H163873   6.802   7.868   6.299
21332TIP3    H263874   6.896   7.931   6.198
21333TIP3   OH263875   5.631   8.573   6.575
21333TIP3    H163876   5.565   8.629   6.530
21333TIP3    H263877   5.574   8.513   6.624
21334TIP3   OH263878   6.681   9.215   5.796
21334TIP3    H163879   6.689   9.312   5.782
21334TIP3    H263880   6.774   9.186   5.784
21335TIP3   OH263881   5.405   8.972   7.504
21335TIP3    H163882   5.342   8.950   7.432
21335TIP3    H263883   5.442   8.884   7.528
21336TIP3   OH263884   5.260   9.164   7.141
21336TIP3    H163885   5.355   9.161   7.124
21336TIP3    H263886   5.253   9.247   7.189
21337TIP3   OH263887   6.220   9.410   7.319
21337TIP3    H163888   6.230   9.488   7.377
21337TIP3    H263889   6.151   9.361   7.370
21338TIP3   OH263890   5.988   9.531   6.278
21338TIP3    H163891   5.945   9.515   6.192
21338TIP3    H263892   5.958   9.621   6.301
21339TIP3   OH263893   5.426   9.379   6.658
21339TIP3    H163894   5.482   9.372   6.739
21339TIP3    H263895   5.356   9.317   6.683
21340TIP3   OH263896   6.192   9.431   5.920
21340TIP3    H163897   6.252   9.363   5.882
21340TIP3    H263898   6.228   9.441   6.010
21341TIP3   OH263899   6.242   9.480   6.191
21341TIP3    H163900   6.154   9.489   6.233
21341TIP3    H263901   6.294   9.441   6.263
21342TIP3   OH263902   6.939   8.746   7.392
21342TIP3    H163903   7.000   8.818   7.369
21342TIP3    H263904   7.002   8.673   7.394
21343TIP3   OH263905   5.611   9.155   7.494
21343TIP3    H163906   5.662   9.134   7.576
21343TIP3    H263907   5.536   9.092   7.500
21344TIP3   OH263908   6.010   7.979   7.271
21344TIP3    H163909   5.921   7.945   7.248
21344TIP3    H263910   5.984   8.060   7.318
21345TIP3   OH263911   6.543   8.095   7.471
21345TIP3    H163912   6.612   8.064   7.533
21345TIP3    H263913   6.459   8.071   7.517
21346TIP3   OH263914   6.773   8.510   7.378
21346TIP3    H163915   6.728   8.521   7.464
21346TIP3    H263916   6.778   8.602   7.346
21347TIP3   OH263917   6.441   8.653   5.944
21347TIP3    H163918   6.411   8.627   5.854
21347TIP3    H263919   6.520   8.704   5.922
21348TIP3   OH263920   6.134   8.037   6.239
21348TIP3    H163921   6.123   8.033   6.336
21348TIP3    H263922   6.110   7.945   6.216
21349TIP3   OH263923   5.941   8.495   7.292
21349TIP3    H163924   5.891   8.516   7.374
21349TIP3    H263925   5.925   8.576   7.239
21350TIP3   OH263926   5.824   8.376   6.802
21350TIP3    H163927   5.732   8.351   6.826
21350TIP3    H263928   5.836   8.328   6.719
21351TIP3   OH263929   6.312   8.460   6.530
21351TIP3    H163930   6.262   8.535   6.492
21351TIP3    H263931   6.372   8.437   6.457
21352TIP3   OH263932   6.483   8.747   7.617
21352TIP3    H163933   6.462   8.667   7.670
21352TIP3    H263934   6.579   8.739   7.605
21353TIP3   OH263935   6.473   8.494   6.776
21353TIP3    H163936   6.418   8.530   6.704
21353TIP3    H263937   6.504   8.412   6.732
21354TIP3   OH263938   5.761   8.524   7.503
21354TIP3    H163939   5.785   8.588   7.571
21354TIP3    H263940   5.749   8.442   7.555
21355TIP3   OH263941   5.351   8.049   7.085
21355TIP3    H163942   5.431   8.075   7.136
21355TIP3    H263943   5.386   8.012   7.002
21356TIP3   OH263944   5.336   8.027   6.604
21356TIP3    H163945   5.378   8.068   6.526
21356TIP3    H263946   5.270   8.096   6.627
21357TIP3   OH263947   6.435   8.736   7.187
21357TIP3    H163948   6.490   8.671   7.136
21357TIP3    H263949   6.441   8.695   7.275
21358TIP3   OH263950   6.147   8.204   6.870
21358TIP3    H163951   6.068   8.199   6.927
21358TIP3    H263952   6.219   8.207   6.936
21359TIP3   OH263953   5.589   8.257   6.873
21359TIP3    H163954   5.493   8.265   6.851
21359TIP3    H263955   5.607   8.162   6.858
21360TIP3   OH263956   5.864   8.268   6.531
21360TIP3    H163957   5.960   8.259   6.552
21360TIP3    H263958   5.858   8.362   6.514
21361TIP3   OH263959   6.647   8.276   7.070
21361TIP3    H163960   6.609   8.290   7.160
21361TIP3    H263961   6.580   8.218   7.031
21362TIP3   OH263962   5.765   9.073   7.711
21362TIP3    H163963   5.846   9.108   7.755
21362TIP3    H263964   5.703   9.076   7.785
21363TIP3   OH263965   6.235   8.526   6.962
21363TIP3    H163966   6.313   8.493   6.914
21363TIP3    H263967   6.253   8.494   7.052
21364TIP3   OH263968   5.762   8.012   6.843
21364TIP3    H163969   5.728   7.935   6.893
21364TIP3    H263970   5.829   7.969   6.788
21365TIP3   OH263971   6.212   8.420   7.263
21365TIP3    H163972   6.125   8.462   7.272
21365TIP3    H263973   6.272   8.481   7.310
21366TIP3   OH263974   5.951   8.819   6.350
21366TIP3    H163975   5.876   8.758   6.339
21366TIP3    H263976   5.935   8.854   6.441
21367TIP3   OH263977   6.852   9.039   6.988
21367TIP3    H163978   6.878   9.093   6.909
21367TIP3    H263979   6.765   9.005   6.959
21368TIP3   OH263980   6.402   8.131   6.214
21368TIP3    H163981   6.305   8.129   6.215
21368TIP3    H263982   6.424   8.225   6.233
21369TIP3   OH263983   6.333   9.123   7.352
21369TIP3    H163984   6.379   9.106   7.437
21369TIP3    H263985   6.310   9.216   7.360
21370TIP3   OH263986   6.480   8.375   6.311
21370TIP3    H163987   6.576   8.382   6.330
21370TIP3    H263988   6.463   8.456   6.259
21371TIP3   OH263989   5.637   8.833   7.029
21371TIP3    H163990   5.679   8.810   6.944
21371TIP3    H263991   5.684   8.775   7.091
21372TIP3   OH263992   6.095   8.968   6.169
21372TIP3    H163993   6.048   9.054   6.176
21372TIP3    H263994   6.042   8.914   6.231
21373TIP3   OH263995   5.519   8.760   7.641
21373TIP3    H163996   5.541   8.744   7.735
21373TIP3    H263997   5.451   8.693   7.624
21374TIP3   OH263998   6.237   8.857   7.671
21374TIP3    H163999   6.176   8.814   7.608
21374TIP3    H264000   6.323   8.839   7.630
21375TIP3   OH264001   6.486   9.376   7.266
21375TIP3    H164002   6.389   9.379   7.248
21375TIP3    H264003   6.488   9.420   7.352
21376TIP3   OH264004   6.921   8.466   6.154
21376TIP3    H164005   6.858   8.421   6.092
21376TIP3    H264006   6.918   8.555   6.112
21377TIP3   OH264007   6.613   9.287   6.058
21377TIP3    H164008   6.599   9.216   6.122
21377TIP3    H264009   6.633   9.240   5.975
21378TIP3   OH264010   6.607   8.914   6.905
21378TIP3    H164011   6.514   8.887   6.909
21378TIP3    H264012   6.647   8.838   6.859
21379TIP3   OH264013   5.742   9.138   6.647
21379TIP3    H164014   5.750   9.224   6.600
21379TIP3    H264015   5.647   9.138   6.668
21380TIP3   OH264016   5.309   8.449   6.357
21380TIP3    H164017   5.352   8.534   6.376
21380TIP3    H264018   5.230   8.454   6.416
21381TIP3   OH264019   5.881   8.907   6.596
21381TIP3    H164020   5.848   8.998   6.610
21381TIP3    H264021   5.847   8.863   6.675
21382TIP3   OH264022   6.010   9.479   7.130
21382TIP3    H164023   6.034   9.560   7.083
21382TIP3    H264024   6.094   9.454   7.172
21383TIP3   OH264025   5.663   9.381   6.504
21383TIP3    H164026   5.578   9.390   6.550
21383TIP3    H264027   5.697   9.474   6.509
21384TIP3   OH264028   6.399   9.122   7.080
21384TIP3    H164029   6.393   9.110   7.177
21384TIP3    H264030   6.481   9.075   7.060
21385TIP3   OH264031   6.372   9.008   5.964
21385TIP3    H164032   6.427   8.986   6.042
21385TIP3    H264033   6.284   8.989   5.998
21386TIP3   OH264034   6.715   9.491   5.784
21386TIP3    H164035   6.757   9.565   5.737
21386TIP3    H264036   6.634   9.537   5.814
21387TIP3   OH264037   5.734   8.268   7.652
21387TIP3    H164038   5.637   8.271   7.661
21387TIP3    H264039   5.757   8.198   7.716
21388TIP3   OH264040   6.533   8.946   6.181
21388TIP3    H164041   6.525   8.880   6.252
21388TIP3    H264042   6.630   8.947   6.168
21389TIP3   OH264043   5.443   9.352   7.298
21389TIP3    H164044   5.502   9.278   7.315
21389TIP3    H264045   5.492   9.425   7.337
21390TIP3   OH264046   5.739   8.996   5.962
21390TIP3    H164047   5.759   8.905   5.932
21390TIP3    H264048   5.724   8.983   6.058
21391TIP3   OH264049   5.689   8.998   6.236
21391TIP3    H164050   5.760   8.978   6.299
21391TIP3    H264051   5.688   9.096   6.239
21392TIP3   OH264052   5.425   8.696   6.439
21392TIP3    H164053   5.360   8.741   6.497
21392TIP3    H264054   5.439   8.766   6.372
21393TIP3   OH264055   6.565   8.330   7.325
21393TIP3    H164056   6.646   8.375   7.354
21393TIP3    H264057   6.559   8.252   7.384
21394TIP3   OH264058   6.446   8.086   6.493
21394TIP3    H164059   6.436   8.111   6.399
21394TIP3    H264060   6.490   8.166   6.530
21395TIP3   OH264061   5.950   9.196   6.181
21395TIP3    H164062   5.865   9.227   6.219
21395TIP3    H264063   5.972   9.271   6.124
21396TIP3   OH264064   6.129   8.264   6.600
21396TIP3    H164065   6.199   8.330   6.578
21396TIP3    H264066   6.144   8.253   6.697
21397TIP3   OH264067   6.401   8.572   7.409
21397TIP3    H164068   6.422   8.633   7.482
21397TIP3    H264069   6.470   8.504   7.416
21398TIP3   OH264070   6.287   7.992   6.701
21398TIP3    H164071   6.288   8.064   6.766
21398TIP3    H264072   6.347   8.029   6.632
21399TIP3   OH264073   5.690   9.270   6.249
21399TIP3    H164074   5.663   9.341   6.186
21399TIP3    H264075   5.677   9.316   6.336
21400TIP3   OH264076   5.796   7.998   6.461
21400TIP3    H164077   5.800   8.076   6.518
21400TIP3    H264078   5.887   7.964   6.472
21401TIP3   OH264079   7.041   8.469   7.378
21401TIP3    H164080   6.944   8.478   7.394
21401TIP3    H264081   7.038   8.425   7.291
21402TIP3   OH264082   6.701   8.675   6.773
21402TIP3    H164083   6.626   8.615   6.789
21402TIP3    H264084   6.775   8.630   6.819
21403TIP3   OH264085   5.410   8.906   6.246
21403TIP3    H164086   5.470   8.982   6.256
21403TIP3    H264087   5.459   8.857   6.177
21404TIP3   OH264088   5.367   8.181   6.372
21404TIP3    H164089   5.352   8.277   6.371
21404TIP3    H264090   5.283   8.146   6.339
21405TIP3   OH264091   6.645   9.597   6.705
21405TIP3    H164092   6.605   9.664   6.646
21405TIP3    H264093   6.738   9.618   6.695
21406TIP3   OH264094   5.745   7.900   7.250
21406TIP3    H164095   5.718   7.858   7.166
21406TIP3    H264096   5.737   7.823   7.312
21407TIP3   OH264097   5.281   9.102   6.636
21407TIP3    H164098   5.217   9.152   6.689
21407TIP3    H264099   5.277   9.151   6.551
21408TIP3   OH264100   5.432   9.646   7.701
21408TIP3    H164101   5.521   9.648   7.739
21408TIP3    H264102   5.414   9.550   7.699
21409TIP3   OH264103   5.904   9.201   5.874
21409TIP3    H164104   5.849   9.129   5.914
21409TIP3    H264105   5.980   9.150   5.843
21410TIP3   OH264106   6.340   9.240   5.785
21410TIP3    H164107   6.392   9.183   5.843
21410TIP3    H264108   6.396   9.246   5.705
21411TIP3   OH264109   5.571   9.056   7.907
21411TIP3    H164110   5.590   8.960   7.898
21411TIP3    H264111   5.485   9.063   7.861
21412TIP3   OH264112   5.547   8.717   6.095
21412TIP3    H164113   5.605   8.690   6.167
21412TIP3    H264114   5.612   8.722   6.022
21413TIP3   OH264115   6.169   9.140   7.671
21413TIP3    H164116   6.146   9.168   7.581
21413TIP3    H264117   6.225   9.061   7.656
21414TIP3   OH264118   6.050   8.912   5.902
21414TIP3    H164119   6.059   8.928   5.998
21414TIP3    H264120   6.053   8.814   5.899
21415TIP3   OH264121   6.635   9.129   7.281
21415TIP3    H164122   6.714   9.169   7.240
21415TIP3    H264123   6.574   9.204   7.281
21416TIP3   OH264124   5.688   8.795   7.882
21416TIP3    H164125   5.761   8.737   7.861
21416TIP3    H264126   5.712   8.826   7.972
21417TIP3   OH264127   5.755   8.616   6.315
21417TIP3    H164128   5.726   8.589   6.404
21417TIP3    H264129   5.790   8.534   6.276
21418TIP3   OH264130   6.026   8.683   7.547
21418TIP3    H164131   5.949   8.743   7.549
21418TIP3    H264132   6.074   8.715   7.467
21419TIP3   OH264133   5.853   8.366   6.167
21419TIP3    H164134   5.829   8.394   6.075
21419TIP3    H264135   5.949   8.390   6.163
21420TIP3   OH264136   6.680   8.744   5.820
21420TIP3    H164137   6.659   8.698   5.737
21420TIP3    H264138   6.650   8.835   5.796
21421TIP3   OH264139   6.147   8.469   7.673
21421TIP3    H164140   6.148   8.390   7.615
21421TIP3    H264141   6.107   8.537   7.614
21422TIP3   OH264142   6.153   8.256   7.484
21422TIP3    H164143   6.181   8.297   7.399
21422TIP3    H264144   6.060   8.231   7.463
21423TIP3   OH264145   6.184   8.794   7.353
21423TIP3    H164146   6.263   8.793   7.297
21423TIP3    H264147   6.131   8.864   7.311
21424TIP3   OH264148   6.024   8.587   7.897
21424TIP3    H164149   5.956   8.517   7.911
21424TIP3    H264150   6.057   8.562   7.808
21425TIP3   OH264151   6.289   8.024   7.560
21425TIP3    H164152   6.241   8.106   7.535
21425TIP3    H264153   6.221   7.956   7.545
21426TIP3   OH264154   6.404   8.529   7.758
21426TIP3    H164155   6.407   8.511   7.854
21426TIP3    H264156   6.311   8.506   7.736
21427TIP3   OH264157   6.630   8.495   7.606
21427TIP3    H164158   6.550   8.486   7.662
21427TIP3    H264159   6.692   8.435   7.654
21428TIP3   OH264160   6.787   8.347   7.765
21428TIP3    H164161   6.861   8.285   7.776
21428TIP3    H264162   6.825   8.429   7.804
21429TIP3   OH264163   5.867   8.368   7.952
21429TIP3    H164164   5.866   8.278   7.915
21429TIP3    H264165   5.898   8.351   8.043
21430TIP3   OH264166   6.397   8.200   7.937
21430TIP3    H164167   6.416   8.219   7.844
21430TIP3    H264168   6.345   8.281   7.959
21431TIP3   OH264169   5.662   9.470   6.059
21431TIP3    H164170   5.759   9.471   6.044
21431TIP3    H264171   5.634   9.526   5.984
21432TIP3   OH264172   5.143   8.853   6.280
21432TIP3    H164173   5.237   8.879   6.267
21432TIP3    H264174   5.142   8.765   6.237
21433TIP3   OH264175   5.056   9.465   6.692
21433TIP3    H164176   4.991   9.401   6.658
21433TIP3    H264177   5.102   9.413   6.760
21434TIP3   OH264178   5.197   9.318   6.874
21434TIP3    H164179   5.187   9.250   6.942
21434TIP3    H264180   5.250   9.383   6.925
21435TIP3   OH264181   6.812   8.933   6.153
21435TIP3    H164182   6.882   8.996   6.126
21435TIP3    H264183   6.855   8.892   6.232
21436TIP3   OH264184   6.937   8.798   6.354
21436TIP3    H164185   6.875   8.758   6.419
21436TIP3    H264186   7.007   8.835   6.411
21437TIP3   OH264187   6.965   9.172   6.783
21437TIP3    H164188   7.048   9.142   6.743
21437TIP3    H264189   6.954   9.262   6.747
21438TIP3   OH264190   6.879   8.705   6.006
21438TIP3    H164191   6.808   8.710   5.938
21438TIP3    H264192   6.855   8.782   6.061
21439TIP3   OH264193   6.748   8.380   5.963
21439TIP3    H164194   6.713   8.422   5.884
21439TIP3    H264195   6.722   8.287   5.949
21440TIP3   OH264196   6.753   8.654   6.505
21440TIP3    H164197   6.767   8.558   6.504
21440TIP3    H264198   6.742   8.672   6.601
21441TIP3   OH264199   5.383   8.728   7.251
21441TIP3    H164200   5.382   8.700   7.157
21441TIP3    H264201   5.480   8.731   7.267
21442TIP3   OH264202   6.694   8.114   5.949
21442TIP3    H164203   6.773   8.086   5.999
21442TIP3    H264204   6.626   8.051   5.976
21443TIP3   OH264205   6.750   8.369   6.401
21443TIP3    H164206   6.792   8.281   6.415
21443TIP3    H264207   6.809   8.405   6.333
21444TIP3   OH264208   6.914   8.540   6.886
21444TIP3    H164209   7.001   8.569   6.849
21444TIP3    H264210   6.922   8.582   6.975
21445TIP3   OH264211   6.975   8.677   7.116
21445TIP3    H164212   6.908   8.713   7.178
21445TIP3    H264213   7.006   8.759   7.071
21446TIP3   OH264214   5.599   8.419   7.934
21446TIP3    H164215   5.696   8.409   7.926
21446TIP3    H264216   5.575   8.331   7.969
21447TIP3   OH264217   6.861   8.120   6.438
21447TIP3    H164218   6.910   8.105   6.522
21447TIP3    H264219   6.802   8.042   6.438
21448TIP3   OH264220   5.561   8.107   7.255
21448TIP3    H164221   5.622   8.030   7.265
21448TIP3    H264222   5.625   8.180   7.253
21449TIP3   OH264223   5.366   8.383   7.332
21449TIP3    H164224   5.414   8.372   7.247
21449TIP3    H264225   5.396   8.471   7.359
21450TIP3   OH264226   7.292   8.409   7.453
21450TIP3    H164227   7.199   8.438   7.443
21450TIP3    H264228   7.282   8.316   7.424
21451TIP3   OH264229   6.943   8.057   6.068
21451TIP3    H164230   6.985   7.985   6.018
21451TIP3    H264231   7.010   8.128   6.062
21452TIP3   OH264232   5.347   7.897   6.844
21452TIP3    H164233   5.252   7.881   6.859
21452TIP3    H264234   5.347   7.941   6.757
21453TIP3   OH264235   6.507   9.590   6.339
21453TIP3    H164236   6.552   9.569   6.254
21453TIP3    H264237   6.569   9.653   6.377
21454TIP3   OH264238   5.569   7.973   7.651
21454TIP3    H164239   5.514   7.959   7.730
21454TIP3    H264240   5.502   8.003   7.587
21455TIP3   OH264241   5.607   9.392   7.736
21455TIP3    H164242   5.519   9.363   7.706
21455TIP3    H264243   5.602   9.371   7.831
21456TIP3   OH264244   5.787   9.417   7.283
21456TIP3    H164245   5.730   9.483   7.238
21456TIP3    H264246   5.868   9.435   7.230
21457TIP3   OH264247   7.195   8.170   7.365
21457TIP3    H164248   7.105   8.165   7.328
21457TIP3    H264249   7.227   8.077   7.350
21458TIP3   OH264250   6.127   9.702   6.950
21458TIP3    H164251   6.058   9.710   6.882
21458TIP3    H264252   6.097   9.769   7.013
21459TIP3   OH264253   6.394   9.642   6.986
21459TIP3    H164254   6.297   9.653   6.980
21459TIP3    H264255   6.423   9.674   6.900
21460TIP3   OH264256   5.368   9.464   7.036
21460TIP3    H164257   5.403   9.466   7.126
21460TIP3    H264258   5.451   9.443   6.988
21461TIP3   OH264259   5.569   9.343   6.884
21461TIP3    H164260   5.587   9.266   6.942
21461TIP3    H264261   5.654   9.391   6.889
21462TIP3   OH264262   5.836   9.443   6.880
21462TIP3    H164263   5.871   9.353   6.894
21462TIP3    H264264   5.838   9.478   6.971
21463TIP3   OH264265   6.404   8.096   6.977
21463TIP3    H164266   6.364   8.029   7.036
21463TIP3    H264267   6.481   8.048   6.940
21464TIP3   OH264268   6.933   7.976   6.892
21464TIP3    H164269   6.971   8.029   6.818
21464TIP3    H264270   6.839   7.998   6.885
21465TIP3   OH264271   7.028   8.078   6.656
21465TIP3    H164272   7.101   8.028   6.614
21465TIP3    H264273   7.060   8.170   6.641
21466TIP3   OH264274   5.668   7.796   7.005
21466TIP3    H164275   5.579   7.770   6.981
21466TIP3    H264276   5.703   7.704   7.015
21467TIP3   OH264277   5.428   7.671   6.622
21467TIP3    H164278   5.468   7.742   6.569
21467TIP3    H264279   5.422   7.711   6.710
21468TIP3   OH264280   6.094   7.846   6.878
21468TIP3    H164281   6.161   7.894   6.827
21468TIP3    H264282   6.115   7.873   6.969
21469TIP3   OH264283   6.648   7.985   6.868
21469TIP3    H164284   6.647   7.951   6.778
21469TIP3    H264285   6.634   7.903   6.921
21470TIP3   OH264286   6.677   7.906   6.428
21470TIP3    H164287   6.590   7.948   6.438
21470TIP3    H264288   6.663   7.821   6.476
21471TIP3   OH264289   5.156   9.245   6.435
21471TIP3    H164290   5.074   9.219   6.391
21471TIP3    H264291   5.154   9.341   6.421
21472TIP3   OH264292   5.560   7.844   6.407
21472TIP3    H164293   5.605   7.772   6.360
21472TIP3    H264294   5.636   7.896   6.441
21473TIP3   OH264295   6.078   8.010   6.510
21473TIP3    H164296   6.133   7.961   6.573
21473TIP3    H264297   6.100   8.102   6.539
21474TIP3   OH264298   5.933   9.437   6.013
21474TIP3    H164299   6.021   9.460   5.977
21474TIP3    H264300   5.911   9.362   5.953
21475TIP3   OH264301   6.648   9.552   6.104
21475TIP3    H164302   6.639   9.455   6.088
21475TIP3    H264303   6.607   9.587   6.022
21476TIP3   OH264304   5.855   8.095   7.898
21476TIP3    H164305   5.824   8.017   7.947
21476TIP3    H264306   5.950   8.094   7.923
21477TIP3   OH264307   6.100   8.096   8.020
21477TIP3    H164308   6.183   8.080   7.974
21477TIP3    H264309   6.096   8.024   8.088
21478TIP3   OH264310   5.235   9.267   6.072
21478TIP3    H164311   5.239   9.308   6.159
21478TIP3    H264312   5.326   9.231   6.061
21479TIP3   OH264313   6.944   8.117   7.797
21479TIP3    H164314   6.971   8.093   7.887
21479TIP3    H264315   7.030   8.128   7.750
21480TIP3   OH264316   7.121   8.576   6.318
21480TIP3    H164317   7.078   8.663   6.332
21480TIP3    H264318   7.048   8.526   6.279
21481TIP3   OH264319   7.174   8.861   6.472
21481TIP3    H164320   7.225   8.791   6.519
21481TIP3    H264321   7.246   8.909   6.428
21482TIP3   OH264322   7.696   8.460   6.485
21482TIP3    H164323   7.666   8.527   6.420
21482TIP3    H264324   7.650   8.381   6.449
21483TIP3   OH264325   8.325   8.560   6.120
21483TIP3    H164326   8.405   8.535   6.169
21483TIP3    H264327   8.368   8.604   6.044
21484TIP3   OH264328   7.320   8.662   6.591
21484TIP3    H164329   7.403   8.641   6.638
21484TIP3    H264330   7.331   8.606   6.511
21485TIP3   OH264331   7.757   8.854   6.367
21485TIP3    H164332   7.838   8.824   6.410
21485TIP3    H264333   7.713   8.769   6.343
21486TIP3   OH264334   7.668   8.429   6.900
21486TIP3    H164335   7.622   8.474   6.827
21486TIP3    H264336   7.620   8.468   6.975
21487TIP3   OH264337   7.556   8.571   6.697
21487TIP3    H164338   7.606   8.651   6.723
21487TIP3    H264339   7.613   8.533   6.626
21488TIP3   OH264340   7.020   9.098   6.049
21488TIP3    H164341   6.979   9.126   5.966
21488TIP3    H264342   7.048   9.183   6.088
21489TIP3   OH264343   8.033   8.173   6.611
21489TIP3    H164344   8.051   8.083   6.642
21489TIP3    H264345   7.961   8.200   6.673
21490TIP3   OH264346   7.962   8.891   5.883
21490TIP3    H164347   7.895   8.959   5.865
21490TIP3    H264348   8.026   8.908   5.810
21491TIP3   OH264349   7.936   8.699   5.602
21491TIP3    H164350   8.001   8.754   5.649
21491TIP3    H264351   7.983   8.614   5.596
21492TIP3   OH264352   7.563   9.016   6.266
21492TIP3    H164353   7.511   8.955   6.209
21492TIP3    H264354   7.632   8.955   6.302
21493TIP3   OH264355   8.158   8.881   5.685
21493TIP3    H164356   8.242   8.907   5.724
21493TIP3    H264357   8.178   8.895   5.590
21494TIP3   OH264358   8.676   8.108   5.731
21494TIP3    H164359   8.594   8.127   5.781
21494TIP3    H264360   8.680   8.186   5.671
21495TIP3   OH264361   7.421   8.847   6.087
21495TIP3    H164362   7.358   8.894   6.028
21495TIP3    H264363   7.375   8.762   6.098
21496TIP3   OH264364   7.221   9.638   6.144
21496TIP3    H164365   7.296   9.630   6.206
21496TIP3    H264366   7.157   9.576   6.182
21497TIP3   OH264367   7.994   9.691   5.411
21497TIP3    H164368   8.048   9.623   5.364
21497TIP3    H264369   8.022   9.676   5.502
21498TIP3   OH264370   7.809   8.234   6.764
21498TIP3    H164371   7.720   8.202   6.740
21498TIP3    H264372   7.784   8.317   6.809
21499TIP3   OH264373   8.237   8.925   5.430
21499TIP3    H164374   8.206   8.879   5.350
21499TIP3    H264375   8.324   8.958   5.400
21500TIP3   OH264376   7.926   8.292   5.723
21500TIP3    H164377   7.925   8.282   5.819
21500TIP3    H264378   7.912   8.200   5.696
21501TIP3   OH264379   7.620   8.633   6.293
21501TIP3    H164380   7.526   8.609   6.312
21501TIP3    H264381   7.628   8.597   6.201
21502TIP3   OH264382   8.081   8.698   6.033
21502TIP3    H164383   8.041   8.778   5.989
21502TIP3    H264384   8.148   8.675   5.963
21503TIP3   OH264385   7.601   8.250   5.698
21503TIP3    H164386   7.598   8.251   5.795
21503TIP3    H264387   7.526   8.308   5.676
21504TIP3   OH264388   7.150   8.301   6.570
21504TIP3    H164389   7.225   8.335   6.623
21504TIP3    H264390   7.191   8.271   6.488
21505TIP3   OH264391   7.126   8.284   6.090
21505TIP3    H164392   7.171   8.323   6.012
21505TIP3    H264393   7.066   8.357   6.113
21506TIP3   OH264394   7.969   8.515   6.340
21506TIP3    H164395   7.883   8.493   6.381
21506TIP3    H264396   8.027   8.462   6.399
21507TIP3   OH264397   7.384   8.514   6.365
21507TIP3    H164398   7.289   8.522   6.339
21507TIP3    H264399   7.406   8.423   6.341
21508TIP3   OH264400   7.641   8.516   6.049
21508TIP3    H164401   7.734   8.518   6.020
21508TIP3    H264402   7.592   8.536   5.966
21509TIP3   OH264403   7.490   8.543   5.828
21509TIP3    H164404   7.419   8.499   5.777
21509TIP3    H264405   7.544   8.580   5.755
21510TIP3   OH264406   7.561   8.275   6.330
21510TIP3    H164407   7.527   8.195   6.376
21510TIP3    H264408   7.609   8.237   6.255
21511TIP3   OH264409   7.752   9.074   5.840
21511TIP3    H164410   7.677   9.012   5.828
21511TIP3    H264411   7.738   9.106   5.931
21512TIP3   OH264412   8.270   8.644   5.836
21512TIP3    H164413   8.367   8.630   5.827
21512TIP3    H264414   8.245   8.644   5.742
21513TIP3   OH264415   7.416   9.026   6.502
21513TIP3    H164416   7.460   9.059   6.421
21513TIP3    H264417   7.492   9.004   6.557
21514TIP3   OH264418   7.881   9.221   5.637
21514TIP3    H164419   7.849   9.310   5.663
21514TIP3    H264420   7.846   9.168   5.711
21515TIP3   OH264421   8.714   8.709   5.625
21515TIP3    H164422   8.653   8.655   5.568
21515TIP3    H264423   8.707   8.793   5.575
21516TIP3   OH264424   7.509   9.344   6.092
21516TIP3    H164425   7.538   9.435   6.113
21516TIP3    H264426   7.419   9.348   6.126
21517TIP3   OH264427   7.101   8.705   5.840
21517TIP3    H164428   7.149   8.789   5.860
21517TIP3    H264429   7.025   8.712   5.901
21518TIP3   OH264430   7.712   9.166   6.097
21518TIP3    H164431   7.648   9.240   6.084
21518TIP3    H264432   7.657   9.108   6.153
21519TIP3   OH264433   7.435   9.673   5.958
21519TIP3    H164434   7.351   9.662   6.007
21519TIP3    H264435   7.498   9.664   6.033
21520TIP3   OH264436   8.162   9.273   5.447
21520TIP3    H164437   8.208   9.243   5.526
21520TIP3    H264438   8.071   9.246   5.470
21521TIP3   OH264439   7.472   8.503   7.099
21521TIP3    H164440   7.379   8.512   7.128
21521TIP3    H264441   7.512   8.446   7.167
21522TIP3   OH264442   7.537   9.252   5.448
21522TIP3    H164443   7.553   9.160   5.419
21522TIP3    H264444   7.521   9.240   5.544
21523TIP3   OH264445   7.483   9.256   5.720
21523TIP3    H164446   7.550   9.232   5.785
21523TIP3    H264447   7.484   9.354   5.726
21524TIP3   OH264448   7.221   8.951   5.925
21524TIP3    H164449   7.155   8.996   5.982
21524TIP3    H264450   7.236   9.020   5.858
21525TIP3   OH264451   8.226   8.344   5.958
21525TIP3    H164452   8.213   8.369   5.865
21525TIP3    H264453   8.268   8.425   5.994
21526TIP3   OH264454   7.749   9.462   5.675
21526TIP3    H164455   7.661   9.485   5.710
21526TIP3    H264456   7.763   9.536   5.614
21527TIP3   OH264457   7.912   8.492   6.064
21527TIP3    H164458   7.971   8.563   6.032
21527TIP3    H264459   7.923   8.494   6.161
21528TIP3   OH264460   8.084   8.246   6.184
21528TIP3    H164461   8.122   8.294   6.260
21528TIP3    H264462   8.137   8.282   6.109
21529TIP3   OH264463   7.484   9.530   5.730
21529TIP3    H164464   7.460   9.598   5.664
21529TIP3    H264465   7.465   9.579   5.812
21530TIP3   OH264466   7.588   8.240   5.977
21530TIP3    H164467   7.588   8.331   6.010
21530TIP3    H264468   7.683   8.217   5.984
21531TIP3   OH264469   7.208   9.163   5.732
21531TIP3    H164470   7.270   9.236   5.743
21531TIP3    H264471   7.256   9.112   5.664
21532TIP3   OH264472   7.155   8.436   5.865
21532TIP3    H164473   7.155   8.533   5.859
21532TIP3    H264474   7.073   8.413   5.821
21533TIP3   OH264475   7.543   8.155   6.738
21533TIP3    H164476   7.510   8.123   6.652
21533TIP3    H264477   7.532   8.076   6.795
21534TIP3   OH264478   7.080   9.361   6.122
21534TIP3    H164479   7.011   9.406   6.171
21534TIP3    H264480   7.074   9.408   6.036
21535TIP3   OH264481   7.702   9.453   5.361
21535TIP3    H164482   7.644   9.385   5.403
21535TIP3    H264483   7.775   9.396   5.330
21536TIP3   OH264484   8.137   9.502   5.277
21536TIP3    H164485   8.174   9.428   5.328
21536TIP3    H264486   8.183   9.497   5.190
21537TIP3   OH264487   7.344   8.973   5.581
21537TIP3    H164488   7.399   8.941   5.654
21537TIP3    H264489   7.411   8.978   5.510
21538TIP3   OH264490   7.848   9.166   5.376
21538TIP3    H164491   7.849   9.184   5.473
21538TIP3    H264492   7.849   9.068   5.377
21539TIP3   OH264493   7.554   8.875   5.807
21539TIP3    H164494   7.527   8.830   5.888
21539TIP3    H264495   7.590   8.802   5.753
21540TIP3   OH264496   7.653   8.669   5.647
21540TIP3    H164497   7.624   8.669   5.553
21540TIP3    H264498   7.749   8.678   5.636
21541TIP3   OH264499   8.472   9.002   5.304
21541TIP3    H164500   8.451   8.953   5.222
21541TIP3    H264501   8.446   9.093   5.276
21542TIP3   OH264502   7.461   9.738   5.550
21542TIP3    H164503   7.558   9.731   5.535
21542TIP3    H264504   7.435   9.780   5.465
21543TIP3   OH264505   6.940   9.113   5.766
21543TIP3    H164506   7.035   9.136   5.754
21543TIP3    H264507   6.937   9.024   5.725
21544TIP3   OH264508   6.844   9.727   6.180
21544TIP3    H164509   6.780   9.661   6.145
21544TIP3    H264510   6.898   9.670   6.238
21545TIP3   OH264511   7.000   9.579   6.348
21545TIP3    H164512   6.981   9.516   6.419
21545TIP3    H264513   7.005   9.662   6.399
21546TIP3   OH264514   8.666   8.936   5.482
21546TIP3    H164515   8.599   8.957   5.414
21546TIP3    H264516   8.673   9.022   5.527
21547TIP3   OH264517   8.543   8.610   5.437
21547TIP3    H164518   8.493   8.664   5.375
21547TIP3    H264519   8.475   8.542   5.459
21548TIP3   OH264520   7.182   8.968   6.740
21548TIP3    H164521   7.182   8.950   6.644
21548TIP3    H264522   7.260   9.028   6.749
21549TIP3   OH264523   8.541   8.615   5.845
21549TIP3    H164524   8.582   8.532   5.875
21549TIP3    H264525   8.611   8.652   5.789
21550TIP3   OH264526   8.645   8.382   5.969
21550TIP3    H164527   8.733   8.343   5.983
21550TIP3    H264528   8.591   8.304   5.942
21551TIP3   OH264529   7.358   8.364   6.740
21551TIP3    H164530   7.425   8.293   6.753
21551TIP3    H264531   7.414   8.443   6.742
21552TIP3   OH264532   7.162   8.636   6.819
21552TIP3    H164533   7.210   8.637   6.734
21552TIP3    H264534   7.174   8.727   6.848
21553TIP3   OH264535   8.727   8.308   5.548
21553TIP3    H164536   8.761   8.235   5.492
21553TIP3    H264537   8.793   8.377   5.534
21554TIP3   OH264538   7.142   8.140   6.317
21554TIP3    H164539   7.049   8.141   6.343
21554TIP3    H264540   7.143   8.199   6.239
21555TIP3   OH264541   7.357   8.205   7.133
21555TIP3    H164542   7.301   8.207   7.212
21555TIP3    H264543   7.300   8.251   7.068
21556TIP3   OH264544   8.176   8.354   6.444
21556TIP3    H164545   8.144   8.294   6.514
21556TIP3    H264546   8.259   8.309   6.418
21557TIP3   OH264547   7.454   8.064   6.489
21557TIP3    H164548   7.362   8.031   6.488
21557TIP3    H264549   7.504   7.980   6.485
21558TIP3   OH264550   7.239   7.931   6.135
21558TIP3    H164551   7.270   7.989   6.063
21558TIP3    H264552   7.210   7.997   6.202
21559TIP3   OH264553   7.894   8.097   6.372
21559TIP3    H164554   7.955   8.142   6.311
21559TIP3    H264555   7.925   8.131   6.458
21560TIP3   OH264556   8.399   8.237   6.342
21560TIP3    H164557   8.444   8.195   6.267
21560TIP3    H264558   8.426   8.177   6.413
21561TIP3   OH264559   8.477   8.165   5.916
21561TIP3    H164560   8.385   8.195   5.903
21561TIP3    H264561   8.462   8.081   5.964
21562TIP3   OH264562   6.957   9.501   5.921
21562TIP3    H164563   6.872   9.472   5.883
21562TIP3    H264564   6.950   9.597   5.906
21563TIP3   OH264565   7.355   8.090   5.903
21563TIP3    H164566   7.405   8.030   5.843
21563TIP3    H264567   7.427   8.146   5.937
21564TIP3   OH264568   7.864   8.238   6.001
21564TIP3    H164569   7.930   8.202   6.062
21564TIP3    H264570   7.879   8.334   6.014
21565TIP3   OH264571   7.724   9.694   5.487
21565TIP3    H164572   7.814   9.718   5.458
21565TIP3    H264573   7.709   9.615   5.431
21566TIP3   OH264574   7.033   9.530   5.557
21566TIP3    H164575   7.031   9.559   5.649
21566TIP3    H264576   7.123   9.490   5.549
21567TIP3   OH264577   9.410   8.538   5.189
21567TIP3    H164578   9.389   8.494   5.271
21567TIP3    H264579   9.325   8.577   5.161
21568TIP3   OH264580   8.957   8.573   5.587
21568TIP3    H164581   8.974   8.603   5.495
21568TIP3    H264582   8.875   8.623   5.605
21569TIP3   OH264583   8.941   8.689   5.345
21569TIP3    H164584   8.947   8.785   5.349
21569TIP3    H264585   8.853   8.672   5.310
21570TIP3   OH264586   8.925   8.362   5.750
21570TIP3    H164587   8.845   8.394   5.795
21570TIP3    H264588   8.950   8.441   5.698
21571TIP3   OH264589   9.047   8.169   5.607
21571TIP3    H164590   9.065   8.229   5.533
21571TIP3    H264591   9.000   8.230   5.669
21572TIP3   OH264592   9.141   8.346   5.379
21572TIP3    H164593   9.194   8.282   5.327
21572TIP3    H264594   9.207   8.388   5.435
21573TIP3   OH264595   1.204   9.092   7.261
21573TIP3    H164596   1.237   9.020   7.203
21573TIP3    H264597   1.245   9.171   7.224
21574TIP3   OH264598   3.271   9.664   7.663
21574TIP3    H164599   3.181   9.706   7.661
21574TIP3    H264600   3.297   9.677   7.569
21575TIP3   OH264601   2.635   9.561   7.279
21575TIP3    H164602   2.700   9.568   7.352
21575TIP3    H264603   2.655   9.641   7.230
21576TIP3   OH264604   2.845   9.594   7.453
21576TIP3    H164605   2.846   9.531   7.526
21576TIP3    H264606   2.929   9.641   7.463
21577TIP3   OH264607   2.193   9.725   6.814
21577TIP3    H164608   2.253   9.794   6.845
21577TIP3    H264609   2.246   9.683   6.744
21578TIP3   OH264610   2.928   9.149   6.913
21578TIP3    H164611   2.846   9.166   6.964
21578TIP3    H264612   2.937   9.233   6.864
21579TIP3   OH264613   2.201   9.331   6.906
21579TIP3    H164614   2.174   9.326   7.001
21579TIP3    H264615   2.164   9.246   6.876
21580TIP3   OH264616   2.374   9.744   7.134
21580TIP3    H164617   2.324   9.817   7.096
21580TIP3    H264618   2.441   9.727   7.064
21581TIP3   OH264619   1.857   9.303   6.867
21581TIP3    H164620   1.858   9.288   6.964
21581TIP3    H264621   1.774   9.352   6.857
21582TIP3   OH264622   1.939   9.509   7.145
21582TIP3    H164623   2.020   9.559   7.128
21582TIP3    H264624   1.872   9.554   7.089
21583TIP3   OH264625   1.714   9.578   7.003
21583TIP3    H164626   1.660   9.546   6.928
21583TIP3    H264627   1.769   9.646   6.959
21584TIP3   OH264628   1.745   9.247   7.414
21584TIP3    H164629   1.756   9.231   7.508
21584TIP3    H264630   1.829   9.291   7.393
21585TIP3   OH264631   2.452   9.438   6.872
21585TIP3    H164632   2.356   9.421   6.885
21585TIP3    H264633   2.462   9.534   6.888
21586TIP3   OH264634   2.545   9.697   6.931
21586TIP3    H164635   2.631   9.681   6.974
21586TIP3    H264636   2.559   9.782   6.888
21587TIP3   OH264637   2.963   9.758   6.822
21587TIP3    H164638   2.899   9.718   6.759
21587TIP3    H264639   2.974   9.844   6.780
21588TIP3   OH264640   2.492   9.373   7.149
21588TIP3    H164641   2.478   9.405   7.058
21588TIP3    H264642   2.537   9.450   7.192
21589TIP3   OH264643   2.201   9.560   7.250
21589TIP3    H164644   2.267   9.619   7.206
21589TIP3    H264645   2.202   9.602   7.337
21590TIP3   OH264646   2.332   9.290   7.365
21590TIP3    H164647   2.359   9.345   7.442
21590TIP3    H264648   2.383   9.334   7.293
21591TIP3   OH264649   1.848   9.252   7.132
21591TIP3    H164650   1.851   9.347   7.155
21591TIP3    H264651   1.941   9.230   7.152
21592TIP3   OH264652   1.913   9.702   6.864
21592TIP3    H164653   1.875   9.665   6.782
21592TIP3    H264654   2.010   9.702   6.848
21593TIP3   OH264655   2.790   9.687   6.622
21593TIP3    H164656   2.775   9.710   6.529
21593TIP3    H264657   2.767   9.592   6.621
21594TIP3   OH264658   2.820   9.935   7.177
21594TIP3    H164659   2.822   9.838   7.174
21594TIP3    H264660   2.813   9.952   7.271
21595TIP3   OH264661   2.738   9.422   6.617
21595TIP3    H164662   2.814   9.385   6.666
21595TIP3    H264663   2.666   9.359   6.636
21596TIP3   OH264664   2.794   9.671   7.055
21596TIP3    H164665   2.828   9.581   7.079
21596TIP3    H264666   2.860   9.697   6.989
21597TIP3   OH264667   2.909   9.420   7.099
21597TIP3    H164668   2.951   9.404   7.186
21597TIP3    H264669   2.844   9.347   7.097
21598TIP3   OH264670   2.989   9.359   6.732
21598TIP3    H164671   3.028   9.286   6.680
21598TIP3    H264672   3.056   9.429   6.722
21599TIP3   OH264673   2.437   9.364   7.617
21599TIP3    H164674   2.441   9.339   7.710
21599TIP3    H264675   2.531   9.368   7.593
21600TIP3   OH264676   2.981   9.292   7.567
21600TIP3    H164677   3.016   9.333   7.485
21600TIP3    H264678   2.884   9.292   7.549
21601TIP3   OH264679   3.074   9.379   7.324
21601TIP3    H164680   3.143   9.326   7.279
21601TIP3    H264681   3.106   9.470   7.303
21602TIP3   OH264682   1.486   8.957   7.290
21602TIP3    H164683   1.519   9.012   7.217
21602TIP3    H264684   1.460   9.026   7.355
21603TIP3   OH264685   2.165   9.114   7.520
21603TIP3    H164686   2.219   9.178   7.471
21603TIP3    H264687   2.131   9.169   7.593
21604TIP3   OH264688   2.707   9.285   7.532
21604TIP3    H164689   2.681   9.261   7.442
21604TIP3    H264690   2.683   9.205   7.583
21605TIP3   OH264691   2.723   9.209   7.092
21605TIP3    H164692   2.635   9.250   7.101
21605TIP3    H264693   2.707   9.124   7.138
21606TIP3   OH264694   1.600   9.130   7.079
21606TIP3    H164695   1.649   9.070   7.021
21606TIP3    H264696   1.674   9.182   7.117
21607TIP3   OH264697   2.131   9.293   7.174
21607TIP3    H164698   2.192   9.265   7.244
21607TIP3    H264699   2.127   9.389   7.195
21608TIP3   OH264700   3.167   9.890   6.982
21608TIP3    H164701   3.123   9.969   7.016
21608TIP3    H264702   3.091   9.833   6.959
21609TIP3   OH264703   4.991   9.917   7.144
21609TIP3    H164704   5.023   9.997   7.190
21609TIP3    H264705   5.022   9.934   7.054
21610TIP3   OH264706   4.397  10.098   7.177
21610TIP3    H164707   4.442  10.013   7.198
21610TIP3    H264708   4.363  10.079   7.088
21611TIP3   OH264709   3.734   9.758   7.152
21611TIP3    H164710   3.716   9.831   7.089
21611TIP3    H264711   3.687   9.685   7.106
21612TIP3   OH264712   4.430   9.843   6.776
21612TIP3    H164713   4.506   9.831   6.838
21612TIP3    H264714   4.477   9.884   6.700
21613TIP3   OH264715   3.376   9.963   7.254
21613TIP3    H164716   3.455   9.930   7.299
21613TIP3    H264717   3.380   9.914   7.169
21614TIP3   OH264718   3.821  10.159   7.047
21614TIP3    H164719   3.909  10.120   7.067
21614TIP3    H264720   3.772  10.085   7.009
21615TIP3   OH264721   5.075  10.111   7.326
21615TIP3    H164722   4.999  10.165   7.294
21615TIP3    H264723   5.104  10.161   7.404
21616TIP3   OH264724   3.731   9.741   7.587
21616TIP3    H164725   3.670   9.778   7.521
21616TIP3    H264726   3.677   9.741   7.667
21617TIP3   OH264727   4.645   9.849   6.942
21617TIP3    H164728   4.636   9.805   7.028
21617TIP3    H264729   4.696   9.929   6.965
21618TIP3   OH264730   3.607   9.855   7.371
21618TIP3    H164731   3.669   9.930   7.387
21618TIP3    H264732   3.652   9.813   7.295
21619TIP3   OH264733   4.792   9.814   7.314
21619TIP3    H164734   4.706   9.849   7.285
21619TIP3    H264735   4.852   9.848   7.244
21620TIP3   OH264736   4.096   9.461   7.300
21620TIP3    H164737   4.078   9.366   7.312
21620TIP3    H264738   4.016   9.500   7.342
21621TIP3   OH264739   3.999   9.973   6.314
21621TIP3    H164740   4.043  10.056   6.336
21621TIP3    H264741   4.044   9.948   6.232
21622TIP3   OH264742   4.623  10.318   7.416
21622TIP3    H164743   4.623  10.415   7.424
21622TIP3    H264744   4.526  10.308   7.398
21623TIP3   OH264745   4.724   9.406   6.400
21623TIP3    H164746   4.642   9.428   6.449
21623TIP3    H264747   4.738   9.489   6.349
21624TIP3   OH264748   4.849  10.304   7.601
21624TIP3    H164749   4.768  10.296   7.547
21624TIP3    H264750   4.874  10.211   7.611
21625TIP3   OH264751   3.854   9.535   7.423
21625TIP3    H164752   3.763   9.504   7.402
21625TIP3    H264753   3.832   9.622   7.461
21626TIP3   OH264754   4.386   9.653   7.619
21626TIP3    H164755   4.452   9.623   7.683
21626TIP3    H264756   4.300   9.630   7.661
21627TIP3   OH264757   4.628  10.065   7.538
21627TIP3    H164758   4.578  10.071   7.623
21627TIP3    H264759   4.608  10.151   7.496
21628TIP3   OH264760   4.005   9.581   6.397
21628TIP3    H164761   3.967   9.588   6.486
21628TIP3    H264762   3.957   9.502   6.363
21629TIP3   OH264763   3.781  10.064   7.437
21629TIP3    H164764   3.743  10.097   7.521
21629TIP3    H264765   3.769  10.139   7.378
21630TIP3   OH264766   3.669   9.935   6.958
21630TIP3    H164767   3.575   9.911   6.972
21630TIP3    H264768   3.683   9.900   6.867
21631TIP3   OH264769   4.170  10.024   6.686
21631TIP3    H164770   4.089  10.076   6.665
21631TIP3    H264771   4.208  10.008   6.598
21632TIP3   OH264772   4.307  10.043   6.926
21632TIP3    H164773   4.249  10.062   6.849
21632TIP3    H264774   4.349   9.963   6.890
21633TIP3   OH264775   3.648   9.552   6.364
21633TIP3    H164776   3.638   9.563   6.461
21633TIP3    H264777   3.573   9.608   6.333
21634TIP3   OH264778   3.190   9.604   7.232
21634TIP3    H164779   3.268   9.635   7.282
21634TIP3    H264780   3.228   9.569   7.149
21635TIP3   OH264781   3.175   9.583   6.756
21635TIP3    H164782   3.212   9.627   6.676
21635TIP3    H264783   3.111   9.652   6.782
21636TIP3   OH264784   4.353  10.280   7.367
21636TIP3    H164785   4.364  10.216   7.293
21636TIP3    H264786   4.289  10.231   7.422
21637TIP3   OH264787   3.991   9.746   7.021
21637TIP3    H164788   3.907   9.756   7.069
21637TIP3    H264789   4.054   9.778   7.088
21638TIP3   OH264790   3.428   9.817   7.024
21638TIP3    H164791   3.333   9.824   6.999
21638TIP3    H264792   3.449   9.725   7.002
21639TIP3   OH264793   3.707   9.811   6.714
21639TIP3    H164794   3.794   9.842   6.685
21639TIP3    H264795   3.649   9.837   6.639
21640TIP3   OH264796   4.484   9.835   7.219
21640TIP3    H164797   4.449   9.847   7.310
21640TIP3    H264798   4.417   9.774   7.183
21641TIP3   OH264799   3.529   9.822   6.506
21641TIP3    H164800   3.471   9.789   6.434
21641TIP3    H264801   3.586   9.884   6.455
21642TIP3   OH264802   4.071  10.053   7.105
21642TIP3    H164803   4.158  10.049   7.061
21642TIP3    H264804   4.094  10.059   7.199
21643TIP3   OH264805   3.605   9.576   6.996
21643TIP3    H164806   3.570   9.495   7.037
21643TIP3    H264807   3.647   9.543   6.915
21644TIP3   OH264808   4.046   9.963   7.408
21644TIP3    H164809   3.964  10.015   7.408
21644TIP3    H264810   4.110  10.022   7.452
21645TIP3   OH264811   4.250   9.698   6.363
21645TIP3    H164812   4.153   9.679   6.370
21645TIP3    H264813   4.255   9.794   6.382
21646TIP3   OH264814   4.320   9.954   6.451
21646TIP3    H164815   4.413   9.944   6.481
21646TIP3    H264816   4.324  10.039   6.404
21647TIP3   OH264817   4.758  10.015   6.309
21647TIP3    H164818   4.694   9.976   6.245
21647TIP3    H264819   4.765  10.104   6.273
21648TIP3   OH264820   4.413   9.889   7.481
21648TIP3    H164821   4.498   9.924   7.513
21648TIP3    H264822   4.402   9.807   7.533
21649TIP3   OH264823   4.296   9.637   6.640
21649TIP3    H164824   4.276   9.666   6.548
21649TIP3    H264825   4.331   9.720   6.679
21650TIP3   OH264826   3.995   9.811   6.746
21650TIP3    H164827   4.056   9.886   6.729
21650TIP3    H264828   3.989   9.811   6.843
21651TIP3   OH264829   4.234  10.105   7.543
21651TIP3    H164830   4.266  10.169   7.610
21651TIP3    H264831   4.304  10.036   7.543
21652TIP3   OH264832   4.130   9.548   6.851
21652TIP3    H164833   4.112   9.625   6.909
21652TIP3    H264834   4.188   9.589   6.783
21653TIP3   OH264835   3.640   9.541   6.644
21653TIP3    H164836   3.628   9.635   6.669
21653TIP3    H264837   3.737   9.534   6.652
21654TIP3   OH264838   4.895  10.032   7.544
21654TIP3    H164839   4.796  10.026   7.542
21654TIP3    H264840   4.916  10.014   7.451
21655TIP3   OH264841   4.533  10.218   6.907
21655TIP3    H164842   4.464  10.158   6.939
21655TIP3    H264843   4.609  10.195   6.963
21656TIP3   OH264844   3.190   9.740   6.536
21656TIP3    H164845   3.214   9.831   6.514
21656TIP3    H264846   3.125   9.717   6.470
21657TIP3   OH264847   3.590   9.456   7.402
21657TIP3    H164848   3.556   9.424   7.315
21657TIP3    H264849   3.576   9.378   7.459
21658TIP3   OH264850   3.713   9.955   6.362
21658TIP3    H164851   3.672   9.939   6.275
21658TIP3    H264852   3.807   9.970   6.339
21659TIP3   OH264853   4.006   9.970   7.843
21659TIP3    H164854   3.992   9.909   7.768
21659TIP3    H264855   3.982  10.056   7.802
21660TIP3   OH264856   3.993   9.802   7.622
21660TIP3    H164857   4.017   9.851   7.540
21660TIP3    H264858   3.897   9.787   7.607
21661TIP3   OH264859   4.128   9.582   7.701
21661TIP3    H164860   4.081   9.664   7.671
21661TIP3    H264861   4.060   9.515   7.680
21662TIP3   OH264862   4.494  10.031   7.771
21662TIP3    H164863   4.419  10.017   7.828
21662TIP3    H264864   4.570  10.012   7.830
21663TIP3   OH264865   4.712   9.979   7.938
21663TIP3    H164866   4.728   9.882   7.944
21663TIP3    H264867   4.725  10.009   8.029
21664TIP3   OH264868   4.205   9.553   7.954
21664TIP3    H164869   4.290   9.505   7.940
21664TIP3    H264870   4.183   9.577   7.860
21665TIP3   OH264871   4.377   9.789   8.029
21665TIP3    H164872   4.334   9.710   7.992
21665TIP3    H264873   4.301   9.850   8.034
21666TIP3   OH264874   4.588   9.943   6.108
21666TIP3    H164875   4.566   9.968   6.017
21666TIP3    H264876   4.565   9.847   6.106
21667TIP3   OH264877   4.626  10.192   6.655
21667TIP3    H164878   4.626  10.096   6.667
21667TIP3    H264879   4.603  10.222   6.746
21668TIP3   OH264880   5.043  10.474   7.520
21668TIP3    H164881   4.975  10.419   7.566
21668TIP3    H264882   5.121  10.419   7.533
21669TIP3   OH264883   4.535   9.677   6.101
21669TIP3    H164884   4.611   9.642   6.151
21669TIP3    H264885   4.462   9.616   6.123
21670TIP3   OH264886   4.584   9.919   6.550
21670TIP3    H164887   4.629   9.832   6.563
21670TIP3    H264888   4.644   9.960   6.485
21671TIP3   OH264889   4.753  10.102   7.036
21671TIP3    H164890   4.837  10.130   6.994
21671TIP3    H264891   4.770  10.139   7.125
21672TIP3   OH264892   4.836  10.234   7.265
21672TIP3    H164893   4.755  10.265   7.311
21672TIP3    H264894   4.880  10.319   7.243
21673TIP3   OH264895   5.268   9.815   7.835
21673TIP3    H164896   5.330   9.765   7.778
21673TIP3    H264897   5.250   9.894   7.781
21674TIP3   OH264898   4.704   9.676   6.587
21674TIP3    H164899   4.752   9.663   6.671
21674TIP3    H264900   4.641   9.600   6.589
21675TIP3   OH264901   3.403   9.661   7.401
21675TIP3    H164902   3.470   9.591   7.409
21675TIP3    H264903   3.458   9.741   7.401
21676TIP3   OH264904   3.275   9.946   7.513
21676TIP3    H164905   3.283   9.931   7.417
21676TIP3    H264906   3.234  10.033   7.514
21677TIP3   OH264907   5.129   9.980   7.661
21677TIP3    H164908   5.037  10.007   7.636
21677TIP3    H264909   5.138   9.906   7.598
21678TIP3   OH264910   4.784   9.614   6.219
21678TIP3    H164911   4.828   9.543   6.168
21678TIP3    H264912   4.850   9.686   6.215
21679TIP3   OH264913   3.187   9.445   6.987
21679TIP3    H164914   3.093   9.439   7.009
21679TIP3    H264915   3.186   9.500   6.905
21680TIP3   OH264916   3.422   9.503   7.814
21680TIP3    H164917   3.355   9.463   7.872
21680TIP3    H264918   3.368   9.559   7.754
21681TIP3   OH264919   5.040   9.739   7.524
21681TIP3    H164920   4.952   9.737   7.481
21681TIP3    H264921   5.072   9.648   7.506
21682TIP3   OH264922   4.259   9.658   7.143
21682TIP3    H164923   4.206   9.591   7.188
21682TIP3    H264924   4.322   9.605   7.091
21683TIP3   OH264925   4.774   9.528   7.038
21683TIP3    H164926   4.813   9.586   6.968
21683TIP3    H264927   4.680   9.556   7.036
21684TIP3   OH264928   4.869   9.636   6.804
21684TIP3    H164929   4.944   9.587   6.764
21684TIP3    H264930   4.901   9.728   6.792
21685TIP3   OH264931   3.499   9.363   7.154
21685TIP3    H164932   3.406   9.332   7.153
21685TIP3    H264933   3.547   9.277   7.151
21686TIP3   OH264934   3.287   9.237   6.799
21686TIP3    H164935   3.311   9.297   6.727
21686TIP3    H264936   3.252   9.299   6.866
21687TIP3   OH264937   3.946   9.391   7.030
21687TIP3    H164938   4.000   9.451   6.976
21687TIP3    H264939   3.948   9.436   7.115
21688TIP3   OH264940   4.493   9.542   7.018
21688TIP3    H164941   4.482   9.512   6.927
21688TIP3    H264942   4.475   9.460   7.070
21689TIP3   OH264943   4.518   9.463   6.579
21689TIP3    H164944   4.434   9.512   6.589
21689TIP3    H264945   4.498   9.380   6.628
21690TIP3   OH264946   3.403   9.391   6.566
21690TIP3    H164947   3.465   9.337   6.516
21690TIP3    H264948   3.463   9.457   6.606
21691TIP3   OH264949   3.916   9.563   6.666
21691TIP3    H164950   3.981   9.529   6.729
21691TIP3    H264951   3.929   9.659   6.684
21692TIP3   OH264952   3.699   9.548   7.998
21692TIP3    H164953   3.672   9.503   8.080
21692TIP3    H264954   3.700   9.642   8.025
21693TIP3   OH264955   3.986   9.595   8.163
21693TIP3    H164956   4.055   9.653   8.200
21693TIP3    H264957   3.933   9.572   8.241
21694TIP3   OH264958   4.777   9.709   7.943
21694TIP3    H164959   4.800   9.675   8.032
21694TIP3    H264960   4.865   9.705   7.897
21695TIP3   OH264961   4.961  10.149   6.466
21695TIP3    H164962   4.918  10.225   6.507
21695TIP3    H264963   4.885  10.090   6.449
21696TIP3   OH264964   6.140  10.356   6.670
21696TIP3    H164965   6.215  10.302   6.696
21696TIP3    H264966   6.145  10.354   6.573
21697TIP3   OH264967   5.535  10.014   6.633
21697TIP3    H164968   5.513  10.088   6.573
21697TIP3    H264969   5.483   9.942   6.592
21698TIP3   OH264970   6.227  10.100   6.260
21698TIP3    H164971   6.299  10.088   6.326
21698TIP3    H264972   6.277  10.137   6.185
21699TIP3   OH264973   5.157  10.203   6.751
21699TIP3    H164974   5.244  10.189   6.792
21699TIP3    H264975   5.172  10.167   6.662
21700TIP3   OH264976   5.622  10.418   6.517
21700TIP3    H164977   5.705  10.377   6.549
21700TIP3    H264978   5.568  10.341   6.492
21701TIP3   OH264979   5.533  10.032   7.086
21701TIP3    H164980   5.479  10.017   7.006
21701TIP3    H264981   5.467  10.022   7.157
21702TIP3   OH264982   6.444  10.114   6.432
21702TIP3    H164983   6.430  10.039   6.491
21702TIP3    H264984   6.527  10.150   6.466
21703TIP3   OH264985   5.399  10.110   6.851
21703TIP3    H164986   5.462  10.180   6.879
21703TIP3    H264987   5.452  10.068   6.779
21704TIP3   OH264988   5.890   9.714   6.785
21704TIP3    H164989   5.875   9.618   6.800
21704TIP3    H264990   5.826   9.751   6.849
21705TIP3   OH264991   5.778  10.239   5.778
21705TIP3    H164992   5.833  10.302   5.825
21705TIP3    H264993   5.841  10.198   5.717
21706TIP3   OH264994   6.520   9.663   5.885
21706TIP3    H164995   6.438   9.681   5.935
21706TIP3    H264996   6.530   9.746   5.834
21707TIP3   OH264997   5.799   9.846   5.889
21707TIP3    H164998   5.761   9.840   5.979
21707TIP3    H264999   5.757   9.769   5.847
21708TIP3   OH265000   5.577  10.316   6.923
21708TIP3    H165001   5.528  10.323   7.008
21708TIP3    H265002   5.566  10.405   6.887
21709TIP3   OH265003   5.463  10.195   6.445
21709TIP3    H165004   5.371  10.167   6.461
21709TIP3    H265005   5.478  10.157   6.355
21710TIP3   OH265006   5.963  10.281   6.171
21710TIP3    H165007   5.882  10.332   6.147
21710TIP3    H265008   6.005  10.266   6.084
21711TIP3   OH265009   6.106  10.313   6.400
21711TIP3    H165010   6.047  10.320   6.323
21711TIP3    H265011   6.151  10.230   6.375
21712TIP3   OH265012   5.421  10.340   7.151
21712TIP3    H165013   5.419  10.391   7.232
21712TIP3    H265014   5.396  10.251   7.183
21713TIP3   OH265015   5.437   9.795   5.856
21713TIP3    H165016   5.435   9.809   5.953
21713TIP3    H265017   5.377   9.865   5.825
21714TIP3   OH265018   4.992   9.860   6.718
21714TIP3    H165019   5.060   9.898   6.777
21714TIP3    H265020   5.043   9.828   6.643
21715TIP3   OH265021   4.968   9.839   6.240
21715TIP3    H165022   5.013   9.878   6.162
21715TIP3    H265023   4.909   9.912   6.264
21716TIP3   OH265024   5.789  10.006   6.506
21716TIP3    H165025   5.704  10.011   6.554
21716TIP3    H265026   5.850  10.039   6.574
21717TIP3   OH265027   5.224  10.076   6.510
21717TIP3    H165028   5.130  10.079   6.486
21717TIP3    H265029   5.251   9.984   6.491
21718TIP3   OH265030   5.500  10.069   6.203
21718TIP3    H165031   5.592  10.091   6.180
21718TIP3    H265032   5.449  10.096   6.123
21719TIP3   OH265033   6.267  10.083   6.707
21719TIP3    H165034   6.226  10.079   6.794
21719TIP3    H265035   6.206  10.025   6.657
21720TIP3   OH265036   5.327  10.082   5.982
21720TIP3    H165037   5.261  10.054   5.917
21720TIP3    H265038   5.375  10.151   5.932
21721TIP3   OH265039   5.865  10.312   6.593
21721TIP3    H165040   5.951  10.312   6.549
21721TIP3    H265041   5.893  10.325   6.685
21722TIP3   OH265042   5.393   9.836   6.480
21722TIP3    H165043   5.365   9.754   6.525
21722TIP3    H265044   5.450   9.802   6.409
21723TIP3   OH265045   5.847  10.235   6.909
21723TIP3    H165046   5.752  10.258   6.897
21723TIP3    H265047   5.887  10.322   6.923
21724TIP3   OH265048   6.041   9.958   5.845
21724TIP3    H165049   5.947   9.933   5.858
21724TIP3    H265050   6.045  10.052   5.871
21725TIP3   OH265051   6.115  10.214   5.938
21725TIP3    H165052   6.207  10.199   5.968
21725TIP3    H265053   6.124  10.295   5.887
21726TIP3   OH265054   6.537  10.258   5.801
21726TIP3    H165055   6.477  10.230   5.729
21726TIP3    H265056   6.563  10.347   5.771
21727TIP3   OH265057   5.366  10.094   7.309
21727TIP3    H165058   5.269  10.081   7.303
21727TIP3    H265059   5.394  10.014   7.356
21728TIP3   OH265060   6.085   9.896   6.127
21728TIP3    H165061   6.071   9.921   6.034
21728TIP3    H265062   6.125   9.977   6.165
21729TIP3   OH265063   5.785  10.073   6.234
21729TIP3    H165064   5.852  10.142   6.220
21729TIP3    H265065   5.783  10.067   6.332
21730TIP3   OH265066   5.925   9.805   6.340
21730TIP3    H165067   5.908   9.882   6.397
21730TIP3    H265068   5.983   9.844   6.271
21731TIP3   OH265069   5.433   9.800   6.131
21731TIP3    H165070   5.429   9.893   6.161
21731TIP3    H265071   5.529   9.784   6.139
21732TIP3   OH265072   4.991   9.994   6.015
21732TIP3    H165073   5.007  10.089   6.004
21732TIP3    H265074   4.906   9.980   5.973
21733TIP3   OH265075   5.351   9.721   6.892
21733TIP3    H165076   5.354   9.678   6.805
21733TIP3    H265077   5.396   9.656   6.950
21734TIP3   OH265078   5.502  10.225   5.825
21734TIP3    H165079   5.470  10.170   5.752
21734TIP3    H265080   5.599  10.214   5.822
21735TIP3   OH265081   5.801  10.057   7.114
21735TIP3    H165082   5.816  10.113   7.035
21735TIP3    H265083   5.703  10.044   7.108
21736TIP3   OH265084   5.927   9.818   7.129
21736TIP3    H165085   5.879   9.904   7.125
21736TIP3    H265086   5.850   9.757   7.133
21737TIP3   OH265087   6.375  10.204   5.588
21737TIP3    H165088   6.358  10.220   5.495
21737TIP3    H265089   6.359  10.106   5.592
21738TIP3   OH265090   6.381  10.457   6.143
21738TIP3    H165091   6.392  10.361   6.132
21738TIP3    H265092   6.391  10.469   6.238
21739TIP3   OH265093   6.338   9.938   5.581
21739TIP3    H165094   6.413   9.902   5.633
21739TIP3    H265095   6.265   9.877   5.605
21740TIP3   OH265096   6.388  10.184   6.040
21740TIP3    H165097   6.427  10.094   6.055
21740TIP3    H265098   6.442  10.212   5.964
21741TIP3   OH265099   5.226  10.212   7.549
21741TIP3    H165100   5.318  10.184   7.550
21741TIP3    H265101   5.187  10.145   7.608
21742TIP3   OH265102   6.490   9.933   6.077
21742TIP3    H165103   6.543   9.913   6.157
21742TIP3    H265104   6.432   9.854   6.073
21743TIP3   OH265105   5.186   9.931   6.902
21743TIP3    H165106   5.245   9.852   6.906
21743TIP3    H265107   5.252  10.001   6.888
21744TIP3   OH265108   4.999  10.204   6.974
21744TIP3    H165109   5.048  10.190   6.890
21744TIP3    H265110   5.023  10.295   6.994
21745TIP3   OH265111   6.580   9.872   5.703
21745TIP3    H165112   6.623   9.798   5.657
21745TIP3    H265113   6.649   9.942   5.699
21746TIP3   OH265114   4.981   9.689   6.463
21746TIP3    H165115   4.890   9.699   6.494
21746TIP3    H265116   4.984   9.752   6.388
21747TIP3   OH265117   5.194   9.790   7.291
21747TIP3    H165118   5.141   9.781   7.371
21747TIP3    H265119   5.129   9.819   7.225
21748TIP3   OH265120   6.056   9.912   6.629
21748TIP3    H165121   6.001   9.845   6.675
21748TIP3    H265122   6.115   9.857   6.575
21749TIP3   OH265123   6.558   9.809   6.547
21749TIP3    H165124   6.600   9.843   6.465
21749TIP3    H265125   6.463   9.809   6.524
21750TIP3   OH265126   6.653   9.883   6.301
21750TIP3    H165127   6.728   9.828   6.268
21750TIP3    H265128   6.684   9.970   6.266
21751TIP3   OH265129   5.297   9.619   6.629
21751TIP3    H165130   5.206   9.586   6.636
21751TIP3    H265131   5.348   9.534   6.631
21752TIP3   OH265132   5.078   9.488   6.285
21752TIP3    H165133   5.111   9.547   6.214
21752TIP3    H265134   5.050   9.553   6.352
21753TIP3   OH265135   5.737   9.652   6.519
21753TIP3    H165136   5.796   9.706   6.463
21753TIP3    H265137   5.754   9.689   6.606
21754TIP3   OH265138   6.284   9.797   6.495
21754TIP3    H165139   6.274   9.758   6.408
21754TIP3    H265140   6.269   9.719   6.554
21755TIP3   OH265141   6.314   9.719   6.065
21755TIP3    H165142   6.227   9.761   6.073
21755TIP3    H265143   6.299   9.635   6.113
21756TIP3   OH265144   5.197   9.648   6.054
21756TIP3    H165145   5.249   9.593   5.993
21756TIP3    H265146   5.267   9.707   6.090
21757TIP3   OH265147   5.710   9.823   6.152
21757TIP3    H165148   5.772   9.779   6.213
21757TIP3    H265149   5.729   9.916   6.175
21758TIP3   OH265150   5.501   9.914   7.557
21758TIP3    H165151   5.477   9.824   7.583
21758TIP3    H265152   5.584   9.898   7.510
21759TIP3   OH265153   6.756  10.406   5.906
21759TIP3    H165154   6.745  10.473   5.976
21759TIP3    H265155   6.694  10.338   5.934
21760TIP3   OH265156   7.604  10.090   5.351
21760TIP3    H165157   7.581  10.114   5.441
21760TIP3    H265158   7.552  10.007   5.338
21761TIP3   OH265159   7.243  10.070   5.333
21761TIP3    H165160   7.239  10.065   5.431
21761TIP3    H265161   7.165  10.126   5.316
21762TIP3   OH265162   6.754  10.086   6.158
21762TIP3    H165163   6.835  10.129   6.192
21762TIP3    H265164   6.792  10.041   6.080
21763TIP3   OH265165   6.765  10.099   5.720
21763TIP3    H165166   6.814  10.142   5.647
21763TIP3    H265167   6.711  10.174   5.753
21764TIP3   OH265168   7.126  10.316   5.481
21764TIP3    H165169   7.055  10.307   5.415
21764TIP3    H265170   7.185  10.381   5.437
21765TIP3   OH265171   7.225  10.044   5.606
21765TIP3    H165172   7.193  10.117   5.662
21765TIP3    H265173   7.302  10.013   5.655
21766TIP3   OH265174   6.794  10.252   5.488
21766TIP3    H165175   6.799  10.348   5.499
21766TIP3    H265176   6.701  10.235   5.470
21767TIP3   OH265177   7.310  10.455   5.331
21767TIP3    H165178   7.256  10.441   5.250
21767TIP3    H265179   7.386  10.502   5.295
21768TIP3   OH265180   6.771   9.934   5.932
21768TIP3    H165181   6.679   9.944   5.962
21768TIP3    H265182   6.777  10.000   5.860
21769TIP3   OH265183   7.071   9.860   6.063
21769TIP3    H165184   6.982   9.826   6.086
21769TIP3    H265185   7.127   9.781   6.079
21770TIP3   OH265186   6.872   9.738   5.765
21770TIP3    H165187   6.906   9.800   5.698
21770TIP3    H265188   6.843   9.801   5.835
21771TIP3   OH265189   6.989   9.905   5.533
21771TIP3    H165190   7.038   9.841   5.477
21771TIP3    H265191   7.063   9.959   5.566
21772TIP3   OH265192   6.780   2.149   9.534
21772TIP3    H165193   6.790   2.244   9.511
21772TIP3    H265194   6.871   2.116   9.514
21773TIP3   OH265195   6.267   2.371   9.632
21773TIP3    H165196   6.330   2.299   9.617
21773TIP3    H265197   6.264   2.376   9.729
21774TIP3   OH265198   6.553   1.615   9.675
21774TIP3    H165199   6.515   1.565   9.601
21774TIP3    H265200   6.643   1.632   9.642
21775TIP3   OH265201   6.756   2.199   9.799
21775TIP3    H165202   6.688   2.137   9.828
21775TIP3    H265203   6.759   2.180   9.703
21776TIP3   OH265204   6.814   2.419   9.517
21776TIP3    H165205   6.859   2.491   9.468
21776TIP3    H265206   6.733   2.468   9.543
21777TIP3   OH265207   5.989   2.107   9.593
21777TIP3    H165208   5.939   2.061   9.662
21777TIP3    H265209   6.074   2.059   9.597
21778TIP3   OH265210   6.432   2.162   9.505
21778TIP3    H165211   6.484   2.174   9.586
21778TIP3    H265212   6.497   2.174   9.433
21779TIP3   OH265213   6.790   1.683   9.554
21779TIP3    H165214   6.770   1.627   9.476
21779TIP3    H265215   6.756   1.770   9.523
21780TIP3   OH265216   6.817   2.509   9.797
21780TIP3    H165217   6.815   2.415   9.777
21780TIP3    H265218   6.745   2.543   9.739
21781TIP3   OH265219   7.610   2.181   9.196
21781TIP3    H165220   7.643   2.097   9.160
21781TIP3    H265221   7.648   2.180   9.286
21782TIP3   OH265222   7.555   2.462   9.494
21782TIP3    H165223   7.551   2.507   9.408
21782TIP3    H265224   7.539   2.536   9.552
21783TIP3   OH265225   7.335   2.105   9.458
21783TIP3    H165226   7.324   2.200   9.472
21783TIP3    H265227   7.340   2.098   9.362
21784TIP3   OH265228   7.781   2.388   9.079
21784TIP3    H165229   7.730   2.354   9.156
21784TIP3    H265230   7.866   2.343   9.094
21785TIP3   OH265231   7.568   2.654   9.294
21785TIP3    H165232   7.661   2.658   9.269
21785TIP3    H265233   7.528   2.704   9.220
21786TIP3   OH265234   7.037   2.054   9.484
21786TIP3    H165235   7.130   2.061   9.511
21786TIP3    H265236   7.033   1.960   9.455
21787TIP3   OH265237   7.005   2.654   9.923
21787TIP3    H165238   6.930   2.612   9.874
21787TIP3    H265239   7.015   2.593   9.998
21788TIP3   OH265240   7.064   2.419   9.657
21788TIP3    H165241   6.982   2.392   9.614
21788TIP3    H265242   7.048   2.513   9.668
21789TIP3   OH265243   7.836   2.617   9.210
21789TIP3    H165244   7.863   2.668   9.133
21789TIP3    H265245   7.808   2.532   9.168
21790TIP3   OH265246   7.133   2.461   9.301
21790TIP3    H165247   7.126   2.489   9.393
21790TIP3    H265248   7.223   2.423   9.295
21791TIP3   OH265249   4.620   3.693   9.637
21791TIP3    H165250   4.564   3.767   9.604
21791TIP3    H265251   4.706   3.711   9.597
21792TIP3   OH265252   4.662   4.029   9.676
21792TIP3    H165253   4.693   4.103   9.619
21792TIP3    H265254   4.575   4.010   9.633
21793TIP3   OH265255   7.837   5.417   0.550
21793TIP3    H165256   7.840   5.504   0.504
21793TIP3    H265257   7.825   5.361   0.469
21794TIP3   OH265258   6.308   3.843  10.016
21794TIP3    H165259   6.318   3.791  10.098
21794TIP3    H265260   6.339   3.930  10.046
21795TIP3   OH265261   5.965   4.308  10.033
21795TIP3    H165262   6.021   4.245   9.983
21795TIP3    H265263   6.011   4.315  10.117
21796TIP3   OH265264   5.933   3.764   9.834
21796TIP3    H165265   5.974   3.739   9.749
21796TIP3    H265266   5.968   3.855   9.845
21797TIP3   OH265267   6.098   4.142   9.859
21797TIP3    H165268   6.148   4.064   9.829
21797TIP3    H265269   6.155   4.213   9.820
21798TIP3   OH265270   6.212   3.913   9.763
21798TIP3    H165271   6.240   3.850   9.693
21798TIP3    H265272   6.269   3.888   9.838
21799TIP3   OH265273   5.909   3.408   9.748
21799TIP3    H165274   5.818   3.416   9.715
21799TIP3    H265275   5.961   3.397   9.665
21800TIP3   OH265276   5.878   3.189   9.510
21800TIP3    H165277   5.957   3.238   9.541
21800TIP3    H265278   5.923   3.123   9.454
21801TIP3   OH265279   6.261   3.487   9.755
21801TIP3    H165280   6.230   3.505   9.847
21801TIP3    H265281   6.352   3.458   9.779
21802TIP3   OH265282   6.106   3.351   9.572
21802TIP3    H165283   6.167   3.405   9.625
21802TIP3    H265284   6.134   3.374   9.480
21803TIP3   OH265285   5.820   4.028   9.813
21803TIP3    H165286   5.897   4.059   9.863
21803TIP3    H265287   5.769   4.111   9.820
21804TIP3   OH265288   6.619   2.590   9.624
21804TIP3    H165289   6.531   2.607   9.665
21804TIP3    H265290   6.630   2.672   9.571
21805TIP3   OH265291   6.418   3.961   9.179
21805TIP3    H165292   6.426   4.057   9.161
21805TIP3    H265293   6.510   3.931   9.164
21806TIP3   OH265294   5.728   4.267   9.660
21806TIP3    H165295   5.683   4.257   9.574
21806TIP3    H265296   5.691   4.350   9.694
21807TIP3   OH265297   5.931   4.176   9.296
21807TIP3    H165298   5.991   4.108   9.259
21807TIP3    H265299   5.966   4.187   9.387
21808TIP3   OH265300   5.978   4.220   9.567
21808TIP3    H165301   5.891   4.236   9.609
21808TIP3    H265302   6.034   4.200   9.643
21809TIP3   OH265303   6.184   3.408   9.323
21809TIP3    H165304   6.147   3.375   9.239
21809TIP3    H265305   6.267   3.448   9.291
21810TIP3   OH265306   5.883   2.802   9.610
21810TIP3    H165307   5.897   2.797   9.705
21810TIP3    H265308   5.885   2.707   9.589
21811TIP3   OH265309   6.073   3.218   9.877
21811TIP3    H165310   6.025   3.278   9.816
21811TIP3    H265311   6.127   3.167   9.812
21812TIP3   OH265312   5.537   2.744   9.600
21812TIP3    H165313   5.542   2.789   9.685
21812TIP3    H265314   5.465   2.793   9.556
21813TIP3   OH265315   5.431   3.013   9.700
21813TIP3    H165316   5.361   2.981   9.640
21813TIP3    H265317   5.478   3.075   9.641
21814TIP3   OH265318   5.665   3.582   9.734
21814TIP3    H165319   5.598   3.519   9.698
21814TIP3    H265320   5.668   3.544   9.824
21815TIP3   OH265321   6.144   2.878   9.579
21815TIP3    H165322   6.045   2.877   9.579
21815TIP3    H265323   6.165   2.970   9.607
21816TIP3   OH265324   6.231   3.119   9.677
21816TIP3    H165325   6.325   3.125   9.703
21816TIP3    H265326   6.220   3.196   9.618
21817TIP3   OH265327   5.847   3.714   9.573
21817TIP3    H165328   5.807   3.789   9.525
21817TIP3    H265329   5.775   3.653   9.605
21818TIP3   OH265330   6.658   3.208   9.531
21818TIP3    H165331   6.595   3.165   9.468
21818TIP3    H265332   6.657   3.297   9.490
21819TIP3   OH265333   6.352   4.029   9.439
21819TIP3    H165334   6.340   3.949   9.492
21819TIP3    H265335   6.371   3.994   9.350
21820TIP3   OH265336   5.400   4.120   9.879
21820TIP3    H165337   5.319   4.129   9.909
21820TIP3    H265338   5.382   4.155   9.783
21821TIP3   OH265339   6.112   3.758   9.345
21821TIP3    H165340   6.162   3.733   9.425
21821TIP3    H265341   6.025   3.720   9.363
21822TIP3   OH265342   6.450   4.235   9.163
21822TIP3    H165343   6.490   4.305   9.109
21822TIP3    H265344   6.371   4.283   9.195
21823TIP3   OH265345   6.271   3.705   9.577
21823TIP3    H165346   6.264   3.625   9.633
21823TIP3    H265347   6.366   3.697   9.549
21824TIP3   OH265348   5.498   3.726   9.364
21824TIP3    H165349   5.505   3.655   9.298
21824TIP3    H265350   5.430   3.689   9.423
21825TIP3   OH265351   6.109   2.853   9.849
21825TIP3    H165352   6.126   2.837   9.754
21825TIP3    H265353   6.197   2.881   9.880
21826TIP3   OH265354   5.201   3.651   9.635
21826TIP3    H165355   5.165   3.736   9.606
21826TIP3    H265356   5.207   3.600   9.553
21827TIP3   OH265357   6.408   4.370  10.083
21827TIP3    H165358   6.358   4.428  10.021
21827TIP3    H265359   6.497   4.409  10.073
21828TIP3   OH265360   5.647   3.940   9.267
21828TIP3    H165361   5.590   3.866   9.296
21828TIP3    H265362   5.715   3.895   9.214
21829TIP3   OH265363   6.078   3.985   9.165
21829TIP3    H165364   6.132   3.926   9.220
21829TIP3    H265365   6.130   3.990   9.082
21830TIP3   OH265366   5.292   3.465   9.456
21830TIP3    H165367   5.328   3.424   9.537
21830TIP3    H265368   5.367   3.453   9.394
21831TIP3   OH265369   5.797   3.657   9.283
21831TIP3    H165370   5.796   3.659   9.379
21831TIP3    H265371   5.796   3.559   9.269
21832TIP3   OH265372   5.488   3.370   9.671
21832TIP3    H165373   5.468   3.329   9.757
21832TIP3    H265374   5.521   3.292   9.622
21833TIP3   OH265375   5.598   3.155   9.538
21833TIP3    H165376   5.568   3.152   9.445
21833TIP3    H265377   5.695   3.161   9.527
21834TIP3   OH265378   6.418   3.489   9.201
21834TIP3    H165379   6.398   3.441   9.118
21834TIP3    H265380   6.388   3.579   9.174
21835TIP3   OH265381   5.400   4.205   9.432
21835TIP3    H165382   5.497   4.215   9.422
21835TIP3    H265383   5.369   4.265   9.362
21836TIP3   OH265384   4.893   3.621   9.589
21836TIP3    H165385   4.954   3.619   9.665
21836TIP3    H265386   4.877   3.526   9.576
21837TIP3   OH265387   6.661   4.474  10.066
21837TIP3    H165388   6.705   4.539  10.122
21837TIP3    H265389   6.702   4.496   9.981
21838TIP3   OH265390   6.546   3.680   9.535
21838TIP3    H165391   6.616   3.741   9.503
21838TIP3    H265392   6.593   3.638   9.611
21839TIP3   OH265393   6.675   3.546   9.734
21839TIP3    H165394   6.615   3.503   9.798
21839TIP3    H265395   6.746   3.581   9.792
21840TIP3   OH265396   6.715   3.926  10.091
21840TIP3    H165397   6.796   3.871  10.086
21840TIP3    H265398   6.746   4.011  10.054
21841TIP3   OH265399   6.616   3.451   9.387
21841TIP3    H165400   6.546   3.453   9.318
21841TIP3    H265401   6.590   3.529   9.439
21842TIP3   OH265402   6.485   3.126   9.340
21842TIP3    H165403   6.449   3.164   9.259
21842TIP3    H265404   6.460   3.031   9.330
21843TIP3   OH265405   6.491   3.398   9.881
21843TIP3    H165406   6.499   3.303   9.858
21843TIP3    H265407   6.475   3.396   9.976
21844TIP3   OH265408   6.431   2.860   9.330
21844TIP3    H165409   6.504   2.824   9.383
21844TIP3    H265410   6.356   2.801   9.349
21845TIP3   OH265411   6.508   3.140   9.759
21845TIP3    H165412   6.536   3.049   9.779
21845TIP3    H265413   6.566   3.161   9.683
21846TIP3   OH265414   6.597   2.866   9.816
21846TIP3    H165415   6.648   2.857   9.899
21846TIP3    H265416   6.553   2.779   9.808
21847TIP3   OH265417   6.682   2.799   9.452
21847TIP3    H165418   6.721   2.729   9.396
21847TIP3    H265419   6.746   2.872   9.440
21848TIP3   OH265420   6.239   4.320   9.717
21848TIP3    H165421   6.295   4.318   9.636
21848TIP3    H265422   6.279   4.394   9.766
21849TIP3   OH265423   6.405   2.649   9.787
21849TIP3    H165424   6.317   2.690   9.782
21849TIP3    H265425   6.403   2.611   9.877
21850TIP3   OH265426   4.913   3.980   9.758
21850TIP3    H165427   4.826   3.937   9.751
21850TIP3    H265428   4.884   4.070   9.735
21851TIP3   OH265429   5.674   4.185   9.396
21851TIP3    H165430   5.760   4.205   9.354
21851TIP3    H265431   5.650   4.105   9.345
21852TIP3   OH265432   6.386   4.297   9.484
21852TIP3    H165433   6.376   4.201   9.468
21852TIP3    H265434   6.344   4.334   9.403
21853TIP3   OH265435   4.975   4.023   9.448
21853TIP3    H165436   4.964   4.056   9.539
21853TIP3    H265437   5.064   3.983   9.450
21854TIP3   OH265438   7.875   3.818   9.451
21854TIP3    H165439   7.851   3.909   9.423
21854TIP3    H265440   7.803   3.769   9.406
21855TIP3   OH265441   7.794   3.806   9.805
21855TIP3    H165442   7.868   3.804   9.867
21855TIP3    H265443   7.836   3.790   9.719
21856TIP3   OH265444   7.186   3.731  10.189
21856TIP3    H165445   7.197   3.674  10.267
21856TIP3    H265446   7.277   3.735  10.153
21857TIP3   OH265447   8.123   4.112   9.494
21857TIP3    H165448   8.120   4.053   9.569
21857TIP3    H265449   8.145   4.197   9.538
21858TIP3   OH265450   7.149   4.119   9.922
21858TIP3    H165451   7.143   4.021   9.918
21858TIP3    H265452   7.244   4.131   9.899
21859TIP3   OH265453   6.859   3.327   9.693
21859TIP3    H165454   6.811   3.411   9.705
21859TIP3    H265455   6.787   3.269   9.663
21860TIP3   OH265456   6.915   3.604   9.856
21860TIP3    H165457   6.963   3.532   9.903
21860TIP3    H265458   6.981   3.632   9.791
21861TIP3   OH265459   7.728   4.521   9.536
21861TIP3    H165460   7.792   4.505   9.464
21861TIP3    H265461   7.781   4.571   9.598
21862TIP3   OH265462   7.660   4.040   9.877
21862TIP3    H165463   7.690   3.956   9.836
21862TIP3    H265464   7.736   4.097   9.862
21863TIP3   OH265465   7.405   3.209   9.875
21863TIP3    H165466   7.379   3.280   9.813
21863TIP3    H265467   7.371   3.130   9.828
21864TIP3   OH265468   7.060   3.409   9.974
21864TIP3    H165469   7.135   3.382  10.031
21864TIP3    H265470   7.073   3.349   9.898
21865TIP3   OH265471   7.494   3.599   9.759
21865TIP3    H165472   7.585   3.571   9.768
21865TIP3    H265473   7.450   3.517   9.726
21866TIP3   OH265474   7.776   4.035   9.311
21866TIP3    H165475   7.733   4.017   9.226
21866TIP3    H265476   7.737   4.122   9.332
21867TIP3   OH265477   7.516   3.961  10.103
21867TIP3    H165478   7.458   4.033  10.127
21867TIP3    H265479   7.572   4.002  10.034
21868TIP3   OH265480   7.288   3.321  10.096
21868TIP3    H165481   7.357   3.387  10.107
21868TIP3    H265482   7.332   3.260  10.033
21869TIP3   OH265483   6.753   3.842   9.430
21869TIP3    H165484   6.716   3.869   9.343
21869TIP3    H265485   6.784   3.928   9.466
21870TIP3   OH265486   8.174   4.343   9.648
21870TIP3    H165487   8.093   4.344   9.703
21870TIP3    H265488   8.177   4.435   9.616
21871TIP3   OH265489   7.903   4.407   9.350
21871TIP3    H165490   7.950   4.327   9.319
21871TIP3    H265491   7.961   4.476   9.309
21872TIP3   OH265492   8.042   4.189   9.243
21872TIP3    H165493   7.998   4.111   9.206
21872TIP3    H265494   8.074   4.155   9.329
21873TIP3   OH265495   7.712   3.678   9.266
21873TIP3    H165496   7.630   3.728   9.245
21873TIP3    H265497   7.755   3.674   9.178
21874TIP3   OH265498   7.672   3.447   8.991
21874TIP3    H165499   7.742   3.499   9.034
21874TIP3    H265500   7.728   3.385   8.940
21875TIP3   OH265501   8.046   3.743   9.246
21875TIP3    H165502   7.993   3.775   9.322
21875TIP3    H265503   8.132   3.728   9.287
21876TIP3   OH265504   7.288   3.748   9.654
21876TIP3    H165505   7.248   3.689   9.586
21876TIP3    H265506   7.366   3.696   9.682
21877TIP3   OH265507   7.405   4.146   9.810
21877TIP3    H165508   7.395   4.113   9.719
21877TIP3    H265509   7.497   4.121   9.830
21878TIP3   OH265510   7.424   3.717  10.017
21878TIP3    H165511   7.458   3.701   9.927
21878TIP3    H265512   7.471   3.799  10.043
21879TIP3   OH265513   7.961   4.348   9.826
21879TIP3    H165514   7.934   4.443   9.821
21879TIP3    H265515   7.902   4.314   9.894
21880TIP3   OH265516   7.901   3.596   9.066
21880TIP3    H165517   7.957   3.658   9.119
21880TIP3    H265518   7.927   3.624   8.974
21881TIP3   OH265519   7.642   4.287   9.341
21881TIP3    H165520   7.710   4.344   9.382
21881TIP3    H265521   7.581   4.354   9.306
21882TIP3   OH265522   7.158   3.587   9.461
21882TIP3    H165523   7.095   3.635   9.404
21882TIP3    H265524   7.110   3.505   9.476
21883TIP3   OH265525   8.213   4.216   8.661
21883TIP3    H165526   8.221   4.313   8.649
21883TIP3    H265527   8.306   4.187   8.650
21884TIP3   OH265528   6.799   4.177   9.999
21884TIP3    H165529   6.894   4.171   9.983
21884TIP3    H265530   6.792   4.258  10.052
21885TIP3   OH265531   7.516   4.528   9.145
21885TIP3    H165532   7.478   4.518   9.055
21885TIP3    H265533   7.496   4.621   9.167
21886TIP3   OH265534   6.959   4.384   9.526
21886TIP3    H165535   7.012   4.374   9.609
21886TIP3    H265536   6.898   4.309   9.535
21887TIP3   OH265537   7.724   4.432   8.785
21887TIP3    H165538   7.785   4.363   8.751
21887TIP3    H265539   7.758   4.444   8.877
21888TIP3   OH265540   7.774   4.480   9.057
21888TIP3    H165541   7.689   4.493   9.104
21888TIP3    H265542   7.831   4.454   9.131
21889TIP3   OH265543   7.972   3.657   8.811
21889TIP3    H165544   7.943   3.628   8.723
21889TIP3    H265545   8.054   3.705   8.788
21890TIP3   OH265546   7.695   3.025   9.113
21890TIP3    H165547   7.657   3.029   9.202
21890TIP3    H265548   7.650   2.946   9.078
21891TIP3   OH265549   7.352   3.383   9.670
21891TIP3    H165550   7.259   3.357   9.685
21891TIP3    H265551   7.368   3.341   9.582
21892TIP3   OH265552   7.834   3.460   9.378
21892TIP3    H165553   7.781   3.539   9.354
21892TIP3    H265554   7.892   3.454   9.300
21893TIP3   OH265555   7.347   3.001   9.082
21893TIP3    H165556   7.333   2.999   9.178
21893TIP3    H265557   7.268   3.051   9.052
21894TIP3   OH265558   6.909   3.077   9.918
21894TIP3    H165559   6.993   3.090   9.961
21894TIP3    H265560   6.929   3.014   9.846
21895TIP3   OH265561   6.866   3.029   9.472
21895TIP3    H165562   6.908   3.068   9.392
21895TIP3    H265563   6.804   3.101   9.493
21896TIP3   OH265564   7.631   3.257   9.717
21896TIP3    H165565   7.546   3.221   9.747
21896TIP3    H265566   7.678   3.248   9.801
21897TIP3   OH265567   7.119   3.259   9.744
21897TIP3    H165568   7.023   3.270   9.721
21897TIP3    H265569   7.137   3.168   9.719
21898TIP3   OH265570   7.395   3.257   9.428
21898TIP3    H165571   7.486   3.275   9.399
21898TIP3    H265572   7.342   3.280   9.348
21899TIP3   OH265573   7.231   3.285   9.213
21899TIP3    H165574   7.158   3.243   9.164
21899TIP3    H265575   7.282   3.323   9.138
21900TIP3   OH265576   7.306   3.021   9.702
21900TIP3    H165577   7.267   2.942   9.746
21900TIP3    H265578   7.322   2.988   9.613
21901TIP3   OH265579   7.480   3.821   9.218
21901TIP3    H165580   7.407   3.756   9.207
21901TIP3    H265581   7.463   3.855   9.309
21902TIP3   OH265582   7.945   3.139   9.065
21902TIP3    H165583   7.854   3.116   9.094
21902TIP3    H265584   7.965   3.220   9.116
21903TIP3   OH265585   8.032   3.381   9.191
21903TIP3    H165586   8.129   3.383   9.179
21903TIP3    H265587   8.004   3.450   9.128
21904TIP3   OH265588   7.178   3.845   9.890
21904TIP3    H165589   7.218   3.815   9.805
21904TIP3    H265590   7.212   3.779   9.952
21905TIP3   OH265591   7.629   3.968   9.038
21905TIP3    H165592   7.583   4.055   9.043
21905TIP3    H265593   7.573   3.915   9.098
21906TIP3   OH265594   8.456   3.425   8.945
21906TIP3    H165595   8.366   3.405   8.914
21906TIP3    H265596   8.463   3.518   8.918
21907TIP3   OH265597   8.156   4.288   8.927
21907TIP3    H165598   8.125   4.221   8.989
21907TIP3    H265599   8.166   4.239   8.843
21908TIP3   OH265600   7.276   4.142   9.518
21908TIP3    H165601   7.284   4.225   9.467
21908TIP3    H265602   7.181   4.133   9.525
21909TIP3   OH265603   6.840   3.449   9.222
21909TIP3    H165604   6.886   3.533   9.240
21909TIP3    H265605   6.762   3.456   9.281
21910TIP3   OH265606   7.419   3.911   9.466
21910TIP3    H165607   7.384   4.001   9.480
21910TIP3    H265608   7.377   3.863   9.540
21911TIP3   OH265609   7.548   4.482   9.967
21911TIP3    H165610   7.590   4.560   9.927
21911TIP3    H265611   7.611   4.456  10.035
21912TIP3   OH265612   7.197   4.383   9.373
21912TIP3    H165613   7.110   4.393   9.417
21912TIP3    H265614   7.230   4.475   9.375
21913TIP3   OH265615   7.905   4.012   8.829
21913TIP3    H165616   7.957   3.988   8.908
21913TIP3    H265617   7.816   3.991   8.859
21914TIP3   OH265618   8.248   4.491   8.649
21914TIP3    H165619   8.288   4.564   8.599
21914TIP3    H265620   8.168   4.537   8.682
21915TIP3   OH265621   8.061   3.947   9.047
21915TIP3    H165622   8.058   3.880   9.118
21915TIP3    H265623   8.156   3.948   9.025
21916TIP3   OH265624   6.982   4.372  10.133
21916TIP3    H165625   7.030   4.289  10.138
21916TIP3    H265626   7.019   4.415  10.211
21917TIP3   OH265627   7.274   3.996   8.828
21917TIP3    H165628   7.290   3.905   8.798
21917TIP3    H265629   7.257   3.983   8.924
21918TIP3   OH265630   7.220   4.000   9.102
21918TIP3    H165631   7.294   3.977   9.161
21918TIP3    H265632   7.223   4.098   9.106
21919TIP3   OH265633   6.956   3.696   9.304
21919TIP3    H165634   6.891   3.741   9.361
21919TIP3    H265635   6.972   3.765   9.237
21920TIP3   OH265636   7.483   4.196   9.048
21920TIP3    H165637   7.399   4.229   9.085
21920TIP3    H265638   7.508   4.272   8.994
21921TIP3   OH265639   7.684   3.246   9.452
21921TIP3    H165640   7.738   3.325   9.430
21921TIP3    H265641   7.664   3.261   9.547
21922TIP3   OH265642   7.223   4.273   9.116
21922TIP3    H165643   7.197   4.343   9.052
21922TIP3    H265644   7.212   4.319   9.202
21923TIP3   OH265645   7.327   2.986   9.362
21923TIP3    H165646   7.324   3.080   9.388
21923TIP3    H265647   7.424   2.971   9.365
21924TIP3   OH265648   6.945   3.907   9.112
21924TIP3    H165649   7.007   3.982   9.120
21924TIP3    H265650   6.992   3.855   9.043
21925TIP3   OH265651   6.891   3.179   9.245
21925TIP3    H165652   6.890   3.277   9.239
21925TIP3    H265653   6.811   3.155   9.197
21926TIP3   OH265654   8.209   4.618   9.588
21926TIP3    H165655   8.164   4.671   9.518
21926TIP3    H265656   8.302   4.631   9.565
21927TIP3   OH265657   6.818   4.115   9.502
21927TIP3    H165658   6.742   4.152   9.548
21927TIP3    H265659   6.807   4.155   9.414
21928TIP3   OH265660   7.437   4.202   8.741
21928TIP3    H165661   7.382   4.131   8.781
21928TIP3    H265662   7.513   4.150   8.709
21929TIP3   OH265663   7.874   4.242   8.651
21929TIP3    H165664   7.923   4.181   8.709
21929TIP3    H265665   7.931   4.245   8.572
21930TIP3   OH265666   7.080   3.718   8.961
21930TIP3    H165667   7.137   3.686   9.033
21930TIP3    H265668   7.147   3.723   8.889
21931TIP3   OH265669   7.587   3.915   8.769
21931TIP3    H165670   7.591   3.929   8.865
21931TIP3    H265671   7.587   3.817   8.765
21932TIP3   OH265672   7.291   3.619   9.186
21932TIP3    H165673   7.263   3.576   9.269
21932TIP3    H265674   7.326   3.543   9.134
21933TIP3   OH265675   7.389   3.410   9.027
21933TIP3    H165676   7.362   3.414   8.933
21933TIP3    H265677   7.487   3.420   9.018
21934TIP3   OH265678   8.212   3.745   8.685
21934TIP3    H165679   8.190   3.699   8.602
21934TIP3    H265680   8.182   3.836   8.661
21935TIP3   OH265681   7.195   4.473   8.927
21935TIP3    H165682   7.292   4.473   8.911
21935TIP3    H265683   7.167   4.524   8.848
21936TIP3   OH265684   6.678   3.856   9.150
21936TIP3    H165685   6.772   3.880   9.134
21936TIP3    H265686   6.673   3.768   9.105
21937TIP3   OH265687   6.591   4.470   9.557
21937TIP3    H165688   6.522   4.408   9.523
21937TIP3    H265689   6.634   4.414   9.625
21938TIP3   OH265690   6.725   4.325   9.745
21938TIP3    H165691   6.720   4.250   9.806
21938TIP3    H265692   6.783   4.385   9.795
21939TIP3   OH265693   8.477   4.724   9.548
21939TIP3    H165694   8.453   4.764   9.634
21939TIP3    H265695   8.459   4.794   9.484
21940TIP3   OH265696   8.339   3.934   9.007
21940TIP3    H165697   8.415   3.994   8.990
21940TIP3    H265698   8.347   3.916   9.102
21941TIP3   OH265699   8.342   3.811   9.262
21941TIP3    H165700   8.372   3.726   9.224
21941TIP3    H265701   8.430   3.854   9.273
21942TIP3   OH265702   8.411   3.703   8.867
21942TIP3    H165703   8.340   3.707   8.800
21942TIP3    H265704   8.387   3.783   8.919
21943TIP3   OH265705   8.220   3.390   8.824
21943TIP3    H165706   8.226   3.424   8.734
21943TIP3    H265707   8.217   3.294   8.812
21944TIP3   OH265708   6.933   3.770  10.081
21944TIP3    H165709   6.929   3.717   9.999
21944TIP3    H265710   7.024   3.750  10.112
21945TIP3   OH265711   8.232   3.108   8.847
21945TIP3    H165712   8.301   3.051   8.809
21945TIP3    H265713   8.150   3.059   8.830
21946TIP3   OH265714   6.877   2.891   9.702
21946TIP3    H165715   6.781   2.885   9.717
21946TIP3    H265716   6.881   2.945   9.620
21947TIP3   OH265717   8.058   4.568   9.205
21947TIP3    H165718   8.107   4.568   9.121
21947TIP3    H265719   8.056   4.662   9.228
21948TIP3   OH265720   7.208   4.634  10.001
21948TIP3    H165721   7.159   4.689  10.062
21948TIP3    H265722   7.217   4.690   9.922
21949TIP3   OH265723   7.657   4.704   9.820
21949TIP3    H165724   7.592   4.703   9.747
21949TIP3    H265725   7.654   4.796   9.848
21950TIP3   OH265726   7.921   4.615   9.847
21950TIP3    H165727   7.832   4.655   9.837
21950TIP3    H265728   7.979   4.692   9.829
21951TIP3   OH265729   8.100   4.818   9.780
21951TIP3    H165730   8.113   4.911   9.750
21951TIP3    H265731   8.147   4.767   9.712
21952TIP3   OH265732   6.902   4.477   9.895
21952TIP3    H165733   6.931   4.457   9.987
21952TIP3    H265734   6.980   4.439   9.847
21953TIP3   OH265735   7.099   4.346   9.757
21953TIP3    H165736   7.119   4.265   9.809
21953TIP3    H265737   7.187   4.390   9.757
21954TIP3   OH265738   7.357   4.446   9.763
21954TIP3    H165739   7.402   4.361   9.748
21954TIP3    H265740   7.396   4.469   9.850
21955TIP3   OH265741   7.207   2.808   9.830
21955TIP3    H165742   7.119   2.765   9.847
21955TIP3    H265743   7.252   2.790   9.914
21956TIP3   OH265744   6.972   2.675   9.508
21956TIP3    H165745   7.005   2.735   9.438
21956TIP3    H265746   6.948   2.737   9.578
21957TIP3   OH265747   6.692   4.246   9.301
21957TIP3    H165748   6.608   4.215   9.262
21957TIP3    H265749   6.684   4.341   9.283
21958TIP3   OH265750   7.091   2.836   9.283
21958TIP3    H165751   7.140   2.775   9.223
21958TIP3    H265752   7.164   2.891   9.318
21959TIP3   OH265753   7.602   3.001   9.379
21959TIP3    H165754   7.674   2.951   9.418
21959TIP3    H265755   7.628   3.093   9.404
21960TIP3   OH265756   7.465   4.440   8.877
21960TIP3    H165757   7.554   4.461   8.843
21960TIP3    H265758   7.444   4.363   8.819
21961TIP3   OH265759   8.190   4.556   8.964
21961TIP3    H165760   8.178   4.458   8.953
21961TIP3    H265761   8.140   4.589   8.886
21962TIP3   OH265762   6.769   4.272   8.937
21962TIP3    H165763   6.772   4.305   9.028
21962TIP3    H265764   6.859   4.233   8.926
21963TIP3   OH265765   8.552   4.099   8.921
21963TIP3    H165766   8.514   4.119   8.833
21963TIP3    H265767   8.579   4.187   8.952
21964TIP3   OH265768   8.743   4.645   9.029
21964TIP3    H165769   8.833   4.609   9.042
21964TIP3    H265770   8.690   4.564   9.031
21965TIP3   OH265771   9.522   4.688   8.258
21965TIP3    H165772   9.582   4.614   8.232
21965TIP3    H265773   9.546   4.702   8.352
21966TIP3   OH265774   9.533   4.745   8.534
21966TIP3    H165775   9.445   4.764   8.570
21966TIP3    H265776   9.550   4.656   8.570
21967TIP3   OH265777   9.358   4.224   8.523
21967TIP3    H165778   9.313   4.310   8.536
21967TIP3    H265779   9.368   4.193   8.614
21968TIP3   OH265780   9.004   4.475   9.034
21968TIP3    H165781   9.064   4.514   8.967
21968TIP3    H265782   8.977   4.392   8.992
21969TIP3   OH265783   8.635   3.709   8.705
21969TIP3    H165784   8.681   3.792   8.729
21969TIP3    H265785   8.561   3.709   8.769
21970TIP3   OH265786   9.960   4.723   8.075
21970TIP3    H165787  10.034   4.780   8.051
21970TIP3    H265788   9.919   4.777   8.146
21971TIP3   OH265789   9.072   4.252   8.315
21971TIP3    H165790   9.082   4.160   8.284
21971TIP3    H265791   9.058   4.239   8.411
21972TIP3   OH265792   9.028   4.262   8.593
21972TIP3    H165793   9.062   4.254   8.682
21972TIP3    H265794   9.018   4.360   8.587
21973TIP3   OH265795   8.753   3.949   8.774
21973TIP3    H165796   8.705   3.984   8.851
21973TIP3    H265797   8.760   4.029   8.719
21974TIP3   OH265798   9.275   4.479   8.552
21974TIP3    H165799   9.196   4.511   8.599
21974TIP3    H265800   9.284   4.547   8.484
21975TIP3   OH265801   9.003   4.533   8.606
21975TIP3    H165802   8.981   4.601   8.538
21975TIP3    H265803   9.033   4.591   8.680
21976TIP3   OH265804   8.742   4.168   8.599
21976TIP3    H165805   8.796   4.249   8.599
21976TIP3    H265806   8.788   4.116   8.530
21977TIP3   OH265807   8.667   3.425   8.675
21977TIP3    H165808   8.693   3.514   8.703
21977TIP3    H265809   8.614   3.400   8.753
21978TIP3   OH265810   8.617   4.377   9.001
21978TIP3    H165811   8.533   4.412   9.033
21978TIP3    H265812   8.613   4.410   8.909
21979TIP3   OH265813   9.236   4.454   8.228
21979TIP3    H165814   9.177   4.384   8.266
21979TIP3    H265815   9.307   4.399   8.192
21980TIP3   OH265816   9.678   4.488   8.146
21980TIP3    H165817   9.752   4.434   8.177
21980TIP3    H265818   9.708   4.507   8.054
21981TIP3   OH265819   8.871   3.984   8.439
21981TIP3    H165820   8.911   3.925   8.504
21981TIP3    H265821   8.941   3.986   8.370
21982TIP3   OH265822   9.380   4.169   8.249
21982TIP3    H165823   9.367   4.181   8.346
21982TIP3    H265824   9.378   4.072   8.242
21983TIP3   OH265825   8.992   4.725   8.408
21983TIP3    H165826   9.089   4.730   8.405
21983TIP3    H265827   8.970   4.778   8.329
21984TIP3   OH265828   8.475   4.113   8.637
21984TIP3    H165829   8.569   4.136   8.622
21984TIP3    H265830   8.469   4.025   8.593
21985TIP3   OH265831   8.389   4.729   9.043
21985TIP3    H165832   8.320   4.667   9.009
21985TIP3    H265833   8.433   4.672   9.108
21986TIP3   OH265834   8.520   4.580   9.232
21986TIP3    H165835   8.491   4.516   9.297
21986TIP3    H265836   8.580   4.637   9.284
21987TIP3   OH265837   8.728   4.727   9.363
21987TIP3    H165838   8.752   4.711   9.456
21987TIP3    H265839   8.813   4.710   9.318
21988TIP3   OH265840   8.490   4.497   8.789
21988TIP3    H165841   8.404   4.468   8.752
21988TIP3    H265842   8.482   4.593   8.777
21989TIP3   OH265843   9.263   4.690   8.361
21989TIP3    H165844   9.347   4.719   8.321
21989TIP3    H265845   9.242   4.614   8.302
21990TIP3   OH265846   8.566   4.532   8.423
21990TIP3    H165847   8.567   4.561   8.516
21990TIP3    H265848   8.655   4.491   8.413
21991TIP3   OH265849   4.155   5.462   9.879
21991TIP3    H165850   4.073   5.426   9.844
21991TIP3    H265851   4.128   5.487   9.968
21992TIP3   OH265852   3.730   4.755   9.632
21992TIP3    H165853   3.797   4.813   9.675
21992TIP3    H265854   3.790   4.691   9.588
21993TIP3   OH265855   3.931   4.905   9.731
21993TIP3    H165856   4.002   4.911   9.797
21993TIP3    H265857   3.975   4.935   9.649
21994TIP3   OH265858   4.258   5.517   9.325
21994TIP3    H165859   4.266   5.614   9.313
21994TIP3    H265860   4.351   5.489   9.313
21995TIP3   OH265861   3.601   5.858   9.794
21995TIP3    H165862   3.536   5.824   9.730
21995TIP3    H265863   3.561   5.944   9.819
21996TIP3   OH265864   3.773   5.734   9.447
21996TIP3    H165865   3.831   5.665   9.409
21996TIP3    H265866   3.810   5.743   9.537
21997TIP3   OH265867   3.839   5.778   9.710
21997TIP3    H165868   3.750   5.799   9.748
21997TIP3    H265869   3.881   5.730   9.783
21998TIP3   OH265870   4.021   4.954   9.475
21998TIP3    H165871   3.990   4.928   9.386
21998TIP3    H265872   4.099   5.008   9.453
21999TIP3   OH265873   3.672   5.265   9.690
21999TIP3    H165874   3.630   5.353   9.702
21999TIP3    H265875   3.619   5.209   9.748
22000TIP3   OH265876   4.517   4.774   9.666
22000TIP3    H165877   4.451   4.725   9.613
22000TIP3    H265878   4.496   4.864   9.632
22001TIP3   OH265879   4.195   5.589   9.592
22001TIP3    H165880   4.186   5.519   9.658
22001TIP3    H265881   4.208   5.539   9.509
22002TIP3   OH265882   3.946   5.315   9.487
22002TIP3    H165883   4.004   5.287   9.562
22002TIP3    H265884   3.860   5.288   9.522
22003TIP3   OH265885   4.292   5.793   9.313
22003TIP3    H165886   4.330   5.865   9.260
22003TIP3    H265887   4.212   5.838   9.346
22004TIP3   OH265888   4.107   5.239   9.693
22004TIP3    H165889   4.087   5.208   9.783
22004TIP3    H265890   4.205   5.243   9.694
22005TIP3   OH265891   3.325   5.299   9.493
22005TIP3    H165892   3.345   5.218   9.443
22005TIP3    H265893   3.299   5.261   9.578
22006TIP3   OH265894   3.524   5.498   9.697
22006TIP3    H165895   3.428   5.519   9.690
22006TIP3    H265896   3.559   5.558   9.630
22007TIP3   OH265897   3.259   5.561   9.736
22007TIP3    H165898   3.230   5.624   9.666
22007TIP3    H265899   3.261   5.624   9.810
22008TIP3   OH265900   3.485   5.504   9.402
22008TIP3    H165901   3.430   5.432   9.442
22008TIP3    H265902   3.558   5.451   9.364
22009TIP3   OH265903   3.920   5.544   9.315
22009TIP3    H165904   3.963   5.479   9.373
22009TIP3    H265905   3.978   5.544   9.236
22010TIP3   OH265906   3.154   5.066   9.606
22010TIP3    H165907   3.171   4.981   9.652
22010TIP3    H265908   3.211   5.053   9.527
22011TIP3   OH265909   3.629   5.214   9.426
22011TIP3    H165910   3.637   5.228   9.522
22011TIP3    H265911   3.630   5.115   9.423
22012TIP3   OH265912   3.435   4.773   9.676
22012TIP3    H165913   3.377   4.761   9.598
22012TIP3    H265914   3.523   4.767   9.635
22013TIP3   OH265915   4.261   5.048   9.347
22013TIP3    H165916   4.235   5.000   9.267
22013TIP3    H265917   4.228   5.138   9.324
22014TIP3   OH265918   3.237   5.765   9.567
22014TIP3    H165919   3.333   5.782   9.561
22014TIP3    H265920   3.205   5.829   9.501
22015TIP3   OH265921   4.389   5.240   9.680
22015TIP3    H165922   4.460   5.302   9.652
22015TIP3    H265923   4.434   5.194   9.755
22016TIP3   OH265924   4.524   5.103   9.869
22016TIP3    H165925   4.464   5.069   9.938
22016TIP3    H265926   4.595   5.145   9.921
22017TIP3   OH265927   4.457   5.012   9.534
22017TIP3    H165928   4.385   5.013   9.467
22017TIP3    H265929   4.429   5.088   9.589
22018TIP3   OH265930   4.338   4.682   9.487
22018TIP3    H165931   4.285   4.722   9.418
22018TIP3    H265932   4.310   4.588   9.480
22019TIP3   OH265933   4.274   4.419   9.481
22019TIP3    H165934   4.352   4.387   9.530
22019TIP3    H265935   4.205   4.355   9.505
22020TIP3   OH265936   4.522   4.372   9.597
22020TIP3    H165937   4.562   4.296   9.551
22020TIP3    H265938   4.593   4.438   9.590
22021TIP3   OH265939   4.090   5.897   9.866
22021TIP3    H165940   4.136   5.881   9.780
22021TIP3    H265941   4.145   5.968   9.904
22022TIP3   OH265942   3.513   5.744   9.538
22022TIP3    H165943   3.602   5.764   9.503
22022TIP3    H265944   3.487   5.672   9.476
22023TIP3   OH265945   4.231   5.856   9.632
22023TIP3    H165946   4.221   5.758   9.619
22023TIP3    H265947   4.186   5.889   9.551
22024TIP3   OH265948   2.839   5.609   9.612
22024TIP3    H165949   2.866   5.674   9.681
22024TIP3    H265950   2.923   5.561   9.595
22025TIP3   OH265951   5.723   5.373   9.591
22025TIP3    H165952   5.695   5.464   9.569
22025TIP3    H265953   5.646   5.324   9.560
22026TIP3   OH265954   5.715   5.376   9.954
22026TIP3    H165955   5.733   5.345  10.045
22026TIP3    H265956   5.673   5.297   9.916
22027TIP3   OH265957   5.963   5.676   9.647
22027TIP3    H165958   5.950   5.608   9.714
22027TIP3    H265959   5.994   5.752   9.700
22028TIP3   OH265960   5.006   5.673  10.081
22028TIP3    H165961   4.993   5.579  10.056
22028TIP3    H265962   5.099   5.687  10.054
22029TIP3   OH265963   4.703   4.881   9.837
22029TIP3    H165964   4.656   4.965   9.854
22029TIP3    H265965   4.639   4.839   9.776
22030TIP3   OH265966   4.791   5.175   9.945
22030TIP3    H165967   4.810   5.098  10.001
22030TIP3    H265968   4.857   5.169   9.875
22031TIP3   OH265969   5.610   6.135   9.665
22031TIP3    H165970   5.660   6.066   9.617
22031TIP3    H265971   5.610   6.099   9.755
22032TIP3   OH265972   5.518   5.590  10.000
22032TIP3    H165973   5.562   5.515   9.956
22032TIP3    H265974   5.595   5.644  10.022
22033TIP3   OH265975   6.537   4.933  10.019
22033TIP3    H165976   6.553   5.021  10.053
22033TIP3    H265977   6.564   4.942   9.926
22034TIP3   OH265978   5.951   5.104  10.061
22034TIP3    H165979   5.978   5.009  10.065
22034TIP3    H265980   5.913   5.103   9.971
22035TIP3   OH265981   5.310   4.759   9.966
22035TIP3    H165982   5.251   4.831   9.935
22035TIP3    H265983   5.251   4.715  10.033
22036TIP3   OH265984   5.964   4.848   9.642
22036TIP3    H165985   6.037   4.832   9.707
22036TIP3    H265986   6.015   4.884   9.567
22037TIP3   OH265987   5.354   5.163   9.863
22037TIP3    H165988   5.439   5.128   9.896
22037TIP3    H265989   5.302   5.081   9.849
22038TIP3   OH265990   5.618   5.594   9.459
22038TIP3    H165991   5.571   5.569   9.378
22038TIP3    H265992   5.573   5.679   9.481
22039TIP3   OH265993   6.176   4.845   9.816
22039TIP3    H165994   6.182   4.806   9.906
22039TIP3    H265995   6.234   4.921   9.829
22040TIP3   OH265996   4.598   5.401   9.578
22040TIP3    H165997   4.555   5.427   9.495
22040TIP3    H265998   4.627   5.487   9.615
22041TIP3   OH265999   6.031   5.909   9.811
22041TIP3    H166000   5.941   5.909   9.850
22041TIP3    H266001   6.033   5.999   9.773
22042TIP3   OH266002   6.298   4.796  10.068
22042TIP3    H166003   6.269   4.819  10.157
22042TIP3    H266004   6.388   4.834  10.063
22043TIP3   OH266005   5.739   5.964   9.495
22043TIP3    H166006   5.789   5.883   9.473
22043TIP3    H266007   5.798   6.031   9.452
22044TIP3   OH266008   5.881   5.750   9.395
22044TIP3    H166009   5.839   5.670   9.359
22044TIP3    H266010   5.915   5.716   9.481
22045TIP3   OH266011   5.554   5.224   9.418
22045TIP3    H166012   5.472   5.274   9.398
22045TIP3    H266013   5.598   5.222   9.332
22046TIP3   OH266014   5.512   5.008   9.137
22046TIP3    H166015   5.580   5.057   9.186
22046TIP3    H266016   5.568   4.943   9.090
22047TIP3   OH266017   6.459   5.472  10.013
22047TIP3    H166018   6.377   5.527  10.008
22047TIP3    H266019   6.499   5.498   9.927
22048TIP3   OH266020   5.899   5.306   9.392
22048TIP3    H166021   5.844   5.332   9.470
22048TIP3    H266022   5.983   5.280   9.437
22049TIP3   OH266023   5.128   5.304   9.803
22049TIP3    H166024   5.085   5.247   9.735
22049TIP3    H266025   5.209   5.252   9.822
22050TIP3   OH266026   5.255   5.710   9.954
22050TIP3    H166027   5.246   5.667   9.868
22050TIP3    H266028   5.343   5.680   9.983
22051TIP3   OH266029   5.334   5.268  10.119
22051TIP3    H166030   5.357   5.271  10.024
22051TIP3    H266031   5.393   5.331  10.162
22052TIP3   OH266032   5.789   5.922   9.930
22052TIP3    H166033   5.777   6.004   9.981
22052TIP3    H266034   5.778   5.850   9.996
22053TIP3   OH266035   5.743   5.162   9.217
22053TIP3    H166036   5.801   5.223   9.270
22053TIP3    H266037   5.769   5.189   9.125
22054TIP3   OH266038   5.483   5.845   9.492
22054TIP3    H166039   5.559   5.901   9.514
22054TIP3    H266040   5.420   5.909   9.455
22055TIP3   OH266041   6.257   4.407   9.265
22055TIP3    H166042   6.176   4.427   9.316
22055TIP3    H266043   6.269   4.490   9.215
22056TIP3   OH266044   4.993   5.151   9.616
22056TIP3    H166045   4.927   5.192   9.555
22056TIP3    H266046   4.961   5.061   9.622
22057TIP3   OH266047   6.054   5.774   8.812
22057TIP3    H166048   6.062   5.871   8.799
22057TIP3    H266049   6.147   5.745   8.800
22058TIP3   OH266050   5.363   6.092   9.294
22058TIP3    H166051   5.317   6.072   9.210
22058TIP3    H266052   5.331   6.181   9.315
22059TIP3   OH266053   4.803   5.941   9.677
22059TIP3    H166054   4.851   5.931   9.762
22059TIP3    H266055   4.738   5.870   9.685
22060TIP3   OH266056   5.567   5.992   8.935
22060TIP3    H166057   5.626   5.922   8.899
22060TIP3    H266058   5.600   6.000   9.027
22061TIP3   OH266059   5.616   6.039   9.206
22061TIP3    H166060   5.527   6.049   9.248
22061TIP3    H266061   5.667   5.998   9.277
22062TIP3   OH266062   5.817   5.213   8.961
22062TIP3    H166063   5.785   5.186   8.873
22062TIP3    H266064   5.896   5.265   8.936
22063TIP3   OH266065   5.532   4.588   9.262
22063TIP3    H166066   5.499   4.587   9.354
22063TIP3    H266067   5.491   4.505   9.229
22064TIP3   OH266068   5.182   4.956   9.813
22064TIP3    H166069   5.097   4.914   9.840
22064TIP3    H266070   5.200   4.907   9.730
22065TIP3   OH266071   5.694   5.028   9.552
22065TIP3    H166072   5.637   5.098   9.513
22065TIP3    H266073   5.745   4.998   9.474
22066TIP3   OH266074   5.856   5.058   9.793
22066TIP3    H166075   5.792   5.087   9.724
22066TIP3    H266076   5.884   4.974   9.752
22067TIP3   OH266077   5.186   4.559   9.227
22067TIP3    H166078   5.180   4.554   9.325
22067TIP3    H266079   5.104   4.609   9.207
22068TIP3   OH266080   4.708   4.583   9.606
22068TIP3    H166081   4.755   4.625   9.531
22068TIP3    H266082   4.648   4.656   9.632
22069TIP3   OH266083   5.807   5.289  10.199
22069TIP3    H166084   5.870   5.231  10.151
22069TIP3    H266085   5.858   5.316  10.277
22070TIP3   OH266086   5.557   4.766   9.867
22070TIP3    H166087   5.464   4.760   9.902
22070TIP3    H266088   5.609   4.754   9.947
22071TIP3   OH266089   4.968   4.811   9.891
22071TIP3    H166090   4.874   4.818   9.864
22071TIP3    H266091   4.989   4.717   9.876
22072TIP3   OH266092   5.234   4.814   9.583
22072TIP3    H166093   5.328   4.830   9.561
22072TIP3    H266094   5.187   4.836   9.500
22073TIP3   OH266095   5.999   4.842  10.075
22073TIP3    H166096   5.975   4.821  10.168
22073TIP3    H266097   5.953   4.770  10.029
22074TIP3   OH266098   5.069   4.850   9.364
22074TIP3    H166099   4.995   4.805   9.319
22074TIP3    H266100   5.120   4.881   9.287
22075TIP3   OH266101   5.611   5.101   9.958
22075TIP3    H166102   5.679   5.043   9.918
22075TIP3    H266103   5.602   5.065  10.048
22076TIP3   OH266104   5.109   4.550   9.842
22076TIP3    H166105   5.131   4.472   9.894
22076TIP3    H266106   5.192   4.571   9.799
22077TIP3   OH266107   5.325   5.377   9.369
22077TIP3    H166108   5.252   5.312   9.358
22077TIP3    H266109   5.307   5.410   9.460
22078TIP3   OH266110   6.223   5.601  10.010
22078TIP3    H166111   6.251   5.666   9.941
22078TIP3    H266112   6.135   5.575   9.975
22079TIP3   OH266113   5.782   4.691   9.227
22079TIP3    H166114   5.686   4.675   9.236
22079TIP3    H266115   5.792   4.785   9.251
22080TIP3   OH266116   5.853   4.935   9.332
22080TIP3    H166117   5.949   4.943   9.348
22080TIP3    H266118   5.833   5.015   9.279
22081TIP3   OH266119   5.003   5.406  10.027
22081TIP3    H166120   5.041   5.374   9.942
22081TIP3    H266121   5.009   5.327  10.081
22082TIP3   OH266122   5.469   5.527   9.188
22082TIP3    H166123   5.422   5.613   9.196
22082TIP3    H266124   5.415   5.471   9.248
22083TIP3   OH266125   6.296   5.025   9.170
22083TIP3    H166126   6.233   4.979   9.109
22083TIP3    H266127   6.292   5.113   9.128
22084TIP3   OH266128   5.994   5.846   9.077
22084TIP3    H166129   5.969   5.776   9.140
22084TIP3    H266130   6.005   5.797   8.993
22085TIP3   OH266131   5.980   5.467   9.935
22085TIP3    H166132   5.886   5.442   9.926
22085TIP3    H266133   6.022   5.398   9.880
22086TIP3   OH266134   5.115   5.700   9.666
22086TIP3    H166135   5.118   5.783   9.616
22086TIP3    H266136   5.020   5.688   9.678
22087TIP3   OH266137   4.678   5.008   9.370
22087TIP3    H166138   4.725   5.092   9.391
22087TIP3    H266139   4.601   5.015   9.432
22088TIP3   OH266140   5.259   5.470   9.615
22088TIP3    H166141   5.221   5.558   9.632
22088TIP3    H266142   5.222   5.418   9.689
22089TIP3   OH266143   5.384   6.050  10.115
22089TIP3    H166144   5.433   6.123  10.072
22089TIP3    H266145   5.446   6.017  10.180
22090TIP3   OH266146   5.037   5.940   9.522
22090TIP3    H166147   4.951   5.947   9.568
22090TIP3    H266148   5.067   6.034   9.525
22091TIP3   OH266149   5.778   5.691  10.088
22091TIP3    H166150   5.764   5.676  10.182
22091TIP3    H266151   5.847   5.627  10.063
22092TIP3   OH266152   5.746   5.571   8.979
22092TIP3    H166153   5.799   5.547   9.058
22092TIP3    H266154   5.658   5.547   9.009
22093TIP3   OH266155   6.089   6.049   8.800
22093TIP3    H166156   6.128   6.122   8.748
22093TIP3    H266157   6.009   6.095   8.833
22094TIP3   OH266158   5.907   5.506   9.196
22094TIP3    H166159   5.897   5.441   9.268
22094TIP3    H266160   6.004   5.506   9.184
22095TIP3   OH266161   5.116   5.554   8.978
22095TIP3    H166162   5.130   5.462   8.949
22095TIP3    H266163   5.098   5.541   9.073
22096TIP3   OH266164   5.062   5.558   9.250
22096TIP3    H166165   5.130   5.531   9.314
22096TIP3    H266166   5.066   5.656   9.258
22097TIP3   OH266167   4.796   5.253   9.452
22097TIP3    H166168   4.731   5.297   9.511
22097TIP3    H266169   4.811   5.324   9.387
22098TIP3   OH266170   5.832   4.642   9.504
22098TIP3    H166171   5.810   4.668   9.413
22098TIP3    H266172   5.864   4.726   9.543
22099TIP3   OH266173   5.326   5.757   9.200
22099TIP3    H166174   5.240   5.785   9.236
22099TIP3    H266175   5.343   5.828   9.136
22100TIP3   OH266176   5.519   4.820   9.604
22100TIP3    H166177   5.582   4.893   9.587
22100TIP3    H266178   5.527   4.811   9.701
22101TIP3   OH266179   5.672   4.560   9.714
22101TIP3    H166180   5.654   4.640   9.767
22101TIP3    H266181   5.730   4.594   9.643
22102TIP3   OH266182   5.068   5.832   9.266
22102TIP3    H166183   5.038   5.901   9.203
22102TIP3    H266184   5.052   5.875   9.353
22103TIP3   OH266185   5.172   4.545   9.499
22103TIP3    H166186   5.165   4.631   9.545
22103TIP3    H266187   5.266   4.524   9.516
22104TIP3   OH266188   6.073   5.237   9.791
22104TIP3    H166189   5.999   5.174   9.797
22104TIP3    H266190   6.146   5.189   9.836
22105TIP3   OH266191   4.786   5.465   9.261
22105TIP3    H166192   4.849   5.539   9.270
22105TIP3    H266193   4.834   5.412   9.194
22106TIP3   OH266194   4.736   4.740   9.381
22106TIP3    H166195   4.730   4.838   9.383
22106TIP3    H266196   4.645   4.715   9.363
22107TIP3   OH266197   6.046   6.180   9.736
22107TIP3    H166198   6.003   6.231   9.665
22107TIP3    H266199   6.140   6.202   9.720
22108TIP3   OH266200   4.660   5.674   9.652
22108TIP3    H166201   4.584   5.709   9.701
22108TIP3    H266202   4.643   5.714   9.564
22109TIP3   OH266203   5.279   5.759   8.893
22109TIP3    H166204   5.222   5.688   8.932
22109TIP3    H266205   5.353   5.706   8.861
22110TIP3   OH266206   5.715   5.801   8.803
22110TIP3    H166207   5.761   5.737   8.861
22110TIP3    H266208   5.772   5.802   8.723
22111TIP3   OH266209   4.922   5.277   9.111
22111TIP3    H166210   4.975   5.241   9.184
22111TIP3    H266211   4.991   5.281   9.040
22112TIP3   OH266212   5.430   5.473   8.918
22112TIP3    H166213   5.432   5.486   9.015
22112TIP3    H266214   5.428   5.375   8.914
22113TIP3   OH266215   5.134   5.177   9.337
22113TIP3    H166216   5.106   5.135   9.419
22113TIP3    H266217   5.167   5.100   9.285
22114TIP3   OH266218   5.230   4.970   9.176
22114TIP3    H166219   5.203   4.971   9.082
22114TIP3    H266220   5.327   4.978   9.168
22115TIP3   OH266221   6.056   5.304   8.836
22115TIP3    H166222   6.033   5.256   8.754
22115TIP3    H266223   6.024   5.394   8.811
22116TIP3   OH266224   5.038   6.035   9.079
22116TIP3    H166225   5.133   6.033   9.059
22116TIP3    H266226   5.005   6.081   9.000
22117TIP3   OH266227   4.518   5.416   9.296
22117TIP3    H166228   4.613   5.438   9.284
22117TIP3    H266229   4.513   5.327   9.255
22118TIP3   OH266230   4.434   6.029   9.705
22118TIP3    H166231   4.366   5.966   9.672
22118TIP3    H266232   4.479   5.975   9.773
22119TIP3   OH266233   4.571   5.889   9.894
22119TIP3    H166234   4.547   5.818   9.955
22119TIP3    H266235   4.606   5.955   9.957
22120TIP3   OH266236   6.297   6.281   9.695
22120TIP3    H166237   6.319   6.334   9.773
22120TIP3    H266238   6.351   6.324   9.627
22121TIP3   OH266239   6.188   5.491   9.171
22121TIP3    H166240   6.257   5.555   9.144
22121TIP3    H266241   6.229   5.451   9.250
22122TIP3   OH266242   6.315   5.358   9.374
22122TIP3    H166243   6.249   5.316   9.433
22122TIP3    H266244   6.378   5.399   9.436
22123TIP3   OH266245   6.345   5.736   9.803
22123TIP3    H166246   6.419   5.688   9.762
22123TIP3    H266247   6.344   5.819   9.753
22124TIP3   OH266248   6.207   6.031  10.006
22124TIP3    H166249   6.142   6.095  10.035
22124TIP3    H266250   6.159   5.979   9.939
22125TIP3   OH266251   6.254   5.265   9.022
22125TIP3    H166252   6.182   5.269   8.955
22125TIP3    H266253   6.227   5.342   9.077
22126TIP3   OH266254   6.126   4.939   8.977
22126TIP3    H166255   6.084   4.980   8.901
22126TIP3    H266256   6.099   4.845   8.966
22127TIP3   OH266257   6.131   5.213   9.522
22127TIP3    H166258   6.137   5.116   9.517
22127TIP3    H266259   6.116   5.229   9.618
22128TIP3   OH266260   6.069   4.673   8.964
22128TIP3    H166261   6.144   4.642   9.019
22128TIP3    H266262   5.996   4.614   8.990
22129TIP3   OH266263   6.126   4.931   9.419
22129TIP3    H166264   6.166   4.841   9.433
22129TIP3    H266265   6.184   4.963   9.348
22130TIP3   OH266266   6.290   5.119   9.910
22130TIP3    H166267   6.377   5.141   9.869
22130TIP3    H266268   6.313   5.118  10.003
22131TIP3   OH266269   6.353   5.310  10.202
22131TIP3    H166270   6.268   5.262  10.193
22131TIP3    H266271   6.381   5.329  10.109
22132TIP3   OH266272   6.234   4.680   9.452
22132TIP3    H166273   6.284   4.665   9.535
22132TIP3    H266274   6.173   4.603   9.453
22133TIP3   OH266275   6.318   4.615   9.087
22133TIP3    H166276   6.358   4.543   9.034
22133TIP3    H266277   6.384   4.687   9.078
22134TIP3   OH266278   4.746   4.494   9.860
22134TIP3    H166279   4.654   4.468   9.875
22134TIP3    H266280   4.745   4.521   9.766
22135TIP3   OH266281   5.878   6.146   9.352
22135TIP3    H166282   5.932   6.131   9.272
22135TIP3    H266283   5.931   6.211   9.401
22136TIP3   OH266284   5.074   6.250  10.178
22136TIP3    H166285   4.994   6.207  10.209
22136TIP3    H266286   5.058   6.261  10.083
22137TIP3   OH266287   5.496   6.261   9.965
22137TIP3    H166288   5.425   6.264   9.897
22137TIP3    H266289   5.495   6.352   9.997
22138TIP3   OH266290   5.760   6.181  10.020
22138TIP3    H166291   5.675   6.215   9.987
22138TIP3    H266292   5.823   6.250   9.991
22139TIP3   OH266293   5.942   6.372   9.926
22139TIP3    H166294   5.955   6.463   9.890
22139TIP3    H266295   5.990   6.318   9.861
22140TIP3   OH266296   4.757   6.047  10.049
22140TIP3    H166297   4.743   6.009  10.137
22140TIP3    H266298   4.824   5.987  10.009
22141TIP3   OH266299   4.943   5.899   9.910
22141TIP3    H166300   4.961   5.819   9.963
22141TIP3    H266301   5.031   5.941   9.907
22142TIP3   OH266302   5.203   6.002   9.913
22142TIP3    H166303   5.237   5.912   9.901
22142TIP3    H266304   5.246   6.024   9.999
22143TIP3   OH266305   5.786   4.659  10.007
22143TIP3    H166306   5.752   4.582  10.054
22143TIP3    H266307   5.853   4.618   9.949
22144TIP3   OH266308   6.300   4.528   9.886
22144TIP3    H166309   6.341   4.589   9.821
22144TIP3    H266310   6.218   4.576   9.907
22145TIP3   OH266311   6.405   4.644   9.664
22145TIP3    H166312   6.478   4.591   9.624
22145TIP3    H266313   6.439   4.735   9.649
22146TIP3   OH266314   4.841   4.242   9.657
22146TIP3    H166315   4.853   4.311   9.590
22146TIP3    H266316   4.798   4.290   9.730
22147TIP3   OH266317   5.546   4.398   9.906
22147TIP3    H166318   5.560   4.476   9.848
22147TIP3    H266319   5.457   4.408   9.942
22148TIP3   OH266320   6.009   4.544   9.887
22148TIP3    H166321   6.018   4.519   9.794
22148TIP3    H266322   5.998   4.458   9.932
22149TIP3   OH266323   6.052   4.465   9.444
22149TIP3    H166324   5.966   4.511   9.454
22149TIP3    H266325   6.033   4.381   9.490
22150TIP3   OH266326   4.536   5.803   9.448
22150TIP3    H166327   4.451   5.770   9.412
22150TIP3    H266328   4.523   5.898   9.434
22151TIP3   OH266329   4.933   4.408   9.422
22151TIP3    H166330   4.980   4.336   9.377
22151TIP3    H266331   5.006   4.454   9.467
22152TIP3   OH266332   5.451   4.566   9.528
22152TIP3    H166333   5.504   4.519   9.593
22152TIP3    H266334   5.471   4.659   9.552
22153TIP3   OH266335   5.307   5.997   9.028
22153TIP3    H166336   5.395   6.018   8.992
22153TIP3    H266337   5.284   5.921   8.969
22154TIP3   OH266338   6.026   6.112   9.120
22154TIP3    H166339   6.017   6.015   9.107
22154TIP3    H266340   5.981   6.145   9.040
22155TIP3   OH266341   4.611   5.834   9.087
22155TIP3    H166342   4.608   5.860   9.180
22155TIP3    H266343   4.700   5.793   9.079
22156TIP3   OH266344   7.520   5.632   9.073
22156TIP3    H166345   7.488   5.722   9.053
22156TIP3    H266346   7.443   5.579   9.046
22157TIP3   OH266347   7.507   5.630   9.453
22157TIP3    H166348   7.542   5.608   9.541
22157TIP3    H266349   7.474   5.544   9.423
22158TIP3   OH266350   6.824   5.537   9.824
22158TIP3    H166351   6.860   5.488   9.898
22158TIP3    H266352   6.903   5.577   9.784
22159TIP3   OH266353   7.783   5.916   9.137
22159TIP3    H166354   7.759   5.848   9.203
22159TIP3    H266355   7.781   5.996   9.190
22160TIP3   OH266356   6.791   5.933   9.553
22160TIP3    H166357   6.781   5.835   9.553
22160TIP3    H266358   6.887   5.941   9.539
22161TIP3   OH266359   6.494   5.140   9.335
22161TIP3    H166360   6.444   5.223   9.346
22161TIP3    H266361   6.425   5.083   9.297
22162TIP3   OH266362   6.556   5.426   9.500
22162TIP3    H166363   6.604   5.349   9.538
22162TIP3    H266364   6.612   5.450   9.425
22163TIP3   OH266365   7.376   6.374   9.132
22163TIP3    H166366   7.441   6.320   9.081
22163TIP3    H266367   7.400   6.349   9.222
22164TIP3   OH266368   7.306   5.846   9.496
22164TIP3    H166369   7.347   5.768   9.456
22164TIP3    H266370   7.388   5.899   9.512
22165TIP3   OH266371   8.303   5.175   9.495
22165TIP3    H166372   8.351   5.246   9.538
22165TIP3    H266373   8.331   5.183   9.403
22166TIP3   OH266374   7.733   5.356   9.539
22166TIP3    H166375   7.776   5.269   9.554
22166TIP3    H266376   7.701   5.344   9.447
22167TIP3   OH266377   7.059   5.016   9.506
22167TIP3    H166378   7.045   5.087   9.441
22167TIP3    H266379   7.015   4.942   9.458
22168TIP3   OH266380   7.748   5.110   9.121
22168TIP3    H166381   7.803   5.062   9.186
22168TIP3    H266382   7.817   5.142   9.060
22169TIP3   OH266383   6.698   5.217   9.610
22169TIP3    H166384   6.783   5.195   9.654
22169TIP3    H266385   6.708   5.163   9.529
22170TIP3   OH266386   7.140   5.415   9.403
22170TIP3    H166387   7.234   5.392   9.414
22170TIP3    H266388   7.102   5.331   9.369
22171TIP3   OH266389   7.063   4.996   9.938
22171TIP3    H166390   7.003   5.033   9.870
22171TIP3    H266391   7.005   4.987  10.014
22172TIP3   OH266392   7.415   5.856   8.946
22172TIP3    H166393   7.369   5.825   8.866
22172TIP3    H266394   7.369   5.941   8.963
22173TIP3   OH266395   7.137   5.776   9.733
22173TIP3    H166396   7.113   5.854   9.784
22173TIP3    H266397   7.214   5.809   9.682
22174TIP3   OH266398   7.984   5.120   9.276
22174TIP3    H166399   7.955   5.040   9.325
22174TIP3    H266400   8.020   5.178   9.345
22175TIP3   OH266401   6.932   5.113   9.723
22175TIP3    H166402   6.998   5.184   9.741
22175TIP3    H266403   6.976   5.069   9.646
22176TIP3   OH266404   6.394   5.657   9.066
22176TIP3    H166405   6.351   5.683   8.983
22176TIP3    H266406   6.422   5.743   9.103
22177TIP3   OH266407   8.106   5.086   9.672
22177TIP3    H166408   8.021   5.091   9.625
22177TIP3    H266409   8.171   5.106   9.602
22178TIP3   OH266410   7.423   4.717   9.652
22178TIP3    H166411   7.412   4.621   9.666
22178TIP3    H266412   7.343   4.752   9.697
22179TIP3   OH266413   7.555   6.227   8.997
22179TIP3    H166414   7.595   6.143   8.964
22179TIP3    H266415   7.600   6.290   8.936
22180TIP3   OH266416   7.677   6.004   8.889
22180TIP3    H166417   7.630   5.931   8.847
22180TIP3    H266418   7.714   5.960   8.969
22181TIP3   OH266419   7.349   5.482   8.904
22181TIP3    H166420   7.267   5.531   8.880
22181TIP3    H266421   7.395   5.477   8.818
22182TIP3   OH266422   7.307   5.264   8.625
22182TIP3    H166423   7.377   5.312   8.674
22182TIP3    H266424   7.362   5.199   8.577
22183TIP3   OH266425   7.698   5.565   8.877
22183TIP3    H166426   7.642   5.589   8.955
22183TIP3    H266427   7.779   5.533   8.922
22184TIP3   OH266428   6.929   5.562   9.294
22184TIP3    H166429   6.886   5.505   9.227
22184TIP3    H266430   7.006   5.508   9.322
22185TIP3   OH266431   7.057   5.973   9.444
22185TIP3    H166432   7.036   5.929   9.360
22185TIP3    H266433   7.144   5.933   9.465
22186TIP3   OH266434   7.062   5.528   9.651
22186TIP3    H166435   7.096   5.510   9.561
22186TIP3    H266436   7.099   5.617   9.669
22187TIP3   OH266437   7.538   5.422   8.704
22187TIP3    H166438   7.598   5.480   8.757
22187TIP3    H266439   7.565   5.447   8.612
22188TIP3   OH266440   7.282   6.104   8.973
22188TIP3    H166441   7.336   6.169   9.018
22188TIP3    H266442   7.212   6.159   8.934
22189TIP3   OH266443   8.051   4.662   8.749
22189TIP3    H166444   7.970   4.680   8.802
22189TIP3    H266445   8.062   4.748   8.703
22190TIP3   OH266446   6.793   5.405   9.102
22190TIP3    H166447   6.729   5.450   9.043
22190TIP3    H266448   6.754   5.318   9.111
22191TIP3   OH266449   7.849   6.030   8.299
22191TIP3    H166450   7.857   6.127   8.287
22191TIP3    H266451   7.942   6.002   8.288
22192TIP3   OH266452   6.429   5.977   9.643
22192TIP3    H166453   6.525   5.981   9.629
22192TIP3    H266454   6.412   6.057   9.694
22193TIP3   OH266455   7.158   6.346   8.782
22193TIP3    H166456   7.115   6.330   8.696
22193TIP3    H266457   7.128   6.436   8.804
22194TIP3   OH266458   6.598   6.198   9.162
22194TIP3    H166459   6.646   6.188   9.247
22194TIP3    H266460   6.537   6.123   9.169
22195TIP3   OH266461   7.363   6.251   8.421
22195TIP3    H166462   7.421   6.181   8.384
22195TIP3    H266463   7.395   6.258   8.513
22196TIP3   OH266464   7.408   6.295   8.689
22196TIP3    H166465   7.321   6.305   8.733
22196TIP3    H266466   7.462   6.258   8.760
22197TIP3   OH266467   7.182   4.797   9.775
22197TIP3    H166468   7.092   4.765   9.753
22197TIP3    H266469   7.159   4.880   9.820
22198TIP3   OH266470   7.614   5.472   8.448
22198TIP3    H166471   7.580   5.442   8.362
22198TIP3    H266472   7.693   5.522   8.421
22199TIP3   OH266473   7.327   4.846   8.749
22199TIP3    H166474   7.298   4.844   8.843
22199TIP3    H266475   7.290   4.761   8.719
22200TIP3   OH266476   7.113   5.305   9.794
22200TIP3    H166477   7.095   5.341   9.881
22200TIP3    H266478   7.100   5.384   9.736
22201TIP3   OH266479   6.995   5.196   9.312
22201TIP3    H166480   6.903   5.168   9.327
22201TIP3    H266481   7.011   5.156   9.224
22202TIP3   OH266482   7.486   5.285   9.039
22202TIP3    H166483   7.433   5.354   8.995
22202TIP3    H266484   7.542   5.252   8.966
22203TIP3   OH266485   7.644   5.315   9.278
22203TIP3    H166486   7.582   5.337   9.205
22203TIP3    H266487   7.681   5.233   9.239
22204TIP3   OH266488   6.980   4.815   8.716
22204TIP3    H166489   6.976   4.813   8.813
22204TIP3    H266490   6.901   4.867   8.694
22205TIP3   OH266491   6.526   4.869   9.584
22205TIP3    H166492   6.604   4.895   9.638
22205TIP3    H266493   6.565   4.832   9.504
22206TIP3   OH266494   6.501   4.843   9.107
22206TIP3    H166495   6.546   4.882   9.029
22206TIP3    H266496   6.439   4.915   9.128
22207TIP3   OH266497   7.632   5.556   9.687
22207TIP3    H166498   7.677   5.482   9.638
22207TIP3    H266499   7.604   5.513   9.768
22208TIP3   OH266500   7.318   5.029   9.375
22208TIP3    H166501   7.241   5.018   9.434
22208TIP3    H266502   7.393   5.012   9.435
22209TIP3   OH266503   6.757   5.072   9.384
22209TIP3    H166504   6.663   5.078   9.355
22209TIP3    H266505   6.783   4.982   9.357
22210TIP3   OH266506   7.028   5.071   9.070
22210TIP3    H166507   7.123   5.085   9.053
22210TIP3    H266508   6.985   5.095   8.985
22211TIP3   OH266509   7.822   5.099   9.571
22211TIP3    H166510   7.784   5.098   9.661
22211TIP3    H266511   7.774   5.028   9.526
22212TIP3   OH266512   6.864   5.105   8.848
22212TIP3    H166513   6.793   5.060   8.799
22212TIP3    H266514   6.917   5.139   8.773
22213TIP3   OH266515   7.408   5.348   9.468
22213TIP3    H166516   7.476   5.304   9.415
22213TIP3    H266517   7.416   5.303   9.554
22214TIP3   OH266518   6.931   4.835   9.345
22214TIP3    H166519   6.902   4.753   9.389
22214TIP3    H266520   6.990   4.801   9.276
22215TIP3   OH266521   7.384   5.241   9.742
22215TIP3    H166522   7.291   5.265   9.762
22215TIP3    H266523   7.433   5.277   9.817
22216TIP3   OH266524   7.119   5.635   8.854
22216TIP3    H166525   7.047   5.569   8.844
22216TIP3    H266526   7.102   5.668   8.946
22217TIP3   OH266527   7.576   4.953   8.703
22217TIP3    H166528   7.482   4.933   8.723
22217TIP3    H266529   7.588   5.043   8.738
22218TIP3   OH266530   7.648   5.191   8.817
22218TIP3    H166531   7.743   5.196   8.839
22218TIP3    H266532   7.633   5.272   8.766
22219TIP3   OH266533   6.813   5.654   9.531
22219TIP3    H166534   6.848   5.631   9.442
22219TIP3    H266535   6.854   5.585   9.585
22220TIP3   OH266536   7.265   5.784   8.675
22220TIP3    H166537   7.219   5.870   8.683
22220TIP3    H266538   7.211   5.728   8.735
22221TIP3   OH266539   8.092   5.281   8.656
22221TIP3    H166540   8.029   5.233   8.597
22221TIP3    H266541   8.088   5.368   8.611
22222TIP3   OH266542   7.793   6.101   8.565
22222TIP3    H166543   7.760   6.032   8.623
22222TIP3    H266544   7.801   6.056   8.479
22223TIP3   OH266545   7.771   5.734   9.384
22223TIP3    H166546   7.684   5.701   9.413
22223TIP3    H266547   7.813   5.651   9.352
22224TIP3   OH266548   6.911   5.958   9.156
22224TIP3    H166549   6.914   6.041   9.104
22224TIP3    H266550   6.816   5.944   9.163
22225TIP3   OH266551   6.475   5.264   8.857
22225TIP3    H166552   6.522   5.347   8.878
22225TIP3    H266553   6.398   5.270   8.918
22226TIP3   OH266554   7.055   5.727   9.102
22226TIP3    H166555   7.018   5.816   9.119
22226TIP3    H266556   7.019   5.676   9.177
22227TIP3   OH266557   6.834   6.197   9.010
22227TIP3    H166558   6.747   6.206   9.054
22227TIP3    H266559   6.865   6.290   9.013
22228TIP3   OH266560   7.546   5.964   9.556
22228TIP3    H166561   7.551   5.964   9.653
22228TIP3    H266562   7.628   5.915   9.536
22229TIP3   OH266563   7.543   5.827   8.465
22229TIP3    H166564   7.594   5.803   8.546
22229TIP3    H266565   7.453   5.803   8.493
22230TIP3   OH266566   7.882   6.304   8.287
22230TIP3    H166567   7.921   6.377   8.236
22230TIP3    H266568   7.803   6.350   8.321
22231TIP3   OH266569   7.702   5.766   8.685
22231TIP3    H166570   7.691   5.698   8.754
22231TIP3    H266571   7.798   5.763   8.672
22232TIP3   OH266572   6.620   6.180   9.782
22232TIP3    H166573   6.665   6.097   9.800
22232TIP3    H266574   6.641   6.232   9.861
22233TIP3   OH266575   6.912   5.810   8.465
22233TIP3    H166576   6.926   5.718   8.436
22233TIP3    H266577   6.893   5.797   8.560
22234TIP3   OH266578   6.858   5.815   8.738
22234TIP3    H166579   6.928   5.788   8.799
22234TIP3    H266580   6.862   5.913   8.745
22235TIP3   OH266581   6.594   5.510   8.940
22235TIP3    H166582   6.528   5.554   8.998
22235TIP3    H266583   6.609   5.580   8.874
22236TIP3   OH266584   7.746   5.137   9.836
22236TIP3    H166585   7.804   5.192   9.891
22236TIP3    H266586   7.699   5.087   9.903
22237TIP3   OH266587   7.618   4.899   8.992
22237TIP3    H166588   7.612   4.932   8.901
22237TIP3    H266589   7.658   4.976   9.038
22238TIP3   OH266590   7.122   6.014   8.688
22238TIP3    H166591   7.035   6.043   8.722
22238TIP3    H266592   7.140   6.085   8.624
22239TIP3   OH266593   7.307   5.079   9.100
22239TIP3    H166594   7.377   5.146   9.083
22239TIP3    H266595   7.316   5.067   9.197
22240TIP3   OH266596   7.455   4.804   9.203
22240TIP3    H166597   7.471   4.868   9.274
22240TIP3    H266598   7.523   4.834   9.138
22241TIP3   OH266599   6.864   6.088   8.754
22241TIP3    H166600   6.835   6.157   8.690
22241TIP3    H266601   6.848   6.133   8.839
22242TIP3   OH266602   6.967   4.801   8.992
22242TIP3    H166603   6.965   4.891   9.029
22242TIP3    H266604   7.063   4.782   9.002
22243TIP3   OH266605   7.866   5.491   9.270
22243TIP3    H166606   7.788   5.434   9.279
22243TIP3    H266607   7.932   5.442   9.324
22244TIP3   OH266608   6.582   5.722   8.748
22244TIP3    H166609   6.645   5.795   8.756
22244TIP3    H266610   6.630   5.669   8.680
22245TIP3   OH266611   6.529   4.994   8.880
22245TIP3    H166612   6.528   5.092   8.875
22245TIP3    H266613   6.445   4.971   8.840
22246TIP3   OH266614   6.913   4.719   9.756
22246TIP3    H166615   6.885   4.684   9.668
22246TIP3    H266616   6.905   4.639   9.812
22247TIP3   OH266617   6.458   5.933   9.138
22247TIP3    H166618   6.382   5.965   9.189
22247TIP3    H266619   6.438   5.972   9.050
22248TIP3   OH266620   7.075   6.015   8.380
22248TIP3    H166621   7.018   5.944   8.418
22248TIP3    H266622   7.149   5.963   8.348
22249TIP3   OH266623   7.511   6.057   8.290
22249TIP3    H166624   7.557   5.992   8.347
22249TIP3    H266625   7.567   6.060   8.210
22250TIP3   OH266626   6.718   5.533   8.598
22250TIP3    H166627   6.772   5.498   8.670
22250TIP3    H266628   6.786   5.537   8.527
22251TIP3   OH266629   7.227   5.730   8.406
22251TIP3    H166630   7.228   5.743   8.503
22251TIP3    H266631   7.226   5.631   8.401
22252TIP3   OH266632   6.929   5.434   8.823
22252TIP3    H166633   6.902   5.391   8.906
22252TIP3    H266634   6.964   5.358   8.771
22253TIP3   OH266635   7.026   5.227   8.663
22253TIP3    H166636   7.000   5.227   8.569
22253TIP3    H266637   7.124   5.234   8.655
22254TIP3   OH266638   7.854   5.561   8.322
22254TIP3    H166639   7.829   5.512   8.241
22254TIP3    H266640   7.820   5.650   8.297
22255TIP3   OH266641   7.326   5.076   9.976
22255TIP3    H166642   7.349   5.094   9.883
22255TIP3    H266643   7.235   5.043   9.970
22256TIP3   OH266644   6.834   6.289   8.567
22256TIP3    H166645   6.929   6.288   8.548
22256TIP3    H266646   6.803   6.338   8.488
22257TIP3   OH266647   6.314   5.672   8.784
22257TIP3    H166648   6.409   5.694   8.771
22257TIP3    H266649   6.310   5.583   8.742
22258TIP3   OH266650   6.228   6.286   9.195
22258TIP3    H166651   6.160   6.223   9.161
22258TIP3    H266652   6.272   6.230   9.262
22259TIP3   OH266653   6.364   6.140   9.382
22259TIP3    H166654   6.351   6.065   9.441
22259TIP3    H266655   6.417   6.199   9.439
22260TIP3   OH266656   7.985   5.747   8.663
22260TIP3    H166657   8.053   5.811   8.633
22260TIP3    H266658   8.027   5.705   8.738
22261TIP3   OH266659   8.048   5.526   8.509
22261TIP3    H166660   7.979   5.520   8.439
22261TIP3    H266661   8.016   5.605   8.556
22262TIP3   OH266662   7.922   5.197   8.462
22262TIP3    H166663   7.877   5.232   8.384
22262TIP3    H266664   7.896   5.102   8.456
22263TIP3   OH266665   7.925   5.467   9.003
22263TIP3    H166666   7.935   5.370   8.997
22263TIP3    H266667   7.911   5.480   9.099
22264TIP3   OH266668   6.555   5.530   9.760
22264TIP3    H166669   6.549   5.512   9.664
22264TIP3    H266670   6.652   5.545   9.771
22265TIP3   OH266671   7.865   4.931   8.452
22265TIP3    H166672   7.941   4.900   8.505
22265TIP3    H266673   7.793   4.872   8.479
22266TIP3   OH266674   7.923   5.185   8.901
22266TIP3    H166675   7.961   5.097   8.923
22266TIP3    H266676   7.984   5.213   8.831
22267TIP3   OH266677   8.058   5.366   9.415
22267TIP3    H166678   8.146   5.374   9.371
22267TIP3    H266679   8.082   5.371   9.508
22268TIP3   OH266680   8.031   4.934   8.943
22268TIP3    H166681   8.071   4.922   9.032
22268TIP3    H266682   7.967   4.859   8.942
22269TIP3   OH266683   6.729   4.925   9.765
22269TIP3    H166684   6.790   4.848   9.773
22269TIP3    H266685   6.794   4.997   9.753
22270TIP3   OH266686   6.542   5.201   9.842
22270TIP3    H166687   6.584   5.182   9.756
22270TIP3    H266688   6.557   5.297   9.847
22271TIP3   OH266689   8.114   4.874   8.570
22271TIP3    H166690   8.154   4.799   8.523
22271TIP3    H266691   8.183   4.943   8.564
22272TIP3   OH266692   6.516   4.703   9.337
22272TIP3    H166693   6.421   4.700   9.359
22272TIP3    H266694   6.517   4.759   9.257
22273TIP3   OH266695   7.660   6.407   8.824
22273TIP3    H166696   7.720   6.384   8.750
22273TIP3    H266697   7.725   6.436   8.890
22274TIP3   OH266698   6.738   4.766  10.126
22274TIP3    H166699   6.704   4.739  10.213
22274TIP3    H266700   6.665   4.819  10.090
22275TIP3   OH266701   6.847   6.435   9.626
22275TIP3    H166702   6.838   6.492   9.703
22275TIP3    H266703   6.849   6.499   9.552
22276TIP3   OH266704   6.542   6.291   9.539
22276TIP3    H166705   6.570   6.267   9.630
22276TIP3    H266706   6.618   6.252   9.490
22277TIP3   OH266707   6.735   6.160   9.395
22277TIP3    H166708   6.754   6.078   9.445
22277TIP3    H266709   6.824   6.201   9.389
22278TIP3   OH266710   7.001   6.259   9.391
22278TIP3    H166711   7.036   6.168   9.395
22278TIP3    H266712   7.006   6.287   9.483
22279TIP3   OH266713   7.563   4.909   9.475
22279TIP3    H166714   7.542   4.832   9.530
22279TIP3    H266715   7.644   4.879   9.427
22280TIP3   OH266716   8.117   4.794   9.401
22280TIP3    H166717   8.148   4.843   9.322
22280TIP3    H266718   8.020   4.805   9.389
22281TIP3   OH266719   8.205   4.898   9.161
22281TIP3    H166720   8.275   4.848   9.115
22281TIP3    H266721   8.229   4.991   9.139
22282TIP3   OH266722   6.828   4.623   9.508
22282TIP3    H166723   6.736   4.589   9.506
22282TIP3    H266724   6.879   4.540   9.503
22283TIP3   OH266725   6.614   4.490   9.152
22283TIP3    H166726   6.644   4.548   9.080
22283TIP3    H266727   6.584   4.555   9.219
22284TIP3   OH266728   7.266   4.658   9.386
22284TIP3    H166729   7.325   4.704   9.324
22284TIP3    H266730   7.299   4.691   9.471
22285TIP3   OH266731   7.846   4.722   8.930
22285TIP3    H166732   7.765   4.770   8.953
22285TIP3    H266733   7.834   4.642   8.984
22286TIP3   OH266734   6.332   6.059   8.935
22286TIP3    H166735   6.247   6.027   8.899
22286TIP3    H266736   6.319   6.154   8.921
22287TIP3   OH266737   6.730   4.651   8.918
22287TIP3    H166738   6.779   4.590   8.861
22287TIP3    H266739   6.802   4.706   8.954
22288TIP3   OH266740   7.245   4.826   9.016
22288TIP3    H166741   7.309   4.783   9.076
22288TIP3    H266742   7.264   4.920   9.040
22289TIP3   OH266743   7.103   6.253   8.516
22289TIP3    H166744   7.190   6.278   8.478
22289TIP3    H266745   7.081   6.178   8.456
22290TIP3   OH266746   7.828   6.370   8.606
22290TIP3    H166747   7.820   6.273   8.591
22290TIP3    H266748   7.784   6.405   8.527
22291TIP3   OH266749   6.407   6.089   8.574
22291TIP3    H166750   6.406   6.116   8.667
22291TIP3    H266751   6.496   6.048   8.564
22292TIP3   OH266752   8.286   5.403   8.823
22292TIP3    H166753   8.231   5.475   8.855
22292TIP3    H266754   8.219   5.340   8.790
22293TIP3   OH266755   8.332   5.703   8.982
22293TIP3    H166756   8.373   5.619   9.013
22293TIP3    H266757   8.389   5.720   8.905
22294TIP3   OH266758   8.874   5.253   8.972
22294TIP3    H166759   8.869   5.331   8.914
22294TIP3    H266760   8.809   5.194   8.931
22295TIP3   OH266761   8.467   5.455   9.093
22295TIP3    H166762   8.560   5.440   9.119
22295TIP3    H266763   8.469   5.404   9.009
22296TIP3   OH266764   8.186   5.913   8.558
22296TIP3    H166765   8.145   5.938   8.473
22296TIP3    H266766   8.212   6.001   8.593
22297TIP3   OH266767   9.101   5.521   8.108
22297TIP3    H166768   9.164   5.562   8.169
22297TIP3    H266769   9.160   5.459   8.060
22298TIP3   OH266770   9.848   4.926   8.235
22298TIP3    H166771   9.767   4.933   8.291
22298TIP3    H266772   9.833   4.997   8.171
22299TIP3   OH266773   8.576   5.653   8.579
22299TIP3    H166774   8.509   5.694   8.523
22299TIP3    H266775   8.540   5.566   8.598
22300TIP3   OH266776   9.406   5.735   7.925
22300TIP3    H166777   9.379   5.694   7.841
22300TIP3    H266778   9.471   5.799   7.897
22301TIP3   OH266779   9.128   5.102   8.234
22301TIP3    H166780   9.097   5.097   8.327
22301TIP3    H266781   9.090   5.019   8.200
22302TIP3   OH266782   8.786   5.434   8.776
22302TIP3    H166783   8.695   5.416   8.805
22302TIP3    H266784   8.787   5.393   8.687
22303TIP3   OH266785   8.779   5.075   8.202
22303TIP3    H166786   8.773   5.067   8.299
22303TIP3    H266787   8.695   5.120   8.182
22304TIP3   OH266788   8.312   5.128   9.056
22304TIP3    H166789   8.386   5.141   9.119
22304TIP3    H266790   8.352   5.078   8.983
22305TIP3   OH266791   8.297   5.099   8.593
22305TIP3    H166792   8.343   5.137   8.516
22305TIP3    H266793   8.236   5.172   8.615
22306TIP3   OH266794   8.548   5.319   8.864
22306TIP3    H166795   8.457   5.320   8.830
22306TIP3    H266796   8.582   5.231   8.840
22307TIP3   OH266797   8.812   5.310   8.537
22307TIP3    H166798   8.901   5.343   8.512
22307TIP3    H266799   8.756   5.341   8.462
22308TIP3   OH266800   8.651   5.367   8.329
22308TIP3    H166801   8.582   5.318   8.281
22308TIP3    H266802   8.707   5.397   8.255
22309TIP3   OH266803   8.712   5.089   8.822
22309TIP3    H166804   8.687   5.010   8.875
22309TIP3    H266805   8.776   5.051   8.759
22310TIP3   OH266806   8.871   5.897   8.339
22310TIP3    H166807   8.824   5.810   8.335
22310TIP3    H266808   8.889   5.901   8.434
22311TIP3   OH266809   9.372   5.224   8.209
22311TIP3    H166810   9.277   5.196   8.208
22311TIP3    H266811   9.367   5.315   8.178
22312TIP3   OH266812   8.269   5.520   8.343
22312TIP3    H166813   8.317   5.602   8.363
22312TIP3    H266814   8.193   5.527   8.405
22313TIP3   OH266815   8.700   6.065   7.951
22313TIP3    H166816   8.722   5.975   7.921
22313TIP3    H266817   8.679   6.048   8.045
22314TIP3   OH266818   8.639   6.062   8.225
22314TIP3    H166819   8.690   5.997   8.275
22314TIP3    H266820   8.670   6.145   8.266
22315TIP3   OH266821   8.379   5.765   8.423
22315TIP3    H166822   8.320   5.813   8.485
22315TIP3    H266823   8.400   5.835   8.359
22316TIP3   OH266824   9.444   5.144   8.462
22316TIP3    H166825   9.419   5.170   8.371
22316TIP3    H266826   9.425   5.226   8.511
22317TIP3   OH266827   9.080   5.372   8.553
22317TIP3    H166828   9.175   5.351   8.562
22317TIP3    H266829   9.053   5.385   8.645
22318TIP3   OH266830   9.248   5.048   8.672
22318TIP3    H166831   9.279   5.041   8.764
22318TIP3    H266832   9.325   5.084   8.625
22319TIP3   OH266833   8.763   5.048   8.476
22319TIP3    H166834   8.763   5.140   8.511
22319TIP3    H266835   8.857   5.026   8.487
22320TIP3   OH266836   8.373   5.977   8.229
22320TIP3    H166837   8.440   6.047   8.240
22320TIP3    H266838   8.421   5.919   8.166
22321TIP3   OH266839   8.327   5.251   8.366
22321TIP3    H166840   8.323   5.348   8.360
22321TIP3    H266841   8.242   5.224   8.328
22322TIP3   OH266842   8.693   4.973   9.254
22322TIP3    H166843   8.690   4.952   9.158
22322TIP3    H266844   8.712   4.885   9.291
22323TIP3   OH266845   8.239   6.173   8.636
22323TIP3    H166846   8.175   6.231   8.678
22323TIP3    H266847   8.255   6.224   8.554
22324TIP3   OH266848   8.838   6.267   7.817
22324TIP3    H166849   8.794   6.203   7.876
22324TIP3    H266850   8.929   6.261   7.849
22325TIP3   OH266851   8.517   5.789   8.087
22325TIP3    H166852   8.567   5.747   8.160
22325TIP3    H266853   8.586   5.791   8.017
22326TIP3   OH266854   9.011   5.984   7.888
22326TIP3    H166855   9.010   5.997   7.985
22326TIP3    H266856   9.023   5.886   7.885
22327TIP3   OH266857   8.705   5.682   8.307
22327TIP3    H166858   8.691   5.650   8.398
22327TIP3    H266859   8.745   5.603   8.263
22328TIP3   OH266860   8.823   5.482   8.149
22328TIP3    H166861   8.796   5.481   8.055
22328TIP3    H266862   8.920   5.490   8.141
22329TIP3   OH266863   8.108   5.926   8.272
22329TIP3    H166864   8.203   5.949   8.258
22329TIP3    H266865   8.104   5.838   8.230
22330TIP3   OH266866   9.658   5.466   7.938
22330TIP3    H166867   9.657   5.481   7.843
22330TIP3    H266868   9.641   5.369   7.939
22331TIP3   OH266869   9.625   5.201   7.934
22331TIP3    H166870   9.715   5.171   7.959
22331TIP3    H266871   9.568   5.125   7.955
22332TIP3   OH266872   8.502   5.161   9.252
22332TIP3    H166873   8.560   5.081   9.258
22332TIP3    H266874   8.570   5.224   9.218
22333TIP3   OH266875   8.305   5.413   9.319
22333TIP3    H166876   8.336   5.401   9.227
22333TIP3    H266877   8.333   5.506   9.332
22334TIP3   OH266878   9.880   5.147   8.008
22334TIP3    H166879   9.931   5.074   7.965
22334TIP3    H266880   9.949   5.182   8.068
22335TIP3   OH266881   8.312   4.958   8.824
22335TIP3    H166882   8.217   4.953   8.848
22335TIP3    H266883   8.310   5.014   8.744
22336TIP3   OH266884   8.625   4.886   8.993
22336TIP3    H166885   8.533   4.851   8.995
22336TIP3    H266886   8.675   4.802   8.996
22337TIP3   OH266887   8.407   4.746   8.637
22337TIP3    H166888   8.440   4.806   8.568
22337TIP3    H266889   8.380   4.809   8.707
22338TIP3   OH266890   9.633   4.963   8.390
22338TIP3    H166891   9.559   5.025   8.406
22338TIP3    H266892   9.607   4.887   8.446
22339TIP3   OH266893   8.138   6.302   8.404
22339TIP3    H166894   8.048   6.276   8.375
22339TIP3    H266895   8.121   6.394   8.428
22340TIP3   OH266896   8.525   4.911   8.402
22340TIP3    H166897   8.575   4.846   8.348
22340TIP3    H266898   8.599   4.962   8.441
22341TIP3   OH266899   9.041   5.076   8.499
22341TIP3    H166900   9.105   5.030   8.557
22341TIP3    H266901   9.051   5.167   8.531
22342TIP3   OH266902   8.204   6.351   8.063
22342TIP3    H166903   8.182   6.373   8.156
22342TIP3    H266904   8.289   6.305   8.071
22343TIP3   OH266905   2.098   7.081   9.474
22343TIP3    H166906   2.107   7.174   9.445
22343TIP3    H266907   2.187   7.046   9.453
22344TIP3   OH266908   1.861   6.533   9.612
22344TIP3    H166909   1.837   6.475   9.538
22344TIP3    H266910   1.949   6.563   9.583
22345TIP3   OH266911   2.146   7.130   9.739
22345TIP3    H166912   2.067   7.097   9.785
22345TIP3    H266913   2.127   7.103   9.647
22346TIP3   OH266914   1.810   6.859   9.621
22346TIP3    H166915   1.857   6.809   9.691
22346TIP3    H266916   1.720   6.859   9.656
22347TIP3   OH266917   2.126   7.361   9.462
22347TIP3    H166918   2.136   7.411   9.377
22347TIP3    H266919   2.035   7.385   9.481
22348TIP3   OH266920   1.758   7.091   9.469
22348TIP3    H166921   1.817   7.019   9.496
22348TIP3    H266922   1.795   7.116   9.382
22349TIP3   OH266923   1.460   6.774   9.586
22349TIP3    H166924   1.444   6.783   9.682
22349TIP3    H266925   1.505   6.687   9.579
22350TIP3   OH266926   2.097   6.610   9.505
22350TIP3    H166927   2.085   6.556   9.424
22350TIP3    H266928   2.069   6.697   9.468
22351TIP3   OH266929   2.311   6.579   9.675
22351TIP3    H166930   2.230   6.586   9.620
22351TIP3    H266931   2.286   6.620   9.759
22352TIP3   OH266932   2.150   6.244   9.658
22352TIP3    H166933   2.139   6.296   9.578
22352TIP3    H266934   2.150   6.154   9.624
22353TIP3   OH266935   3.563   6.935   9.741
22353TIP3    H166936   3.534   7.025   9.716
22353TIP3    H266937   3.488   6.882   9.708
22354TIP3   OH266938   3.800   7.233   9.800
22354TIP3    H166939   3.800   7.158   9.860
22354TIP3    H266940   3.839   7.304   9.854
22355TIP3   OH266941   3.460   7.701   9.805
22355TIP3    H166942   3.502   7.618   9.776
22355TIP3    H266943   3.402   7.675   9.879
22356TIP3   OH266944   4.369   6.458  10.153
22356TIP3    H166945   4.375   6.533  10.213
22356TIP3    H266946   4.394   6.498  10.068
22357TIP3   OH266947   3.805   6.398   9.792
22357TIP3    H166948   3.880   6.388   9.855
22357TIP3    H266949   3.851   6.444   9.719
22358TIP3   OH266950   3.458   7.154   9.608
22358TIP3    H166951   3.412   7.127   9.528
22358TIP3    H266952   3.412   7.238   9.629
22359TIP3   OH266953   4.023   6.410   9.957
22359TIP3    H166954   4.023   6.377  10.049
22359TIP3    H266955   4.075   6.491   9.970
22360TIP3   OH266956   2.443   6.939   9.720
22360TIP3    H166957   2.385   6.975   9.651
22360TIP3    H266958   2.464   7.016   9.775
22361TIP3   OH266959   3.872   7.453   9.975
22361TIP3    H166960   3.780   7.452  10.008
22361TIP3    H266961   3.874   7.538   9.926
22362TIP3   OH266962   3.584   7.515   9.647
22362TIP3    H166963   3.635   7.434   9.622
22362TIP3    H266964   3.643   7.583   9.607
22363TIP3   OH266965   3.724   7.304   9.544
22363TIP3    H166966   3.683   7.225   9.506
22363TIP3    H266967   3.755   7.270   9.631
22364TIP3   OH266968   3.395   6.786   9.568
22364TIP3    H166969   3.312   6.832   9.545
22364TIP3    H266970   3.439   6.779   9.482
22365TIP3   OH266971   3.353   6.567   9.287
22365TIP3    H166972   3.423   6.615   9.335
22365TIP3    H266973   3.407   6.500   9.241
22366TIP3   OH266974   4.301   7.006  10.130
22366TIP3    H166975   4.228   7.058  10.166
22366TIP3    H266976   4.325   7.059  10.051
22367TIP3   OH266977   3.741   6.865   9.544
22367TIP3    H166978   3.686   6.890   9.622
22367TIP3    H266979   3.823   6.837   9.588
22368TIP3   OH266980   2.968   6.856   9.949
22368TIP3    H166981   2.918   6.805   9.881
22368TIP3    H266982   3.039   6.794   9.972
22369TIP3   OH266983   3.074   7.294  10.049
22369TIP3    H166984   3.082   7.211  10.000
22369TIP3    H266985   3.140   7.279  10.121
22370TIP3   OH266986   3.624   7.450  10.097
22370TIP3    H166987   3.531   7.477  10.101
22370TIP3    H266988   3.624   7.368  10.150
22371TIP3   OH266989   3.584   6.721   9.368
22371TIP3    H166990   3.642   6.781   9.421
22371TIP3    H266991   3.609   6.747   9.276
22372TIP3   OH266992   3.324   7.406   9.646
22372TIP3    H166993   3.403   7.460   9.662
22372TIP3    H266994   3.264   7.467   9.602
22373TIP3   OH266995   4.098   5.964   9.415
22373TIP3    H166996   4.017   5.984   9.467
22373TIP3    H266997   4.109   6.049   9.366
22374TIP3   OH266998   2.841   6.705   9.761
22374TIP3    H166999   2.773   6.744   9.702
22374TIP3    H267000   2.794   6.628   9.795
22375TIP3   OH267001   3.895   7.332   8.962
22375TIP3    H167002   3.903   7.429   8.950
22375TIP3    H267003   3.988   7.303   8.950
22376TIP3   OH267004   3.199   7.652   9.439
22376TIP3    H167005   3.162   7.620   9.355
22376TIP3    H267006   3.154   7.737   9.451
22377TIP3   OH267007   3.409   7.551   9.085
22377TIP3    H167008   3.467   7.480   9.049
22377TIP3    H267009   3.441   7.557   9.178
22378TIP3   OH267010   3.457   7.598   9.357
22378TIP3    H167011   3.368   7.607   9.399
22378TIP3    H267012   3.507   7.555   9.428
22379TIP3   OH267013   3.659   6.772   9.112
22379TIP3    H167014   3.625   6.744   9.025
22379TIP3    H267015   3.738   6.823   9.086
22380TIP3   OH267016   3.375   6.145   9.411
22380TIP3    H167017   3.343   6.141   9.503
22380TIP3    H267018   3.332   6.065   9.376
22381TIP3   OH267019   3.531   6.586   9.699
22381TIP3    H167020   3.477   6.658   9.658
22381TIP3    H267021   3.586   6.557   9.624
22382TIP3   OH267022   3.704   6.626   9.928
22382TIP3    H167023   3.630   6.644   9.867
22382TIP3    H267024   3.724   6.534   9.903
22383TIP3   OH267025   3.029   6.119   9.378
22383TIP3    H167026   3.024   6.116   9.476
22383TIP3    H267027   2.944   6.161   9.357
22384TIP3   OH267028   2.511   6.179   9.743
22384TIP3    H167029   2.594   6.183   9.693
22384TIP3    H267030   2.540   6.203   9.832
22385TIP3   OH267031   3.084   6.389   9.729
22385TIP3    H167032   3.171   6.392   9.689
22385TIP3    H267033   3.023   6.397   9.653
22386TIP3   OH267034   2.906   6.411   9.515
22386TIP3    H167035   2.830   6.365   9.475
22386TIP3    H267036   2.956   6.437   9.435
22387TIP3   OH267037   3.163   6.938   9.520
22387TIP3    H167038   3.093   6.869   9.509
22387TIP3    H267039   3.151   6.963   9.615
22388TIP3   OH267040   4.061   7.165  10.164
22388TIP3    H167041   4.098   7.222  10.093
22388TIP3    H267042   3.983   7.126  10.120
22389TIP3   OH267043   3.623   6.250   9.374
22389TIP3    H167044   3.527   6.231   9.386
22389TIP3    H267045   3.632   6.344   9.403
22390TIP3   OH267046   3.693   6.494   9.484
22390TIP3    H167047   3.790   6.500   9.500
22390TIP3    H267048   3.675   6.573   9.430
22391TIP3   OH267049   3.310   7.085   9.340
22391TIP3    H167050   3.264   7.172   9.348
22391TIP3    H267051   3.255   7.029   9.399
22392TIP3   OH267052   4.138   6.581   9.319
22392TIP3    H167053   4.074   6.536   9.258
22392TIP3    H267054   4.133   6.671   9.278
22393TIP3   OH267055   3.836   7.403   9.228
22393TIP3    H167056   3.809   7.334   9.290
22393TIP3    H267057   3.846   7.355   9.144
22394TIP3   OH267058   3.832   7.032  10.071
22394TIP3    H167059   3.742   6.998  10.075
22394TIP3    H267060   3.877   6.958  10.025
22395TIP3   OH267061   2.958   7.234   9.769
22395TIP3    H167062   2.962   7.322   9.727
22395TIP3    H267063   2.874   7.237   9.817
22396TIP3   OH267064   2.524   6.570   9.514
22396TIP3    H167065   2.574   6.650   9.541
22396TIP3    H267066   2.448   6.575   9.577
22397TIP3   OH267067   3.120   7.017   9.782
22397TIP3    H167068   3.074   7.103   9.772
22397TIP3    H267069   3.059   6.969   9.841
22398TIP3   OH267070   2.896   7.491   9.658
22398TIP3    H167071   2.826   7.507   9.725
22398TIP3    H267072   2.945   7.574   9.663
22399TIP3   OH267073   3.588   7.130   9.129
22399TIP3    H167074   3.640   7.105   9.209
22399TIP3    H267075   3.499   7.103   9.157
22400TIP3   OH267076   3.930   7.607   8.950
22400TIP3    H167077   3.967   7.680   8.898
22400TIP3    H267078   3.849   7.653   8.983
22401TIP3   OH267079   3.748   7.065   9.347
22401TIP3    H167080   3.738   6.999   9.418
22401TIP3    H267081   3.845   7.063   9.335
22402TIP3   OH267082   2.958   7.111   9.129
22402TIP3    H167083   2.970   7.020   9.098
22402TIP3    H267084   2.937   7.097   9.224
22403TIP3   OH267085   2.901   7.114   9.401
22403TIP3    H167086   2.970   7.086   9.464
22403TIP3    H267087   2.907   7.212   9.406
22404TIP3   OH267088   2.646   6.809   9.599
22404TIP3    H167089   2.575   6.844   9.657
22404TIP3    H267090   2.655   6.883   9.537
22405TIP3   OH267091   3.672   6.197   9.655
22405TIP3    H167092   3.651   6.224   9.564
22405TIP3    H267093   3.708   6.279   9.694
22406TIP3   OH267094   3.170   7.317   9.353
22406TIP3    H167095   3.080   7.341   9.382
22406TIP3    H267096   3.183   7.382   9.282
22407TIP3   OH267097   3.377   6.365   9.745
22407TIP3    H167098   3.436   6.442   9.730
22407TIP3    H267099   3.346   6.384   9.836
22408TIP3   OH267100   3.509   6.106   9.859
22408TIP3    H167101   3.505   6.176   9.925
22408TIP3    H267102   3.561   6.150   9.788
22409TIP3   OH267103   2.909   7.386   9.406
22409TIP3    H167104   2.879   7.457   9.344
22409TIP3    H267105   2.896   7.429   9.493
22410TIP3   OH267106   3.018   6.109   9.651
22410TIP3    H167107   3.002   6.178   9.717
22410TIP3    H267108   3.110   6.086   9.672
22411TIP3   OH267109   3.915   6.800   9.942
22411TIP3    H167110   3.839   6.738   9.951
22411TIP3    H267111   3.986   6.750   9.987
22412TIP3   OH267112   2.626   7.025   9.411
22412TIP3    H167113   2.693   7.094   9.417
22412TIP3    H267114   2.670   6.967   9.345
22413TIP3   OH267115   2.587   6.305   9.505
22413TIP3    H167116   2.572   6.399   9.523
22413TIP3    H267117   2.506   6.263   9.537
22414TIP3   OH267118   3.887   7.698   9.861
22414TIP3    H167119   3.846   7.760   9.798
22414TIP3    H267120   3.981   7.725   9.856
22415TIP3   OH267121   2.510   7.193   9.816
22415TIP3    H167122   2.423   7.224   9.845
22415TIP3    H267123   2.504   7.202   9.719
22416TIP3   OH267124   3.121   7.316   9.045
22416TIP3    H167125   3.063   7.245   9.082
22416TIP3    H267126   3.194   7.262   9.011
22417TIP3   OH267127   3.557   7.359   8.954
22417TIP3    H167128   3.601   7.294   9.011
22417TIP3    H267129   3.613   7.359   8.874
22418TIP3   OH267130   2.762   6.837   9.261
22418TIP3    H167131   2.811   6.796   9.334
22418TIP3    H267132   2.832   6.839   9.192
22419TIP3   OH267133   3.272   7.031   9.069
22419TIP3    H167134   3.273   7.044   9.166
22419TIP3    H267135   3.271   6.933   9.064
22420TIP3   OH267136   2.980   6.734   9.491
22420TIP3    H167137   2.942   6.690   9.570
22420TIP3    H267138   3.009   6.656   9.439
22421TIP3   OH267139   3.071   6.529   9.325
22421TIP3    H167140   3.044   6.528   9.231
22421TIP3    H267141   3.169   6.537   9.316
22422TIP3   OH267142   3.898   6.862   8.986
22422TIP3    H167143   3.873   6.814   8.904
22422TIP3    H267144   3.865   6.952   8.961
22423TIP3   OH267145   2.879   7.594   9.230
22423TIP3    H167146   2.975   7.595   9.211
22423TIP3    H267147   2.847   7.640   9.150
22424TIP3   OH267148   2.352   6.976   9.438
22424TIP3    H167149   2.448   6.998   9.434
22424TIP3    H267150   2.352   6.885   9.402
22425TIP3   OH267151   4.128   7.837   9.851
22425TIP3    H167152   4.184   7.882   9.916
22425TIP3    H267153   4.149   7.888   9.772
22426TIP3   OH267154   4.029   7.048   9.322
22426TIP3    H167155   4.099   7.111   9.296
22426TIP3    H267156   4.070   7.008   9.402
22427TIP3   OH267157   4.156   6.916   9.526
22427TIP3    H167158   4.090   6.872   9.584
22427TIP3    H267159   4.217   6.956   9.590
22428TIP3   OH267160   4.185   7.294   9.953
22428TIP3    H167161   4.260   7.240   9.919
22428TIP3    H267162   4.188   7.372   9.894
22429TIP3   OH267163   4.049   7.628  10.123
22429TIP3    H167164   3.988   7.632  10.197
22429TIP3    H267165   4.013   7.553  10.072
22430TIP3   OH267166   4.095   6.824   9.172
22430TIP3    H167167   4.023   6.826   9.105
22430TIP3    H267168   4.068   6.899   9.228
22431TIP3   OH267169   3.968   6.496   9.126
22431TIP3    H167170   3.922   6.536   9.051
22431TIP3    H267171   3.941   6.402   9.116
22432TIP3   OH267172   3.972   6.771   9.673
22432TIP3    H167173   3.977   6.674   9.669
22432TIP3    H267174   3.957   6.786   9.769
22433TIP3   OH267175   3.910   6.230   9.113
22433TIP3    H167176   3.984   6.200   9.170
22433TIP3    H267177   3.836   6.173   9.140
22434TIP3   OH267178   3.966   6.488   9.568
22434TIP3    H167179   4.005   6.399   9.584
22434TIP3    H267180   4.026   6.520   9.498
22435TIP3   OH267181   4.130   6.669  10.050
22435TIP3    H167182   4.220   6.694  10.021
22435TIP3    H267183   4.133   6.694  10.143
22436TIP3   OH267184   4.076   6.238   9.602
22436TIP3    H167185   4.124   6.222   9.687
22436TIP3    H267186   4.015   6.162   9.602
22437TIP3   OH267187   4.159   6.174   9.236
22437TIP3    H167188   4.198   6.101   9.185
22437TIP3    H267189   4.226   6.244   9.228
22438TIP3   OH267190   3.726   7.697   9.504
22438TIP3    H167191   3.775   7.680   9.420
22438TIP3    H267192   3.771   7.775   9.538
22439TIP3   OH267193   4.153   6.116  10.057
22439TIP3    H167194   4.191   6.158   9.977
22439TIP3    H267195   4.058   6.123  10.038
22440TIP3   OH267196   4.245   6.196   9.816
22440TIP3    H167197   4.320   6.148   9.775
22440TIP3    H267198   4.276   6.289   9.805
22441TIP3   OH267199   3.883   6.102   9.998
22441TIP3    H167200   3.855   6.096   9.906
22441TIP3    H267201   3.886   6.008  10.024
22442TIP3   OH267202   3.894   6.025   9.594
22442TIP3    H167203   3.806   6.067   9.604
22442TIP3    H267204   3.879   5.939   9.638
22443TIP3   OH267205   2.371   7.316   9.596
22443TIP3    H167206   2.287   7.301   9.550
22443TIP3    H267207   2.388   7.408   9.569
22444TIP3   OH267208   2.774   5.978   9.553
22444TIP3    H167209   2.821   5.895   9.537
22444TIP3    H267210   2.833   6.017   9.620
22445TIP3   OH267211   3.298   6.117   9.676
22445TIP3    H167212   3.358   6.084   9.746
22445TIP3    H267213   3.309   6.213   9.693
22446TIP3   OH267214   3.149   7.553   9.180
22446TIP3    H167215   3.236   7.576   9.141
22446TIP3    H267216   3.125   7.479   9.120
22447TIP3   OH267217   3.868   7.670   9.269
22447TIP3    H167218   3.859   7.572   9.256
22447TIP3    H267219   3.822   7.703   9.189
22448TIP3   OH267220   2.449   7.382   9.236
22448TIP3    H167221   2.458   7.446   9.309
22448TIP3    H267222   2.540   7.345   9.229
22449TIP3   OH267223   5.360   7.187   9.226
22449TIP3    H167224   5.333   7.279   9.207
22449TIP3    H267225   5.282   7.138   9.194
22450TIP3   OH267226   5.353   7.188   9.605
22450TIP3    H167227   5.381   7.162   9.695
22450TIP3    H267228   5.314   7.106   9.572
22451TIP3   OH267229   4.661   7.082   9.964
22451TIP3    H167230   4.667   7.055  10.056
22451TIP3    H267231   4.741   7.134   9.949
22452TIP3   OH267232   5.598   7.485   9.283
22452TIP3    H167233   5.592   7.417   9.351
22452TIP3    H267234   5.630   7.561   9.336
22453TIP3   OH267235   4.630   7.493   9.707
22453TIP3    H167236   4.621   7.396   9.705
22453TIP3    H267237   4.725   7.501   9.686
22454TIP3   OH267238   4.337   6.700   9.484
22454TIP3    H167239   4.284   6.781   9.497
22454TIP3    H267240   4.268   6.640   9.452
22455TIP3   OH267241   4.399   6.985   9.650
22455TIP3    H167242   4.445   6.907   9.690
22455TIP3    H267243   4.452   7.000   9.571
22456TIP3   OH267244   5.256   7.954   9.305
22456TIP3    H167245   5.300   7.883   9.255
22456TIP3    H267246   5.238   7.910   9.389
22457TIP3   OH267247   5.157   7.410   9.657
22457TIP3    H167248   5.191   7.332   9.610
22457TIP3    H267249   5.242   7.454   9.677
22458TIP3   OH267250   6.170   6.744   9.655
22458TIP3    H167251   6.161   6.837   9.680
22458TIP3    H267252   6.192   6.753   9.560
22459TIP3   OH267253   5.571   6.916   9.690
22459TIP3    H167254   5.613   6.829   9.705
22459TIP3    H267255   5.538   6.904   9.599
22460TIP3   OH267256   4.905   6.574   9.653
22460TIP3    H167257   4.883   6.646   9.590
22460TIP3    H267258   4.858   6.499   9.610
22461TIP3   OH267259   5.599   6.664   9.278
22461TIP3    H167260   5.672   6.647   9.342
22461TIP3    H267261   5.651   6.700   9.203
22462TIP3   OH267262   4.542   6.779   9.759
22462TIP3    H167263   4.622   6.753   9.807
22462TIP3    H267264   4.549   6.720   9.681
22463TIP3   OH267265   4.982   6.974   9.550
22463TIP3    H167266   5.075   6.947   9.563
22463TIP3    H267267   4.941   6.890   9.519
22464TIP3   OH267268   4.906   6.559  10.090
22464TIP3    H167269   4.844   6.593  10.022
22464TIP3    H267270   4.847   6.547  10.166
22465TIP3   OH267271   5.256   7.411   9.094
22465TIP3    H167272   5.208   7.382   9.016
22465TIP3    H267273   5.209   7.493   9.116
22466TIP3   OH267274   4.992   7.332   9.885
22466TIP3    H167275   4.938   7.406   9.913
22466TIP3    H267276   5.054   7.373   9.822
22467TIP3   OH267277   5.814   6.665   9.445
22467TIP3    H167278   5.807   6.615   9.528
22467TIP3    H267279   5.865   6.743   9.473
22468TIP3   OH267280   4.776   6.672   9.873
22468TIP3    H167281   4.842   6.743   9.888
22468TIP3    H267282   4.818   6.626   9.797
22469TIP3   OH267283   4.236   7.214   9.216
22469TIP3    H167284   4.191   7.240   9.134
22469TIP3    H267285   4.263   7.301   9.253
22470TIP3   OH267286   5.666   7.704   9.434
22470TIP3    H167287   5.585   7.704   9.490
22470TIP3    H267288   5.665   7.797   9.404
22471TIP3   OH267289   5.956   6.625   9.805
22471TIP3    H167290   5.873   6.667   9.778
22471TIP3    H267291   6.022   6.666   9.746
22472TIP3   OH267292   5.264   6.276   9.803
22472TIP3    H167293   5.248   6.180   9.820
22472TIP3    H267294   5.184   6.313   9.847
22473TIP3   OH267295   5.374   7.781   9.129
22473TIP3    H167296   5.424   7.698   9.112
22473TIP3    H267297   5.436   7.845   9.087
22474TIP3   OH267298   5.519   7.565   9.033
22474TIP3    H167299   5.474   7.487   8.999
22474TIP3    H267300   5.553   7.531   9.119
22475TIP3   OH267301   5.190   7.039   9.055
22475TIP3    H167302   5.108   7.088   9.032
22475TIP3    H267303   5.235   7.035   8.969
22476TIP3   OH267304   5.149   6.822   8.775
22476TIP3    H167305   5.218   6.871   8.823
22476TIP3    H267306   5.204   6.757   8.727
22477TIP3   OH267307   6.093   7.261   9.633
22477TIP3    H167308   6.016   7.322   9.646
22477TIP3    H267309   6.130   7.299   9.550
22478TIP3   OH267310   5.537   7.122   9.029
22478TIP3    H167311   5.482   7.146   9.107
22478TIP3    H267312   5.620   7.094   9.074
22479TIP3   OH267313   4.769   7.120   9.443
22479TIP3    H167314   4.726   7.062   9.377
22479TIP3    H267315   4.846   7.066   9.472
22480TIP3   OH267316   4.894   7.524   9.595
22480TIP3    H167317   4.877   7.482   9.510
22480TIP3    H267318   4.986   7.495   9.613
22481TIP3   OH267319   4.915   7.085   9.801
22481TIP3    H167320   4.941   7.071   9.707
22481TIP3    H267321   4.951   7.174   9.820
22482TIP3   OH267322   5.438   7.722   9.576
22482TIP3    H167323   5.402   7.802   9.619
22482TIP3    H267324   5.416   7.650   9.638
22483TIP3   OH267325   5.380   6.978   8.855
22483TIP3    H167326   5.438   7.037   8.908
22483TIP3    H267327   5.405   7.004   8.763
22484TIP3   OH267328   5.119   7.659   9.130
22484TIP3    H167329   5.197   7.715   9.149
22484TIP3    H267330   5.057   7.721   9.091
22485TIP3   OH267331   5.894   6.221   8.902
22485TIP3    H167332   5.813   6.239   8.954
22485TIP3    H267333   5.905   6.305   8.853
22486TIP3   OH267334   4.635   6.962   9.251
22486TIP3    H167335   4.570   7.007   9.193
22486TIP3    H267336   4.594   6.876   9.264
22487TIP3   OH267337   5.691   7.589   8.450
22487TIP3    H167338   5.699   7.686   8.436
22487TIP3    H267339   5.783   7.559   8.435
22488TIP3   OH267340   4.267   7.536   9.788
22488TIP3    H167341   4.362   7.531   9.776
22488TIP3    H267342   4.254   7.614   9.844
22489TIP3   OH267343   5.003   7.908   8.929
22489TIP3    H167344   4.954   7.885   8.849
22489TIP3    H267345   4.967   7.995   8.953
22490TIP3   OH267346   4.440   7.755   9.313
22490TIP3    H167347   4.487   7.745   9.399
22490TIP3    H267348   4.379   7.679   9.317
22491TIP3   OH267349   5.206   7.808   8.573
22491TIP3    H167350   5.263   7.737   8.536
22491TIP3    H267351   5.237   7.813   8.665
22492TIP3   OH267352   5.255   7.854   8.845
22492TIP3    H167353   5.165   7.864   8.883
22492TIP3    H267354   5.300   7.806   8.916
22493TIP3   OH267355   5.022   6.355   9.919
22493TIP3    H167356   4.931   6.323   9.899
22493TIP3    H267357   5.000   6.435   9.970
22494TIP3   OH267358   5.455   7.030   8.599
22494TIP3    H167359   5.421   7.001   8.512
22494TIP3    H267360   5.535   7.079   8.572
22495TIP3   OH267361   5.169   6.402   8.899
22495TIP3    H167362   5.136   6.401   8.991
22495TIP3    H267363   5.130   6.319   8.867
22496TIP3   OH267364   4.959   6.865   9.947
22496TIP3    H167365   4.910   6.891  10.025
22496TIP3    H267366   4.944   6.944   9.888
22497TIP3   OH267367   4.836   6.754   9.461
22497TIP3    H167368   4.744   6.727   9.478
22497TIP3    H267369   4.850   6.713   9.373
22498TIP3   OH267370   5.328   6.841   9.189
22498TIP3    H167371   5.273   6.912   9.148
22498TIP3    H267372   5.381   6.811   9.113
22499TIP3   OH267373   5.485   6.870   9.430
22499TIP3    H167374   5.427   6.900   9.357
22499TIP3    H267375   5.518   6.787   9.389
22500TIP3   OH267376   4.823   6.374   8.866
22500TIP3    H167377   4.815   6.370   8.964
22500TIP3    H267378   4.742   6.424   8.843
22501TIP3   OH267379   4.363   6.423   9.732
22501TIP3    H167380   4.439   6.451   9.788
22501TIP3    H267381   4.406   6.384   9.654
22502TIP3   OH267382   4.343   6.401   9.256
22502TIP3    H167383   4.387   6.441   9.178
22502TIP3    H267384   4.280   6.473   9.279
22503TIP3   OH267385   5.472   7.116   9.844
22503TIP3    H167386   5.521   7.049   9.792
22503TIP3    H267387   5.502   7.097   9.933
22504TIP3   OH267388   5.162   6.578   9.524
22504TIP3    H167389   5.079   6.573   9.575
22504TIP3    H267390   5.228   6.577   9.595
22505TIP3   OH267391   4.599   6.631   9.531
22505TIP3    H167392   4.504   6.638   9.506
22505TIP3    H267393   4.621   6.539   9.509
22506TIP3   OH267394   4.871   6.630   9.219
22506TIP3    H167395   4.965   6.644   9.197
22506TIP3    H267396   4.823   6.652   9.136
22507TIP3   OH267397   5.652   6.654   9.717
22507TIP3    H167398   5.620   6.660   9.810
22507TIP3    H267399   5.592   6.587   9.681
22508TIP3   OH267400   4.707   6.662   9.000
22508TIP3    H167401   4.633   6.617   8.954
22508TIP3    H267402   4.758   6.695   8.923
22509TIP3   OH267403   5.248   6.903   9.617
22509TIP3    H167404   5.320   6.864   9.565
22509TIP3    H267405   5.260   6.861   9.704
22510TIP3   OH267406   4.774   6.392   9.498
22510TIP3    H167407   4.739   6.312   9.543
22510TIP3    H267408   4.825   6.353   9.425
22511TIP3   OH267409   5.223   6.788   9.900
22511TIP3    H167410   5.130   6.819   9.914
22511TIP3    H267411   5.273   6.845   9.958
22512TIP3   OH267412   4.961   7.193   9.005
22512TIP3    H167413   4.889   7.126   8.995
22512TIP3    H267414   4.944   7.225   9.097
22513TIP3   OH267415   5.862   7.413   9.644
22513TIP3    H167416   5.891   7.467   9.566
22513TIP3    H267417   5.776   7.378   9.611
22514TIP3   OH267418   5.419   6.506   8.863
22514TIP3    H167419   5.323   6.489   8.873
22514TIP3    H267420   5.429   6.600   8.889
22515TIP3   OH267421   5.490   6.750   8.970
22515TIP3    H167422   5.586   6.756   8.986
22515TIP3    H267423   5.472   6.830   8.916
22516TIP3   OH267424   4.661   7.219   9.683
22516TIP3    H167425   4.693   7.187   9.597
22516TIP3    H267426   4.681   7.143   9.741
22517TIP3   OH267427   5.106   7.342   8.826
22517TIP3    H167428   5.059   7.428   8.834
22517TIP3    H267429   5.051   7.286   8.885
22518TIP3   OH267430   5.933   6.838   8.806
22518TIP3    H167431   5.870   6.792   8.746
22518TIP3    H267432   5.929   6.927   8.765
22519TIP3   OH267433   5.637   7.659   8.717
22519TIP3    H167434   5.604   7.592   8.779
22519TIP3    H267435   5.641   7.611   8.632
22520TIP3   OH267436   5.618   7.291   9.554
22520TIP3    H167437   5.527   7.258   9.565
22520TIP3    H267438   5.660   7.214   9.512
22521TIP3   OH267439   4.752   7.516   9.306
22521TIP3    H167440   4.754   7.598   9.254
22521TIP3    H267441   4.657   7.500   9.314
22522TIP3   OH267442   4.316   6.822   9.008
22522TIP3    H167443   4.362   6.905   9.029
22522TIP3    H267444   4.239   6.827   9.069
22523TIP3   OH267445   4.897   7.285   9.253
22523TIP3    H167446   4.859   7.373   9.270
22523TIP3    H267447   4.858   7.233   9.326
22524TIP3   OH267448   5.025   7.852   9.761
22524TIP3    H167449   5.055   7.934   9.719
22524TIP3    H267450   5.091   7.839   9.830
22525TIP3   OH267451   4.674   7.755   9.159
22525TIP3    H167452   4.588   7.761   9.205
22525TIP3    H267453   4.704   7.848   9.162
22526TIP3   OH267454   5.418   7.498   9.739
22526TIP3    H167455   5.435   7.482   9.832
22526TIP3    H267456   5.487   7.445   9.696
22527TIP3   OH267457   5.384   7.389   8.616
22527TIP3    H167458   5.436   7.362   8.695
22527TIP3    H267459   5.295   7.360   8.644
22528TIP3   OH267460   5.728   7.866   8.437
22528TIP3    H167461   5.760   7.941   8.384
22528TIP3    H267462   5.645   7.906   8.471
22529TIP3   OH267463   5.544   7.322   8.832
22529TIP3    H167464   5.533   7.256   8.904
22529TIP3    H267465   5.641   7.320   8.822
22530TIP3   OH267466   4.467   7.747   9.951
22530TIP3    H167467   4.481   7.653   9.935
22530TIP3    H267468   4.534   7.764  10.018
22531TIP3   OH267469   4.754   7.369   8.615
22531TIP3    H167470   4.766   7.277   8.585
22531TIP3    H267471   4.735   7.355   8.710
22532TIP3   OH267472   4.699   7.373   8.887
22532TIP3    H167473   4.767   7.344   8.950
22532TIP3    H267474   4.704   7.471   8.896
22533TIP3   OH267475   4.436   7.068   9.091
22533TIP3    H167476   4.369   7.111   9.148
22533TIP3    H267477   4.449   7.138   9.024
22534TIP3   OH267478   5.582   6.693   9.979
22534TIP3    H167479   5.652   6.743  10.024
22534TIP3    H267480   5.548   6.636  10.048
22535TIP3   OH267481   5.460   6.458   9.146
22535TIP3    H167482   5.447   6.482   9.052
22535TIP3    H267483   5.500   6.539   9.183
22536TIP3   OH267484   4.965   7.573   8.839
22536TIP3    H167485   4.877   7.600   8.874
22536TIP3    H267486   4.977   7.639   8.770
22537TIP3   OH267487   5.154   6.633   9.250
22537TIP3    H167488   5.219   6.705   9.233
22537TIP3    H267489   5.157   6.627   9.348
22538TIP3   OH267490   5.298   6.366   9.356
22538TIP3    H167491   5.290   6.443   9.414
22538TIP3    H267492   5.358   6.401   9.286
22539TIP3   OH267493   4.707   7.647   8.903
22539TIP3    H167494   4.675   7.716   8.841
22539TIP3    H267495   4.689   7.690   8.990
22540TIP3   OH267496   4.808   6.358   9.143
22540TIP3    H167497   4.804   6.449   9.179
22540TIP3    H267498   4.903   6.340   9.151
22541TIP3   OH267499   5.712   7.049   9.426
22541TIP3    H167500   5.637   6.989   9.440
22541TIP3    H267501   5.785   7.002   9.472
22542TIP3   OH267502   4.424   7.279   8.898
22542TIP3    H167503   4.487   7.353   8.906
22542TIP3    H267504   4.470   7.226   8.831
22543TIP3   OH267505   4.372   6.553   9.029
22543TIP3    H167506   4.367   6.650   9.025
22543TIP3    H267507   4.286   6.527   8.993
22544TIP3   OH267508   5.647   7.973   9.363
22544TIP3    H167509   5.617   8.035   9.294
22544TIP3    H267510   5.739   8.002   9.376
22545TIP3   OH267511   4.758   6.278   9.904
22545TIP3    H167512   4.725   6.242   9.818
22545TIP3    H267513   4.748   6.199   9.962
22546TIP3   OH267514   4.299   7.494   9.289
22546TIP3    H167515   4.222   7.523   9.339
22546TIP3    H267516   4.277   7.531   9.201
22547TIP3   OH267517   4.917   7.573   8.532
22547TIP3    H167518   4.859   7.502   8.569
22547TIP3    H267519   4.990   7.519   8.497
22548TIP3   OH267520   5.354   7.617   8.441
22548TIP3    H167521   5.395   7.548   8.497
22548TIP3    H267522   5.408   7.614   8.360
22549TIP3   OH267523   4.560   7.092   8.748
22549TIP3    H167524   4.612   7.055   8.820
22549TIP3    H267525   4.628   7.095   8.677
22550TIP3   OH267526   5.069   7.288   8.556
22550TIP3    H167527   5.069   7.301   8.653
22550TIP3    H267528   5.067   7.190   8.551
22551TIP3   OH267529   4.772   6.992   8.975
22551TIP3    H167530   4.742   6.949   9.056
22551TIP3    H267531   4.805   6.915   8.923
22552TIP3   OH267532   4.867   6.785   8.813
22552TIP3    H167533   4.840   6.785   8.719
22552TIP3    H267534   4.964   6.792   8.805
22553TIP3   OH267535   5.694   7.120   8.472
22553TIP3    H167536   5.670   7.070   8.391
22553TIP3    H267537   5.660   7.209   8.447
22554TIP3   OH267538   5.171   6.626  10.138
22554TIP3    H167539   5.192   6.654  10.048
22554TIP3    H267540   5.078   6.596  10.128
22555TIP3   OH267541   4.675   7.851   8.717
22555TIP3    H167542   4.770   7.848   8.695
22555TIP3    H267543   4.641   7.895   8.638
22556TIP3   OH267544   4.155   7.230   8.934
22556TIP3    H167545   4.250   7.251   8.921
22556TIP3    H267546   4.150   7.141   8.892
22557TIP3   OH267547   4.069   7.843   9.346
22557TIP3    H167548   4.001   7.781   9.311
22557TIP3    H267549   4.113   7.787   9.413
22558TIP3   OH267550   4.204   7.698   9.534
22558TIP3    H167551   4.193   7.621   9.591
22558TIP3    H267552   4.258   7.756   9.591
22559TIP3   OH267553   5.825   7.306   8.809
22559TIP3    H167554   5.898   7.366   8.784
22559TIP3    H267555   5.863   7.263   8.889
22560TIP3   OH267556   5.950   7.174   9.012
22560TIP3    H167557   5.885   7.130   9.071
22560TIP3    H267558   6.014   7.213   9.075
22561TIP3   OH267559   5.976   7.547   9.437
22561TIP3    H167560   6.056   7.507   9.400
22561TIP3    H267561   5.971   7.634   9.397
22562TIP3   OH267562   5.892   7.081   8.659
22562TIP3    H167563   5.820   7.083   8.592
22562TIP3    H267564   5.863   7.156   8.715
22563TIP3   OH267565   5.762   6.754   8.613
22563TIP3    H167566   5.719   6.791   8.535
22563TIP3    H267567   5.737   6.659   8.605
22564TIP3   OH267568   5.768   7.027   9.158
22564TIP3    H167569   5.775   6.930   9.155
22564TIP3    H267570   5.754   7.043   9.254
22565TIP3   OH267571   4.395   7.117   9.894
22565TIP3    H167572   4.390   7.079   9.804
22565TIP3    H267573   4.490   7.106   9.914
22566TIP3   OH267574   5.705   6.488   8.602
22566TIP3    H167575   5.781   6.457   8.655
22566TIP3    H267576   5.633   6.429   8.627
22567TIP3   OH267577   5.762   6.744   9.055
22567TIP3    H167578   5.802   6.655   9.071
22567TIP3    H267579   5.822   6.776   8.985
22568TIP3   OH267580   5.925   6.914   9.539
22568TIP3    H167581   6.013   6.942   9.504
22568TIP3    H267582   5.929   6.957   9.627
22569TIP3   OH267583   5.970   7.057   9.767
22569TIP3    H167584   5.938   7.096   9.849
22569TIP3    H267585   6.017   7.133   9.726
22570TIP3   OH267586   5.872   6.494   9.091
22570TIP3    H167587   5.920   6.478   9.175
22570TIP3    H267588   5.811   6.416   9.090
22571TIP3   OH267589   4.572   6.481   9.900
22571TIP3    H167590   4.632   6.405   9.917
22571TIP3    H267591   4.634   6.555   9.904
22572TIP3   OH267592   4.383   6.749   9.991
22572TIP3    H167593   4.429   6.758   9.905
22572TIP3    H267594   4.386   6.839  10.028
22573TIP3   OH267595   5.955   6.431   8.722
22573TIP3    H167596   5.994   6.357   8.673
22573TIP3    H267597   6.023   6.500   8.715
22574TIP3   OH267598   4.358   6.259   9.486
22574TIP3    H167599   4.264   6.257   9.511
22574TIP3    H267600   4.356   6.317   9.406
22575TIP3   OH267601   5.522   7.963   8.993
22575TIP3    H167602   5.563   7.940   8.907
22575TIP3    H267603   5.585   8.027   9.028
22576TIP3   OH267604   4.693   8.008   9.792
22576TIP3    H167605   4.636   8.060   9.850
22576TIP3    H267606   4.694   8.061   9.710
22577TIP3   OH267607   5.117   8.073   9.605
22577TIP3    H167608   5.050   8.081   9.533
22577TIP3    H267609   5.100   8.153   9.656
22578TIP3   OH267610   5.359   7.965   9.666
22578TIP3    H167611   5.270   7.994   9.639
22578TIP3    H267612   5.409   8.047   9.656
22579TIP3   OH267613   4.384   7.842   9.693
22579TIP3    H167614   4.415   7.824   9.784
22579TIP3    H267615   4.459   7.807   9.641
22580TIP3   OH267616   4.578   7.719   9.546
22580TIP3    H167617   4.596   7.636   9.595
22580TIP3    H267618   4.667   7.761   9.544
22581TIP3   OH267619   4.843   7.817   9.546
22581TIP3    H167620   4.877   7.726   9.536
22581TIP3    H267621   4.875   7.837   9.636
22582TIP3   OH267622   5.420   6.471   9.641
22582TIP3    H167623   5.375   6.400   9.691
22582TIP3    H267624   5.490   6.422   9.594
22583TIP3   OH267625   5.947   6.346   9.541
22583TIP3    H167626   5.981   6.402   9.468
22583TIP3    H267627   5.852   6.369   9.542
22584TIP3   OH267628   6.039   6.455   9.307
22584TIP3    H167629   6.112   6.403   9.267
22584TIP3    H267630   6.073   6.547   9.292
22585TIP3   OH267631   4.670   6.181   9.655
22585TIP3    H167632   4.578   6.147   9.656
22585TIP3    H267633   4.720   6.097   9.654
22586TIP3   OH267634   4.455   6.049   9.303
22586TIP3    H167635   4.483   6.108   9.231
22586TIP3    H267636   4.424   6.112   9.370
22587TIP3   OH267637   5.110   6.213   9.534
22587TIP3    H167638   5.172   6.265   9.480
22587TIP3    H267639   5.127   6.249   9.622
22588TIP3   OH267640   5.660   6.359   9.521
22588TIP3    H167641   5.658   6.322   9.432
22588TIP3    H267642   5.647   6.278   9.576
22589TIP3   OH267643   5.689   6.280   9.081
22589TIP3    H167644   5.601   6.321   9.092
22589TIP3    H267645   5.675   6.195   9.130
22590TIP3   OH267646   4.173   7.617   9.084
22590TIP3    H167647   4.088   7.584   9.049
22590TIP3    H267648   4.160   7.712   9.071
22591TIP3   OH267649   4.570   6.211   9.066
22591TIP3    H167650   4.619   6.147   9.011
22591TIP3    H267651   4.643   6.264   9.104
22592TIP3   OH267652   5.085   6.383   9.165
22592TIP3    H167653   5.143   6.335   9.227
22592TIP3    H267654   5.107   6.475   9.191
22593TIP3   OH267655   4.944   7.812   8.664
22593TIP3    H167656   5.032   7.833   8.628
22593TIP3    H267657   4.921   7.736   8.606
22594TIP3   OH267658   5.660   7.926   8.755
22594TIP3    H167659   5.654   7.828   8.744
22594TIP3    H267660   5.613   7.957   8.675
22595TIP3   OH267661   4.249   7.650   8.724
22595TIP3    H167662   4.244   7.674   8.817
22595TIP3    H267663   4.337   7.607   8.717
22596TIP3   OH267664   6.132   6.958   8.970
22596TIP3    H167665   6.078   7.038   8.983
22596TIP3    H267666   6.064   6.896   8.938
22597TIP3   OH267667   6.194   7.244   9.132
22597TIP3    H167668   6.234   7.165   9.175
22597TIP3    H267669   6.248   7.253   9.053
22598TIP3   OH267670   6.690   6.832   9.143
22598TIP3    H167671   6.678   6.901   9.075
22598TIP3    H267672   6.648   6.755   9.098
22599TIP3   OH267673   7.400   6.874   8.743
22599TIP3    H167674   7.391   6.893   8.838
22599TIP3    H267675   7.390   6.961   8.704
22600TIP3   OH267676   6.331   7.038   9.241
22600TIP3    H167677   6.412   7.016   9.291
22600TIP3    H267678   6.341   6.977   9.165
22601TIP3   OH267679   6.766   7.229   9.026
22601TIP3    H167680   6.855   7.202   9.055
22601TIP3    H267681   6.726   7.142   9.002
22602TIP3   OH267682   6.703   6.810   9.535
22602TIP3    H167683   6.632   6.858   9.490
22602TIP3    H267684   6.690   6.833   9.629
22603TIP3   OH267685   6.563   6.952   9.352
22603TIP3    H167686   6.622   7.026   9.374
22603TIP3    H267687   6.615   6.905   9.282
22604TIP3   OH267688   6.034   7.471   8.701
22604TIP3    H167689   5.983   7.495   8.622
22604TIP3    H267690   6.057   7.557   8.740
22605TIP3   OH267691   7.058   6.540   9.273
22605TIP3    H167692   7.058   6.446   9.300
22605TIP3    H267693   6.984   6.574   9.327
22606TIP3   OH267694   6.976   7.293   8.530
22606TIP3    H167695   6.898   7.340   8.496
22606TIP3    H267696   7.036   7.292   8.453
22607TIP3   OH267697   6.940   7.075   8.259
22607TIP3    H167698   7.016   7.114   8.305
22607TIP3    H267699   6.980   6.995   8.221
22608TIP3   OH267700   6.577   7.387   8.917
22608TIP3    H167701   6.525   7.325   8.860
22608TIP3    H267702   6.644   7.326   8.955
22609TIP3   OH267703   7.167   7.260   8.337
22609TIP3    H167704   7.250   7.276   8.382
22609TIP3    H267705   7.192   7.271   8.242
22610TIP3   OH267706   7.690   6.477   8.389
22610TIP3    H167707   7.609   6.495   8.441
22610TIP3    H267708   7.696   6.559   8.335
22611TIP3   OH267709   6.429   7.226   8.745
22611TIP3    H167710   6.362   7.261   8.683
22611TIP3    H267711   6.400   7.134   8.755
22612TIP3   OH267712   6.234   7.999   8.783
22612TIP3    H167713   6.240   8.022   8.879
22612TIP3    H267714   6.182   7.917   8.788
22613TIP3   OH267715   6.982   8.015   8.069
22613TIP3    H167716   7.035   7.955   8.012
22613TIP3    H267717   7.056   8.058   8.116
22614TIP3   OH267718   6.823   6.607   9.408
22614TIP3    H167719   6.737   6.570   9.382
22614TIP3    H267720   6.790   6.688   9.454
22615TIP3   OH267721   7.255   7.307   8.089
22615TIP3    H167722   7.214   7.257   8.015
22615TIP3    H267723   7.342   7.326   8.050
22616TIP3   OH267724   6.958   6.664   8.382
22616TIP3    H167725   6.935   6.658   8.476
22616TIP3    H267726   6.928   6.577   8.351
22617TIP3   OH267727   6.627   7.010   8.947
22617TIP3    H167728   6.537   6.977   8.965
22617TIP3    H267729   6.644   6.968   8.859
22618TIP3   OH267730   7.100   7.082   8.657
22618TIP3    H167731   7.054   7.161   8.620
22618TIP3    H267732   7.158   7.055   8.582
22619TIP3   OH267733   6.614   6.624   8.354
22619TIP3    H167734   6.611   6.623   8.451
22619TIP3    H267735   6.535   6.677   8.332
22620TIP3   OH267736   6.162   6.681   9.221
22620TIP3    H167737   6.239   6.707   9.275
22620TIP3    H267738   6.202   6.639   9.142
22621TIP3   OH267739   6.139   6.657   8.743
22621TIP3    H167740   6.184   6.696   8.666
22621TIP3    H267741   6.077   6.729   8.765
22622TIP3   OH267742   6.953   6.836   9.016
22622TIP3    H167743   6.873   6.831   9.070
22622TIP3    H267744   7.018   6.853   9.086
22623TIP3   OH267745   6.394   6.887   9.017
22623TIP3    H167746   6.299   6.891   8.991
22623TIP3    H267747   6.419   6.795   8.997
22624TIP3   OH267748   6.662   6.888   8.706
22624TIP3    H167749   6.758   6.894   8.691
22624TIP3    H267750   6.623   6.909   8.619
22625TIP3   OH267751   6.499   6.925   8.484
22625TIP3    H167752   6.429   6.875   8.439
22625TIP3    H267753   6.553   6.954   8.407
22626TIP3   OH267754   6.567   6.648   8.981
22626TIP3    H167755   6.536   6.568   9.028
22626TIP3    H267756   6.626   6.611   8.914
22627TIP3   OH267757   6.743   7.463   8.485
22627TIP3    H167758   6.682   7.386   8.478
22627TIP3    H267759   6.742   7.479   8.582
22628TIP3   OH267760   7.224   6.762   8.363
22628TIP3    H167761   7.139   6.723   8.335
22628TIP3    H267762   7.227   6.842   8.310
22629TIP3   OH267763   7.293   7.041   8.470
22629TIP3    H167764   7.386   7.008   8.476
22629TIP3    H267765   7.285   7.060   8.376
22630TIP3   OH267766   6.465   7.438   9.161
22630TIP3    H167767   6.488   7.420   9.069
22630TIP3    H267768   6.482   7.354   9.205
22631TIP3   OH267769   6.897   7.603   8.302
22631TIP3    H167770   6.863   7.689   8.334
22631TIP3    H267771   6.851   7.541   8.363
22632TIP3   OH267772   7.724   7.075   8.265
22632TIP3    H167773   7.651   7.034   8.213
22632TIP3    H267774   7.718   7.165   8.226
22633TIP3   OH267775   6.544   7.759   8.804
22633TIP3    H167776   6.567   7.849   8.776
22633TIP3    H267777   6.447   7.760   8.798
22634TIP3   OH267778   6.111   7.079   8.494
22634TIP3    H167779   6.159   7.161   8.518
22634TIP3    H267780   6.034   7.083   8.556
22635TIP3   OH267781   6.719   7.549   8.750
22635TIP3    H167782   6.660   7.627   8.762
22635TIP3    H267783   6.671   7.484   8.806
22636TIP3   OH267784   6.452   8.018   8.631
22636TIP3    H167785   6.365   8.004   8.676
22636TIP3    H267786   6.480   8.100   8.674
22637TIP3   OH267787   7.162   7.643   8.088
22637TIP3    H167788   7.218   7.615   8.162
22637TIP3    H267789   7.078   7.601   8.113
22638TIP3   OH267790   6.543   7.617   8.097
22638TIP3    H167791   6.557   7.524   8.069
22638TIP3    H267792   6.519   7.603   8.191
22639TIP3   OH267793   6.494   7.631   8.373
22639TIP3    H167794   6.564   7.589   8.426
22639TIP3    H267795   6.506   7.726   8.391
22640TIP3   OH267796   6.233   7.325   8.576
22640TIP3    H167797   6.165   7.366   8.635
22640TIP3    H267798   6.244   7.395   8.510
22641TIP3   OH267799   7.234   6.694   8.628
22641TIP3    H167800   7.224   6.720   8.534
22641TIP3    H267801   7.296   6.763   8.660
22642TIP3   OH267802   6.775   7.854   8.337
22642TIP3    H167803   6.681   7.875   8.358
22642TIP3    H267804   6.777   7.863   8.241
22643TIP3   OH267805   6.936   6.882   8.742
22643TIP3    H167806   7.002   6.951   8.716
22643TIP3    H267807   6.949   6.877   8.839
22644TIP3   OH267808   7.088   6.618   8.848
22644TIP3    H167809   7.086   6.696   8.906
22644TIP3    H267810   7.144   6.651   8.774
22645TIP3   OH267811   6.508   7.907   8.389
22645TIP3    H167812   6.472   7.969   8.321
22645TIP3    H267813   6.471   7.947   8.471
22646TIP3   OH267814   6.603   6.615   8.630
22646TIP3    H167815   6.601   6.704   8.669
22646TIP3    H267816   6.699   6.595   8.638
22647TIP3   OH267817   6.223   7.539   8.382
22647TIP3    H167818   6.298   7.600   8.394
22647TIP3    H267819   6.263   7.478   8.316
22648TIP3   OH267820   6.168   6.809   8.517
22648TIP3    H167821   6.162   6.907   8.511
22648TIP3    H267822   6.083   6.782   8.479
22649TIP3   OH267823   6.554   6.529   9.391
22649TIP3    H167824   6.521   6.495   9.305
22649TIP3    H267825   6.544   6.450   9.450
22650TIP3   OH267826   6.092   7.756   8.775
22650TIP3    H167827   6.015   7.778   8.830
22650TIP3    H267828   6.061   7.788   8.687
22651TIP3   OH267829   6.675   7.824   8.003
22651TIP3    H167830   6.658   7.737   8.047
22651TIP3    H267831   6.762   7.801   7.961
22652TIP3   OH267832   7.158   7.877   7.923
22652TIP3    H167833   7.179   7.793   7.968
22652TIP3    H267834   7.201   7.869   7.835
22653TIP3   OH267835   6.358   7.352   8.236
22653TIP3    H167836   6.406   7.304   8.306
22653TIP3    H267837   6.424   7.350   8.164
22654TIP3   OH267838   6.854   7.540   8.039
22654TIP3    H167839   6.860   7.551   8.136
22654TIP3    H267840   6.863   7.442   8.032
22655TIP3   OH267841   6.572   7.249   8.464
22655TIP3    H167842   6.540   7.200   8.541
22655TIP3    H267843   6.605   7.175   8.408
22656TIP3   OH267844   6.663   7.047   8.299
22656TIP3    H167845   6.638   7.035   8.206
22656TIP3    H267846   6.761   7.049   8.291
22657TIP3   OH267847   7.483   7.367   7.952
22657TIP3    H167848   7.456   7.320   7.871
22657TIP3    H267849   7.463   7.459   7.926
22658TIP3   OH267850   6.455   8.077   8.179
22658TIP3    H167851   6.551   8.098   8.172
22658TIP3    H267852   6.419   8.144   8.118
22659TIP3   OH267853   5.951   7.488   8.417
22659TIP3    H167854   6.047   7.506   8.406
22659TIP3    H267855   5.944   7.398   8.379
22660TIP3   OH267856   5.857   8.101   8.823
22660TIP3    H167857   5.786   8.044   8.785
22660TIP3    H267858   5.894   8.040   8.889
22661TIP3   OH267859   5.948   7.936   9.018
22661TIP3    H167860   5.958   7.856   9.071
22661TIP3    H267861   5.906   7.996   9.085
22662TIP3   OH267862   7.669   7.305   8.140
22662TIP3    H167863   7.603   7.323   8.069
22662TIP3    H267864   7.689   7.395   8.168
22663TIP3   OH267865   7.539   7.004   8.086
22663TIP3    H167866   7.485   7.041   8.016
22663TIP3    H267867   7.516   6.909   8.078
22664TIP3   OH267868   6.188   7.352   9.391
22664TIP3    H167869   6.192   7.325   9.297
22664TIP3    H267870   6.269   7.405   9.402
22665TIP3   OH267871   7.495   6.737   8.067
22665TIP3    H167872   7.569   6.710   8.126
22665TIP3    H267873   7.416   6.713   8.118
22666TIP3   OH267874   7.558   6.993   8.497
22666TIP3    H167875   7.590   6.904   8.526
22666TIP3    H267876   7.637   7.028   8.454
22667TIP3   OH267877   7.669   6.755   8.585
22667TIP3    H167878   7.735   6.722   8.647
22667TIP3    H267879   7.605   6.680   8.582
22668TIP3   OH267880   6.371   6.738   9.392
22668TIP3    H167881   6.434   6.665   9.406
22668TIP3    H267882   6.431   6.815   9.390
22669TIP3   OH267883   6.177   7.007   9.477
22669TIP3    H167884   6.223   7.008   9.391
22669TIP3    H267885   6.186   7.099   9.506
22670TIP3   OH267886   7.725   6.673   8.192
22670TIP3    H167887   7.771   6.600   8.147
22670TIP3    H267888   7.795   6.742   8.195
22671TIP3   OH267889   6.154   6.518   8.974
22671TIP3    H167890   6.059   6.513   8.997
22671TIP3    H267891   6.153   6.574   8.893
22672TIP3   OH267892   6.360   6.585   9.789
22672TIP3    H167893   6.317   6.588   9.875
22672TIP3    H267894   6.296   6.634   9.733
22673TIP3   OH267895   7.208   6.736   9.126
22673TIP3    H167896   7.151   6.667   9.166
22673TIP3    H267897   7.274   6.683   9.075
22674TIP3   OH267898   6.465   6.437   9.142
22674TIP3    H167899   6.373   6.403   9.143
22674TIP3    H267900   6.515   6.353   9.140
22675TIP3   OH267901   6.249   6.305   8.789
22675TIP3    H167902   6.281   6.364   8.718
22675TIP3    H267903   6.221   6.369   8.857
22676TIP3   OH267904   6.904   6.471   9.023
22676TIP3    H167905   6.965   6.521   8.965
22676TIP3    H267906   6.930   6.505   9.110
22677TIP3   OH267907   7.409   6.611   8.995
22677TIP3    H167908   7.440   6.584   8.908
22677TIP3    H267909   7.409   6.525   9.043
22678TIP3   OH267910   7.487   6.540   8.569
22678TIP3    H167911   7.396   6.573   8.566
22678TIP3    H267912   7.474   6.455   8.617
22679TIP3   OH267913   5.972   7.874   8.566
22679TIP3    H167914   5.885   7.842   8.534
22679TIP3    H267915   5.959   7.969   8.555
22680TIP3   OH267916   6.367   6.468   8.553
22680TIP3    H167917   6.416   6.404   8.498
22680TIP3    H267918   6.440   6.520   8.591
22681TIP3   OH267919   6.879   6.633   8.654
22681TIP3    H167920   6.941   6.587   8.713
22681TIP3    H267921   6.900   6.726   8.679
22682TIP3   OH267922   6.713   8.077   8.110
22682TIP3    H167923   6.801   8.109   8.083
22682TIP3    H267924   6.715   7.989   8.068
22683TIP3   OH267925   6.069   7.916   8.222
22683TIP3    H167926   6.020   7.951   8.298
22683TIP3    H267927   6.108   7.835   8.258
22684TIP3   OH267928   8.380   6.845   7.820
22684TIP3    H167929   8.400   6.897   7.899
22684TIP3    H267930   8.310   6.897   7.779
22685TIP3   OH267931   7.898   6.892   8.157
22685TIP3    H167932   7.983   6.936   8.147
22685TIP3    H267933   7.841   6.959   8.200
22686TIP3   OH267934   7.982   7.091   7.976
22686TIP3    H167935   7.950   7.175   8.012
22686TIP3    H267936   7.903   7.034   7.978
22687TIP3   OH267937   7.907   6.733   8.400
22687TIP3    H167938   7.845   6.754   8.471
22687TIP3    H267939   7.985   6.786   8.421
22688TIP3   OH267940   8.049   6.545   8.257
22688TIP3    H167941   8.065   6.597   8.175
22688TIP3    H267942   7.988   6.606   8.305
22689TIP3   OH267943   8.141   6.696   8.039
22689TIP3    H167944   8.211   6.659   7.982
22689TIP3    H267945   8.179   6.779   8.072
22690TIP3   OH267946   2.968   8.380   8.886
22690TIP3    H167947   3.016   8.414   8.963
22690TIP3    H267948   3.030   8.312   8.854
22691TIP3   OH267949   3.735   7.779   9.052
22691TIP3    H167950   3.654   7.797   9.104
22691TIP3    H267951   3.746   7.864   9.004
22692TIP3   OH267952   3.324   8.569   8.738
22692TIP3    H167953   3.275   8.541   8.657
22692TIP3    H267954   3.396   8.621   8.699
22693TIP3   OH267955   3.011   7.959   8.990
22693TIP3    H167956   3.001   7.961   9.088
22693TIP3    H267957   2.969   7.872   8.974
22694TIP3   OH267958   2.684   7.927   9.028
22694TIP3    H167959   2.645   7.915   9.116
22694TIP3    H267960   2.603   7.955   8.979
22695TIP3   OH267961   3.266   8.034   9.024
22695TIP3    H167962   3.169   8.032   9.007
22695TIP3    H267963   3.288   8.130   9.026
22696TIP3   OH267964   3.365   8.278   9.069
22696TIP3    H167965   3.452   8.280   9.115
22696TIP3    H267966   3.367   8.364   9.025
22697TIP3   OH267967   3.774   8.388   8.953
22697TIP3    H167968   3.707   8.344   8.896
22697TIP3    H267969   3.776   8.475   8.909
22698TIP3   OH267970   3.300   8.048   9.300
22698TIP3    H167971   3.275   8.030   9.207
22698TIP3    H267972   3.368   8.115   9.289
22699TIP3   OH267973   3.540   8.682   8.609
22699TIP3    H167974   3.517   8.628   8.531
22699TIP3    H267975   3.503   8.768   8.580
22700TIP3   OH267976   3.718   8.641   8.806
22700TIP3    H167977   3.670   8.627   8.721
22700TIP3    H267978   3.647   8.688   8.853
22701TIP3   OH267979   3.597   8.316   8.758
22701TIP3    H167980   3.550   8.343   8.679
22701TIP3    H267981   3.578   8.219   8.758
22702TIP3   OH267982   3.545   8.050   8.755
22702TIP3    H167983   3.621   8.015   8.806
22702TIP3    H267984   3.474   7.987   8.776
22703TIP3   OH267985   3.603   8.303   9.191
22703TIP3    H167986   3.643   8.220   9.227
22703TIP3    H267987   3.683   8.344   9.153
22704TIP3   OH267988   3.713   8.052   9.243
22704TIP3    H167989   3.762   8.036   9.326
22704TIP3    H267990   3.653   7.974   9.242
22705TIP3   OH267991   3.795   7.989   8.870
22705TIP3    H167992   3.835   7.915   8.822
22705TIP3    H267993   3.864   8.057   8.866
22706TIP3   OH267994   3.800   7.915   9.708
22706TIP3    H167995   3.835   7.961   9.629
22706TIP3    H267996   3.704   7.919   9.690
22707TIP3   OH267997   3.879   8.009   9.462
22707TIP3    H167998   3.951   7.958   9.420
22707TIP3    H267999   3.911   8.101   9.445
22708TIP3   OH268000   3.533   7.906   9.649
22708TIP3    H168001   3.499   7.867   9.568
22708TIP3    H268002   3.505   7.838   9.715
22709TIP3   OH268003   3.531   7.836   9.233
22709TIP3    H168004   3.441   7.870   9.232
22709TIP3    H268005   3.518   7.751   9.281
22710TIP3   OH268006   2.460   7.686   9.279
22710TIP3    H168007   2.472   7.656   9.188
22710TIP3    H268008   2.441   7.780   9.264
22711TIP3   OH268009   2.987   7.955   9.254
22711TIP3    H168010   2.968   7.905   9.337
22711TIP3    H268011   2.930   8.032   9.266
22712TIP3   OH268012   4.986   9.007   8.873
22712TIP3    H168013   4.943   9.092   8.849
22712TIP3    H268014   4.919   8.945   8.841
22713TIP3   OH268015   3.984   8.506   9.115
22713TIP3    H168016   3.919   8.569   9.150
22713TIP3    H268017   3.929   8.427   9.106
22714TIP3   OH268018   4.553   8.388   9.276
22714TIP3    H168019   4.526   8.457   9.212
22714TIP3    H268020   4.501   8.312   9.241
22715TIP3   OH268021   5.235   8.477   8.916
22715TIP3    H168022   5.309   8.468   8.980
22715TIP3    H268023   5.283   8.504   8.836
22716TIP3   OH268024   4.633   8.783   9.156
22716TIP3    H168025   4.722   8.748   9.178
22716TIP3    H268026   4.582   8.700   9.140
22717TIP3   OH268027   4.850   9.210   8.746
22717TIP3    H168028   4.841   9.185   8.654
22717TIP3    H268029   4.907   9.290   8.737
22718TIP3   OH268030   5.454   8.481   9.086
22718TIP3    H168031   5.432   8.406   9.143
22718TIP3    H268032   5.536   8.512   9.125
22719TIP3   OH268033   4.437   8.468   9.513
22719TIP3    H168034   4.465   8.559   9.498
22719TIP3    H268035   4.473   8.422   9.434
22720TIP3   OH268036   4.900   8.089   9.436
22720TIP3    H168037   4.883   7.994   9.452
22720TIP3    H268038   4.820   8.127   9.480
22721TIP3   OH268039   5.060   9.360   8.657
22721TIP3    H168040   5.103   9.292   8.602
22721TIP3    H268041   5.136   9.398   8.704
22722TIP3   OH268042   4.830   8.858   8.691
22722TIP3    H168043   4.746   8.901   8.669
22722TIP3    H268044   4.870   8.844   8.603
22723TIP3   OH268045   4.785   8.636   8.413
22723TIP3    H168046   4.857   8.685   8.456
22723TIP3    H268047   4.837   8.569   8.365
22724TIP3   OH268048   5.159   8.942   8.667
22724TIP3    H168049   5.094   8.964   8.736
22724TIP3    H268050   5.235   8.923   8.725
22725TIP3   OH268051   4.423   8.930   9.038
22725TIP3    H168052   4.368   8.869   8.983
22725TIP3    H268053   4.492   8.870   9.072
22726TIP3   OH268054   5.012   8.792   8.487
22726TIP3    H168055   5.070   8.850   8.540
22726TIP3    H268056   5.039   8.816   8.395
22727TIP3   OH268057   5.530   8.035   8.538
22727TIP3    H168058   5.447   8.051   8.588
22727TIP3    H268059   5.540   8.118   8.489
22728TIP3   OH268060   4.271   8.763   8.869
22728TIP3    H168061   4.198   8.808   8.822
22728TIP3    H268062   4.227   8.683   8.901
22729TIP3   OH268063   5.328   9.389   8.103
22729TIP3    H168064   5.325   9.483   8.072
22729TIP3    H268065   5.419   9.365   8.074
22730TIP3   OH268066   4.844   9.616   8.193
22730TIP3    H168067   4.901   9.548   8.151
22730TIP3    H268068   4.872   9.608   8.286
22731TIP3   OH268069   4.882   9.624   8.461
22731TIP3    H168070   4.843   9.676   8.535
22731TIP3    H268071   4.952   9.578   8.509
22732TIP3   OH268072   4.667   8.163   9.554
22732TIP3    H168073   4.570   8.144   9.546
22732TIP3    H268074   4.668   8.252   9.593
22733TIP3   OH268075   5.094   8.849   8.236
22733TIP3    H168076   5.057   8.817   8.151
22733TIP3    H268077   5.175   8.893   8.204
22734TIP3   OH268078   4.807   8.216   8.536
22734TIP3    H168079   4.773   8.214   8.628
22734TIP3    H268080   4.767   8.133   8.503
22735TIP3   OH268081   4.479   8.568   9.088
22735TIP3    H168082   4.386   8.542   9.111
22735TIP3    H268083   4.487   8.523   9.001
22736TIP3   OH268084   4.965   8.658   8.823
22736TIP3    H168085   4.908   8.726   8.781
22736TIP3    H268086   5.016   8.624   8.746
22737TIP3   OH268087   5.103   8.679   9.073
22737TIP3    H168088   5.059   8.713   8.993
22737TIP3    H268089   5.146   8.601   9.035
22738TIP3   OH268090   4.462   8.191   8.504
22738TIP3    H168091   4.453   8.184   8.601
22738TIP3    H268092   4.379   8.236   8.480
22739TIP3   OH268093   4.002   8.226   9.360
22739TIP3    H168094   4.073   8.258   9.420
22739TIP3    H268095   4.051   8.188   9.287
22740TIP3   OH268096   3.981   8.215   8.893
22740TIP3    H168097   4.026   8.256   8.816
22740TIP3    H268098   3.918   8.286   8.915
22741TIP3   OH268099   4.805   8.384   9.157
22741TIP3    H168100   4.718   8.383   9.201
22741TIP3    H268101   4.863   8.401   9.232
22742TIP3   OH268102   4.251   8.450   9.158
22742TIP3    H168103   4.153   8.461   9.149
22742TIP3    H268104   4.262   8.353   9.152
22743TIP3   OH268105   4.509   8.439   8.851
22743TIP3    H168106   4.602   8.458   8.829
22743TIP3    H268107   4.459   8.465   8.771
22744TIP3   OH268108   5.285   8.447   9.371
22744TIP3    H168109   5.227   8.468   9.445
22744TIP3    H268110   5.225   8.391   9.318
22745TIP3   OH268111   4.343   8.478   8.636
22745TIP3    H168112   4.270   8.432   8.592
22745TIP3    H268113   4.393   8.510   8.559
22746TIP3   OH268114   4.880   8.701   9.260
22746TIP3    H168115   4.960   8.695   9.204
22746TIP3    H268116   4.912   8.667   9.345
22747TIP3   OH268117   4.415   8.201   9.135
22747TIP3    H168118   4.376   8.124   9.183
22747TIP3    H268119   4.458   8.159   9.060
22748TIP3   OH268120   4.879   8.612   9.571
22748TIP3    H168121   4.799   8.664   9.545
22748TIP3    H268122   4.925   8.675   9.628
22749TIP3   OH268123   4.596   9.007   8.637
22749TIP3    H168124   4.527   8.938   8.632
22749TIP3    H268125   4.581   9.043   8.728
22750TIP3   OH268126   5.056   8.319   8.503
22750TIP3    H168127   4.959   8.299   8.510
22750TIP3    H268128   5.061   8.414   8.526
22751TIP3   OH268129   5.119   8.565   8.607
22751TIP3    H168130   5.216   8.559   8.616
22751TIP3    H268131   5.106   8.641   8.548
22752TIP3   OH268132   4.741   9.161   8.465
22752TIP3    H168133   4.691   9.244   8.479
22752TIP3    H268134   4.690   9.099   8.521
22753TIP3   OH268135   5.565   8.640   8.440
22753TIP3    H168136   5.500   8.600   8.377
22753TIP3    H268137   5.566   8.730   8.402
22754TIP3   OH268138   5.287   9.446   8.374
22754TIP3    H168139   5.230   9.369   8.384
22754TIP3    H268140   5.301   9.446   8.277
22755TIP3   OH268141   3.953   8.635   8.646
22755TIP3    H168142   3.999   8.719   8.665
22755TIP3    H268143   3.875   8.644   8.704
22756TIP3   OH268144   4.531   9.121   8.875
22756TIP3    H168145   4.502   9.199   8.922
22756TIP3    H268146   4.498   9.051   8.936
22757TIP3   OH268147   5.020   9.201   8.256
22757TIP3    H168148   5.070   9.176   8.337
22757TIP3    H268149   4.931   9.171   8.280
22758TIP3   OH268150   5.327   9.651   8.049
22758TIP3    H168151   5.325   9.704   7.966
22758TIP3    H268152   5.284   9.714   8.109
22759TIP3   OH268153   5.181   9.152   8.482
22759TIP3    H168154   5.166   9.076   8.542
22759TIP3    H268155   5.277   9.142   8.465
22760TIP3   OH268156   4.384   9.181   8.247
22760TIP3    H168157   4.403   9.090   8.218
22760TIP3    H268158   4.375   9.169   8.344
22761TIP3   OH268159   4.353   9.194   8.520
22761TIP3    H168160   4.390   9.130   8.582
22761TIP3    H268161   4.346   9.273   8.575
22762TIP3   OH268162   4.061   8.884   8.732
22762TIP3    H168163   4.018   8.941   8.798
22762TIP3    H268164   4.076   8.951   8.661
22763TIP3   OH268165   5.098   8.270   8.782
22763TIP3    H168166   5.081   8.293   8.689
22763TIP3    H268167   5.132   8.353   8.819
22764TIP3   OH268168   4.594   9.402   8.485
22764TIP3    H168169   4.509   9.445   8.469
22764TIP3    H268170   4.646   9.439   8.413
22765TIP3   OH268171   4.795   8.448   8.887
22765TIP3    H168172   4.858   8.521   8.871
22765TIP3    H268173   4.795   8.442   8.984
22766TIP3   OH268174   4.938   8.182   8.997
22766TIP3    H168175   4.916   8.262   9.047
22766TIP3    H268176   4.995   8.218   8.925
22767TIP3   OH268177   4.445   8.172   8.779
22767TIP3    H168178   4.442   8.262   8.817
22767TIP3    H268179   4.541   8.153   8.788
22768TIP3   OH268180   4.066   9.087   8.548
22768TIP3    H168181   4.104   9.176   8.553
22768TIP3    H268182   4.116   9.046   8.475
22769TIP3   OH268183   4.011   8.366   8.665
22769TIP3    H168184   4.004   8.463   8.660
22769TIP3    H268185   3.926   8.337   8.628
22770TIP3   OH268186   4.403   8.082   9.545
22770TIP3    H168187   4.363   8.058   9.459
22770TIP3    H268188   4.382   8.004   9.600
22771TIP3   OH268189   4.556   9.382   8.174
22771TIP3    H168190   4.500   9.307   8.202
22771TIP3    H268191   4.629   9.335   8.130
22772TIP3   OH268192   4.992   9.426   8.073
22772TIP3    H168193   5.044   9.364   8.127
22772TIP3    H268194   5.044   9.429   7.990
22773TIP3   OH268195   4.200   8.911   8.382
22773TIP3    H168196   4.246   8.866   8.455
22773TIP3    H268197   4.269   8.907   8.313
22774TIP3   OH268198   4.702   9.101   8.195
22774TIP3    H168199   4.706   9.111   8.292
22774TIP3    H268200   4.704   9.003   8.188
22775TIP3   OH268201   4.410   8.807   8.614
22775TIP3    H168202   4.375   8.766   8.696
22775TIP3    H268203   4.441   8.729   8.564
22776TIP3   OH268204   4.504   8.601   8.450
22776TIP3    H168205   4.477   8.598   8.356
22776TIP3    H268206   4.601   8.606   8.442
22777TIP3   OH268207   5.330   8.932   8.111
22777TIP3    H168208   5.310   8.883   8.029
22777TIP3    H268209   5.297   9.021   8.083
22778TIP3   OH268210   4.754   8.392   9.697
22778TIP3    H168211   4.815   8.457   9.657
22778TIP3    H268212   4.746   8.427   9.788
22779TIP3   OH268213   4.326   9.676   8.336
22779TIP3    H168214   4.418   9.666   8.302
22779TIP3    H268215   4.282   9.724   8.264
22780TIP3   OH268216   3.793   9.046   8.503
22780TIP3    H168217   3.876   9.062   8.551
22780TIP3    H268218   3.791   8.949   8.496
22781TIP3   OH268219   5.464   9.121   8.457
22781TIP3    H168220   5.539   9.156   8.407
22781TIP3    H268221   5.505   9.087   8.538
22782TIP3   OH268222   5.526   8.898   8.295
22782TIP3    H168223   5.458   8.892   8.224
22782TIP3    H268224   5.486   8.968   8.350
22783TIP3   OH268225   5.392   8.570   8.246
22783TIP3    H168226   5.353   8.603   8.164
22783TIP3    H268227   5.369   8.474   8.239
22784TIP3   OH268228   5.480   8.780   8.738
22784TIP3    H168229   5.424   8.700   8.730
22784TIP3    H268230   5.423   8.842   8.788
22785TIP3   OH268231   5.341   8.304   8.241
22785TIP3    H168232   5.416   8.269   8.293
22785TIP3    H268233   5.268   8.243   8.262
22786TIP3   OH268234   5.389   8.531   8.676
22786TIP3    H168235   5.430   8.443   8.696
22786TIP3    H268236   5.453   8.563   8.610
22787TIP3   OH268237   5.512   8.294   8.727
22787TIP3    H168238   5.557   8.277   8.812
22787TIP3    H268239   5.447   8.220   8.726
22788TIP3   OH268240   4.211   8.284   9.518
22788TIP3    H168241   4.276   8.221   9.552
22788TIP3    H268242   4.237   8.365   9.563
22789TIP3   OH268243   5.592   8.245   8.360
22789TIP3    H168244   5.629   8.171   8.308
22789TIP3    H268245   5.659   8.314   8.348
22790TIP3   OH268246   3.995   8.065   9.116
22790TIP3    H168247   3.904   8.071   9.149
22790TIP3    H268248   3.993   8.127   9.040
22791TIP3   OH268249   5.068   8.285   9.291
22791TIP3    H168250   5.010   8.218   9.333
22791TIP3    H268251   5.117   8.232   9.226
22792TIP3   OH268252   5.572   8.189   9.204
22792TIP3    H168253   5.612   8.220   9.120
22792TIP3    H268254   5.478   8.181   9.180
22793TIP3   OH268255   5.669   8.257   8.955
22793TIP3    H168256   5.743   8.204   8.918
22793TIP3    H268257   5.697   8.346   8.923
22794TIP3   OH268258   4.306   7.995   9.291
22794TIP3    H168259   4.214   7.962   9.294
22794TIP3    H268260   4.355   7.910   9.291
22795TIP3   OH268261   4.092   7.862   8.940
22795TIP3    H168262   4.120   7.922   8.869
22795TIP3    H268263   4.060   7.926   9.008
22796TIP3   OH268264   4.749   8.026   9.170
22796TIP3    H168265   4.811   8.081   9.119
22796TIP3    H268266   4.757   8.063   9.259
22797TIP3   OH268267   5.302   8.170   9.149
22797TIP3    H168268   5.283   8.131   9.062
22797TIP3    H268269   5.284   8.094   9.209
22798TIP3   OH268270   5.325   8.093   8.719
22798TIP3    H168271   5.237   8.134   8.727
22798TIP3    H268272   5.310   8.008   8.767
22799TIP3   OH268273   4.207   8.026   8.702
22799TIP3    H168274   4.256   7.961   8.649
22799TIP3    H268275   4.280   8.078   8.742
22800TIP3   OH268276   4.723   8.198   8.801
22800TIP3    H168277   4.777   8.148   8.864
22800TIP3    H268278   4.745   8.289   8.829
22801TIP3   OH268279   4.589   9.627   8.284
22801TIP3    H168280   4.679   9.640   8.248
22801TIP3    H268281   4.567   9.543   8.238
22802TIP3   OH268282   5.773   8.784   8.565
22802TIP3    H168283   5.724   8.843   8.623
22802TIP3    H268284   5.709   8.712   8.553
22803TIP3   OH268285   6.557   8.472   7.990
22803TIP3    H168286   6.608   8.493   8.071
22803TIP3    H268287   6.580   8.380   7.975
22804TIP3   OH268288   6.248   8.424   7.987
22804TIP3    H168289   6.237   8.433   8.084
22804TIP3    H268290   6.180   8.487   7.956
22805TIP3   OH268291   5.769   8.463   8.814
22805TIP3    H168292   5.860   8.495   8.831
22805TIP3    H268293   5.786   8.415   8.731
22806TIP3   OH268294   5.784   8.478   8.382
22806TIP3    H168295   5.817   8.517   8.298
22806TIP3    H268296   5.716   8.544   8.405
22807TIP3   OH268297   6.152   8.686   8.126
22807TIP3    H168298   6.076   8.664   8.069
22807TIP3    H268299   6.196   8.752   8.070
22808TIP3   OH268300   5.746   8.886   8.133
22808TIP3    H168301   5.792   8.967   8.155
22808TIP3    H268302   5.667   8.891   8.192
22809TIP3   OH268303   6.241   8.414   8.263
22809TIP3    H168304   6.210   8.498   8.300
22809TIP3    H268305   6.335   8.416   8.285
22810TIP3   OH268306   5.803   8.619   8.153
22810TIP3    H168307   5.799   8.717   8.148
22810TIP3    H268308   5.722   8.594   8.107
22811TIP3   OH268309   5.983   9.158   7.856
22811TIP3    H168310   6.047   9.129   7.922
22811TIP3    H268311   6.042   9.154   7.777
22812TIP3   OH268312   6.311   8.842   7.934
22812TIP3    H168313   6.256   8.828   7.853
22812TIP3    H268314   6.387   8.881   7.890
22813TIP3   OH268315   5.581   9.309   8.023
22813TIP3    H168316   5.659   9.324   8.079
22813TIP3    H268317   5.588   9.215   7.997
22814TIP3   OH268318   5.782   8.309   8.590
22814TIP3    H168319   5.687   8.309   8.609
22814TIP3    H268320   5.789   8.375   8.517
22815TIP3   OH268321   6.088   8.227   8.704
22815TIP3    H168322   5.995   8.205   8.726
22815TIP3    H268323   6.134   8.148   8.736
22816TIP3   OH268324   5.892   8.115   8.418
22816TIP3    H168325   5.917   8.179   8.349
22816TIP3    H268326   5.860   8.175   8.489
22817TIP3   OH268327   5.997   8.281   8.196
22817TIP3    H168328   6.039   8.220   8.132
22817TIP3    H268329   6.075   8.329   8.230
22818TIP3   OH268330   4.985  10.098   7.913
22818TIP3    H168331   5.047  10.048   7.858
22818TIP3    H268332   4.898  10.061   7.887
22819TIP3   OH268333   4.960   9.877   8.338
22819TIP3    H168334   4.894   9.940   8.304
22819TIP3    H268335   4.902   9.803   8.361
   9.80000   9.23953   8.00167   0.00000   0.00000  -3.26667   0.00000  -3.26667  -4.61976
