Title
19927
    1ASP      N    1   1.413   0.177   1.849 -0.1908  0.8314 -0.2286
    1ASP    HT1    2   1.371   0.148   1.940 -0.1760 -1.1790 -0.8059
    1ASP    HT2    3   1.514   0.154   1.845 -0.5466 -0.8258 -0.7977
    1ASP    HT3    4   1.366   0.131   1.768 -0.2180 -1.8667  1.1841
    1ASP     CA    5   1.393   0.326   1.844  0.1051  0.3669  0.1787
    1ASP     HA    6   1.443   0.342   1.750 -0.8252 -2.7842 -0.9677
    1ASP     CB    7   1.234   0.340   1.844 -0.2579  0.5086  0.0688
    1ASP    HB1    8   1.200   0.347   1.949 -0.1448 -0.7518  0.2053
    1ASP    HB2    9   1.178   0.264   1.785  1.0281  0.8606 -1.6707
    1ASP     CG   10   1.208   0.475   1.771 -0.4643  0.0394  0.1493
    1ASP    OD1   11   1.304   0.527   1.710 -0.2314 -0.3048  0.2059
    1ASP    OD2   12   1.089   0.517   1.767  0.0540 -0.4330 -0.4829
    1ASP      C   13   1.464   0.405   1.955 -0.4049 -0.0479 -0.3007
    1ASP      O   14   1.522   0.343   2.043  0.0289 -0.4587  0.0731
    2ALA      N   15   1.454   0.544   1.952 -0.2966  0.4379 -0.1368
    2ALA     HN   16   1.407   0.589   1.877  0.2904  0.4149 -0.5232
    2ALA     CA   17   1.514   0.620   2.050  0.3854 -0.5839 -0.3480
    2ALA     HA   18   1.510   0.561   2.141  1.7948 -1.7530 -0.9962
    2ALA     CB   19   1.658   0.661   2.016  0.1677 -0.7359  0.2039
    2ALA    HB1   20   1.717   0.710   2.097  1.0666 -3.1687  1.1039
    2ALA    HB2   21   1.647   0.740   1.938 -0.5670 -0.9933  0.0394
    2ALA    HB3   22   1.711   0.571   1.978 -1.9045 -2.3240  0.8807
    2ALA      C   23   1.423   0.743   2.073  0.0194  0.1802 -0.2260
    2ALA      O   24   1.337   0.775   1.993  0.3733 -0.1893 -0.2974
    3ASP      N   25   1.436   0.804   2.193  0.4735 -1.0011  0.0573
    3ASP     HN   26   1.502   0.771   2.259  0.6807 -0.1309  0.3070
    3ASP     CA   27   1.356   0.920   2.225 -0.2539  0.4930  0.5440
    3ASP     HA   28   1.262   0.902   2.175  0.6558 -0.9330 -0.7447
    3ASP     CB   29   1.358   0.930   2.382  0.1424 -0.2833  0.7723
    3ASP    HB1   30   1.311   1.029   2.401 -1.2035 -0.3712 -1.6460
    3ASP    HB2   31   1.459   0.923   2.429  1.5875 -1.0202 -2.1942
    3ASP     CG   32   1.263   0.834   2.455  0.6050 -0.4116  0.0421
    3ASP    OD1   33   1.153   0.797   2.409 -0.6729 -0.4645 -0.2767
    3ASP    OD2   34   1.304   0.809   2.569 -0.0533 -0.5090  0.2254
    3ASP      C   35   1.416   1.045   2.169 -0.2313 -0.2070  0.4250
    3ASP      O   36   1.541   1.053   2.164  0.4987 -0.0969 -0.3109
    4GLY      N   37   1.338   1.149   2.117 -0.3323 -0.0200  0.0075
    4GLY     HN   38   1.239   1.140   2.118 -0.4560  1.1472 -0.3053
    4GLY     CA   39   1.401   1.277   2.086 -0.2697 -0.5507  0.1885
    4GLY    HA1   40   1.324   1.339   2.043  1.2611  1.5020  0.2351
    4GLY    HA2   41   1.487   1.258   2.023 -0.4104  2.0013 -0.9132
    4GLY      C   42   1.460   1.351   2.205  0.2560  0.0007  0.6875
    4GLY      O   43   1.438   1.310   2.318  0.2829  0.4274 -0.6871
    5PRO      N   44   1.524   1.461   2.183 -0.5856 -0.2011 -0.7344
    5PRO     CD   45   1.549   1.517   2.049  0.5263 -0.4740  1.1880
    5PRO    HD1   46   1.457   1.532   1.989  0.3160  2.4639  2.0639
    5PRO    HD2   47   1.635   1.463   2.005  0.2216 -0.9642  1.1898
    5PRO     CA   48   1.583   1.547   2.288  0.2334 -0.2153  0.9748
    5PRO     HA   49   1.639   1.484   2.355  0.4705 -1.7244 -0.5520
    5PRO     CB   50   1.665   1.645   2.207 -0.9815 -0.0961 -0.0951
    5PRO    HB1   51   1.759   1.593   2.181  0.3365  1.3351  1.4796
    5PRO    HB2   52   1.697   1.742   2.253  1.0021 -0.4525 -0.6170
    5PRO     CG   53   1.595   1.659   2.075  0.5304  0.2068  0.2173
    5PRO    HG1   54   1.511   1.732   2.087 -1.0478 -0.9731 -2.5778
    5PRO    HG2   55   1.650   1.685   1.982 -0.0790  0.6320 -0.0375
    5PRO      C   56   1.483   1.621   2.376  0.4075  0.0088 -0.3941
    5PRO      O   57   1.518   1.680   2.479  0.0735 -0.6823  0.2797
    6GLY      N   58   1.355   1.627   2.331 -0.5101  0.5236  0.2726
    6GLY     HN   59   1.332   1.599   2.239  0.5330 -0.9678  0.4276
    6GLY     CA   60   1.269   1.731   2.382 -0.4076 -0.3608  0.3467
    6GLY    HA1   61   1.270   1.726   2.489 -1.2374  0.7787  0.4255
    6GLY    HA2   62   1.167   1.702   2.362 -1.2405  1.2122  2.0819
    6GLY      C   63   1.290   1.875   2.330  0.0256  0.5622 -0.7846
    6GLY      O   64   1.391   1.902   2.265  0.1098 -0.2326  0.2765
    7ASP      N   65   1.196   1.968   2.371 -0.1778  0.1056  0.0088
    7ASP     HN   66   1.119   1.939   2.428 -1.0795  1.3632 -0.5034
    7ASP     CA   67   1.180   2.107   2.334 -0.1322  0.1650  0.1438
    7ASP     HA   68   1.170   2.119   2.227 -2.7908  0.3296  0.3207
    7ASP     CB   69   1.054   2.163   2.407  0.2616  0.8715  0.2541
    7ASP    HB1   70   1.041   2.272   2.388  1.2181  1.0204  0.3687
    7ASP    HB2   71   1.065   2.147   2.517  1.2731 -1.2605 -0.1113
    7ASP     CG   72   0.936   2.081   2.365 -0.3767 -0.0253 -0.1094
    7ASP    OD1   73   0.927   2.046   2.247  0.2800  0.6458  0.3823
    7ASP    OD2   74   0.838   2.085   2.447 -0.2038  0.4863  0.0357
    7ASP      C   75   1.298   2.198   2.378 -0.3200 -0.7156  0.4496
    7ASP      O   76   1.358   2.177   2.485 -0.1590  1.0357  0.2819
    8PRO      N   77   1.336   2.294   2.308 -0.8118 -0.0474 -0.3756
    8PRO     CD   78   1.277   2.328   2.175  0.0843 -1.1826  0.6052
    8PRO    HD1   79   1.177   2.374   2.186  0.4169 -0.2495 -0.1733
    8PRO    HD2   80   1.277   2.242   2.105 -0.1395 -0.3510 -0.4351
    8PRO     CA   81   1.426   2.407   2.354  0.2489 -0.1573 -0.1089
    8PRO     HA   82   1.524   2.365   2.370  0.2796  0.5190  1.6874
    8PRO     CB   83   1.411   2.518   2.238 -0.1752  0.2010  0.7026
    8PRO    HB1   84   1.509   2.569   2.227  0.2739 -0.7385  0.1932
    8PRO    HB2   85   1.329   2.588   2.265  0.7300  2.2277 -1.3977
    8PRO     CG   86   1.377   2.433   2.121  0.1713 -0.1115 -0.4946
    8PRO    HG1   87   1.324   2.491   2.043 -0.0518  0.5358  0.1264
    8PRO    HG2   88   1.464   2.378   2.079  0.6269 -1.0062  1.5119
    8PRO      C   89   1.381   2.474   2.490 -0.5107 -0.7612 -0.7772
    8PRO      O   90   1.266   2.479   2.531 -0.0701 -0.4386 -0.2772
    9ASP      N   91   1.481   2.522   2.577  0.7376  0.4049  0.3536
    9ASP     HN   92   1.575   2.528   2.544  0.0344  2.3100 -1.5447
    9ASP     CA   93   1.448   2.598   2.700  0.9154  0.1747 -0.0303
    9ASP     HA   94   1.372   2.537   2.746  1.2247  0.4429  0.8608
    9ASP     CB   95   1.569   2.625   2.789 -0.5678  0.9456 -0.5959
    9ASP    HB1   96   1.544   2.696   2.871 -1.5567  0.5028 -0.5043
    9ASP    HB2   97   1.658   2.654   2.729 -0.1428 -1.3875 -1.1555
    9ASP     CG   98   1.607   2.493   2.863 -0.5453 -0.1792  0.6798
    9ASP    OD1   99   1.529   2.397   2.866  0.6172 -0.5418 -0.4069
    9ASP    OD2  100   1.716   2.494   2.925 -0.1228 -0.4945 -0.0532
    9ASP      C  101   1.384   2.734   2.671  0.3788 -0.0860  0.2005
    9ASP      O  102   1.429   2.824   2.600  0.1056 -0.0819  0.3698
   10ALA      N  103   1.266   2.762   2.737 -0.2813 -0.5830  0.0979
   10ALA     HN  104   1.209   2.693   2.781 -2.1178 -0.2038 -1.5469
   10ALA     CA  105   1.195   2.879   2.711  1.3396  0.3198 -0.4936
   10ALA     HA  106   1.215   2.922   2.614  2.6668  1.4025  0.2307
   10ALA     CB  107   1.039   2.846   2.710 -0.7813  0.0316 -0.0081
   10ALA    HB1  108   1.026   2.751   2.654  4.1166 -1.6152  1.1035
   10ALA    HB2  109   0.992   2.934   2.663  3.2019  2.9784  0.9946
   10ALA    HB3  110   1.008   2.824   2.814  1.3188  0.9236  0.8724
   10ALA      C  111   1.211   2.987   2.812  0.5239  0.8687 -0.7581
   10ALA      O  112   1.247   2.952   2.926 -0.4536  0.1545 -0.3591
   11GLY      N  113   1.185   3.111   2.781 -0.0105  0.4727  0.1926
   11GLY     HN  114   1.152   3.139   2.692 -0.2407  0.6110  0.3199
   11GLY     CA  115   1.192   3.226   2.867  0.6445  0.2679  0.1960
   11GLY    HA1  116   1.241   3.304   2.810  2.5679 -1.9227 -1.3062
   11GLY    HA2  117   1.244   3.195   2.956  1.0922 -0.1215 -0.1995
   11GLY      C  118   1.057   3.283   2.908  0.1371  0.3770 -0.6181
   11GLY    OT1  119   0.994   3.369   2.838  0.8513 -0.2794  0.4091
   11GLY    OT2  120   0.996   3.228   3.002  0.0069  0.5659 -0.3185
   12SOD    SOD  121   0.370   2.566   3.727  0.0742 -0.1208 -0.2917
   13SOD    SOD  122   4.659   3.738   4.078 -0.1296 -0.3282  0.5787
   14SOD    SOD  123   2.625   5.211   1.810 -0.4759 -0.4589 -0.4470
   15SOD    SOD  124   0.217   1.574   0.528 -0.0412 -0.2940  0.1137
   16SOD    SOD  125   0.397   4.190   3.078 -0.3155 -0.3480  0.3302
   17SOD    SOD  126   1.241   2.326   4.902 -0.2849 -0.0342  0.0883
   18SOD    SOD  127   5.914   2.831   0.584  0.2587 -0.4325  0.0207
   19SOD    SOD  128   2.387   1.337   0.593 -0.1776  0.2756 -0.1756
   20SOD    SOD  129   2.345   4.468   4.069  0.3748  0.5959 -0.5083
   21SOD    SOD  130   3.543   2.836   2.063 -0.2679 -0.2577 -0.0858
   22SOD    SOD  131   5.678   3.803   2.270  0.6313  0.3072  0.3333
   23SOD    SOD  132   1.147   2.971   3.769  0.4880  0.2876 -0.9087
   24SOD    SOD  133   2.878   0.914   2.372  0.0673 -0.0349 -0.0107
   25SOD    SOD  134   5.851   0.572   2.487 -0.2545  0.3462 -0.3213
   26SOD    SOD  135   1.039   3.873   2.043  0.0429  0.4174  0.3419
   27SOD    SOD  136   5.105   2.949   1.775  0.1533 -0.8870 -0.7562
   28SOD    SOD  137   4.476   3.730   0.880  0.0389 -0.4148  0.2231
   29SOD    SOD  138   5.619   2.726   4.274 -0.4882  0.1037 -0.5598
   30SOD    SOD  139   1.520   1.474   0.315  0.0852  0.1765 -0.1142
   31SOD    SOD  140   1.409   4.181   1.391 -0.4986 -0.4004  0.2013
   32SOD    SOD  141   5.754   4.155   3.600 -0.2180 -0.2089 -0.0658
   33SOD    SOD  142   0.113   1.134   3.952 -0.1312  0.0412 -0.1891
   34CLA    CLA  143   4.118   2.010   0.713 -0.0217 -0.0429  0.0474
   35CLA    CLA  144   0.125   4.362   3.495  0.2508 -0.2860 -0.1728
   36CLA    CLA  145   2.133   0.378   1.726  0.4050  0.2549 -0.3586
   37CLA    CLA  146   1.892   5.216   3.361  0.6784 -0.0037 -0.0189
   38CLA    CLA  147   4.104   1.808   3.711 -0.1893 -0.2983 -0.1320
   39CLA    CLA  148   4.656   0.841   2.838 -0.2091  0.2675 -0.3296
   40CLA    CLA  149   2.045   3.752   1.985 -0.1735  0.1820 -0.3422
   41CLA    CLA  150   5.803   4.267   0.675  0.3818  0.0028 -0.2711
   42CLA    CLA  151   1.589   1.876   3.856  0.1372  0.2745 -0.2276
   43CLA    CLA  152   4.754   3.273   2.683 -0.0346 -0.0797  0.1420
   44CLA    CLA  153   1.041   4.328   2.198  0.1180 -0.1603 -0.0198
   45CLA    CLA  154   5.503   2.623   1.546 -0.2372 -0.1167  0.3088
   46CLA    CLA  155   3.918   3.066   4.006  0.0347  0.3936  0.2074
   47CLA    CLA  156   1.680   5.350   0.696  0.2364  0.0714  0.0883
   48CLA    CLA  157   5.889   4.849   0.292 -0.2429  0.4661 -0.2387
   49CLA    CLA  158   2.342   2.646   1.900  0.3915  0.2646 -0.3294
   50CLA    CLA  159   3.814   5.593   4.755 -0.1956  0.6648  0.1950
   51CLA    CLA  160   3.493   4.850   1.157 -0.0907 -0.1025 -0.4278
   52TIP3   OH2  161   0.073   2.857   1.786  0.0053 -0.2235  0.7676
   52TIP3    H1  162   0.068   2.916   1.710  0.4478 -1.0532  0.0820
   52TIP3    H2  163   0.069   2.769   1.748 -0.0337 -0.6436  1.7341
   53TIP3   OH2  164   0.971   3.675   3.416 -0.2585  0.2234 -0.0901
   53TIP3    H1  165   1.002   3.723   3.493 -1.0346 -0.0440  0.3990
   53TIP3    H2  166   1.050   3.640   3.376  0.3467  1.9964 -0.5259
   54TIP3   OH2  167   6.345   4.437   0.534  1.0405  0.4975 -0.3084
   54TIP3    H1  168   6.333   4.351   0.574  0.8596  0.6524 -0.0351
   54TIP3    H2  169   6.286   4.437   0.459 -0.4758  1.1448  0.8491
   55TIP3   OH2  170   1.867   0.912   3.127  0.0299  0.0373  0.0747
   55TIP3    H1  171   1.900   0.950   3.046 -0.6113 -0.9703 -0.6879
   55TIP3    H2  172   1.774   0.897   3.110 -0.2525  0.3958  1.2355
   56TIP3   OH2  173   1.751   4.571   1.157 -0.2049 -0.4079 -0.1338
   56TIP3    H1  174   1.712   4.511   1.093  0.7661 -0.6424 -0.5344
   56TIP3    H2  175   1.824   4.612   1.109  1.0297 -1.1616  1.0340
   57TIP3   OH2  176   6.130   4.606   5.071 -0.2594  0.3637  0.2726
   57TIP3    H1  177   6.158   4.696   5.089 -0.1945  0.4282 -0.1364
   57TIP3    H2  178   6.204   4.552   5.098 -0.6265  0.3596  1.3392
   58TIP3   OH2  179   3.930   5.858   3.019 -0.7130  0.4324 -0.1681
   58TIP3    H1  180   3.880   5.826   2.944 -0.3275 -0.9833  0.1496
   58TIP3    H2  181   3.867   5.907   3.071 -0.4127  3.8934 -2.7378
   59TIP3   OH2  182   0.991   5.414   1.588 -0.2181  0.2836  0.3941
   59TIP3    H1  183   1.052   5.481   1.556 -0.3527  1.1625  1.8622
   59TIP3    H2  184   0.975   5.358   1.512  0.1633  1.7118 -0.8017
   60TIP3   OH2  185   0.977   2.174   3.148 -0.1626 -0.0322  0.0164
   60TIP3    H1  186   0.984   2.084   3.117 -1.2102 -0.4610  0.9435
   60TIP3    H2  187   1.067   2.204   3.154  0.1241 -0.3332 -2.1882
   61TIP3   OH2  188   5.529   1.593   0.383 -0.0600 -0.3397  0.5958
   61TIP3    H1  189   5.616   1.553   0.372  1.2177  1.9101  1.8192
   61TIP3    H2  190   5.547   1.681   0.415 -2.8448  0.1012  1.2004
   62TIP3   OH2  191   1.154   5.292   2.572 -0.1520  0.3805 -0.8189
   62TIP3    H1  192   1.125   5.376   2.608  0.9335  1.1948 -1.7385
   62TIP3    H2  193   1.249   5.296   2.576 -0.0941 -1.0773 -0.3307
   63TIP3   OH2  194   4.801   0.122   1.428  0.0631  0.4095 -0.3232
   63TIP3    H1  195   4.775   0.188   1.364  2.1879 -0.5809 -2.3655
   63TIP3    H2  196   4.855   0.060   1.378  1.8870 -0.4191  2.4339
   64TIP3   OH2  197   3.767   5.401   4.483  0.1735 -0.4233  0.2498
   64TIP3    H1  198   3.840   5.452   4.448  0.3880 -1.0782 -0.3049
   64TIP3    H2  199   3.764   5.422   4.576  0.2094  0.6325  0.0198
   65TIP3   OH2  200   1.844   4.710   3.593  0.2911  0.5394  0.2033
   65TIP3    H1  201   1.823   4.802   3.582 -1.7813  0.1994  0.8786
   65TIP3    H2  202   1.933   4.710   3.628  0.5532  2.2442 -0.3775
   66TIP3   OH2  203   2.008   2.362   4.713  0.3102  0.2036  0.1906
   66TIP3    H1  204   1.920   2.401   4.712 -0.8781 -2.2341  0.7782
   66TIP3    H2  205   2.011   2.309   4.634  0.7280 -0.7617  0.8348
   67TIP3   OH2  206   5.198   2.189   2.970  0.1807 -0.0061  0.1459
   67TIP3    H1  207   5.244   2.111   3.001  1.1270 -0.2438 -1.6908
   67TIP3    H2  208   5.236   2.206   2.883 -1.0359  1.6420 -0.1118
   68TIP3   OH2  209   1.812   4.493   4.501  0.1454 -0.4428 -0.1413
   68TIP3    H1  210   1.882   4.475   4.564  1.4263  1.8514 -0.8074
   68TIP3    H2  211   1.852   4.479   4.415  0.4014  2.4891 -0.5950
   69TIP3   OH2  212   4.964   4.184   5.016 -0.1681 -0.9775  0.3682
   69TIP3    H1  213   4.976   4.233   5.097  2.0325 -1.3129  0.3093
   69TIP3    H2  214   4.949   4.251   4.949 -2.1351 -0.7068  1.0025
   70TIP3   OH2  215   1.334   4.375   1.821  0.8884  0.1345 -0.0492
   70TIP3    H1  216   1.298   4.446   1.874 -0.3391 -0.2556 -0.3114
   70TIP3    H2  217   1.258   4.319   1.801  1.3668  0.0494 -1.8750
   71TIP3   OH2  218   3.255   4.201   3.840 -0.2586 -0.0943 -0.0953
   71TIP3    H1  219   3.333   4.252   3.820  0.4409 -1.2160 -0.3237
   71TIP3    H2  220   3.185   4.244   3.791  0.7084 -0.5724 -2.0131
   72TIP3   OH2  221   4.174   2.361   3.790 -0.3530 -0.0305  0.2353
   72TIP3    H1  222   4.266   2.335   3.789  0.2354  1.8047 -1.8674
   72TIP3    H2  223   4.126   2.278   3.788  1.3419 -1.0726 -1.6312
   73TIP3   OH2  224   4.063   3.387   1.389  0.4916 -0.1027  0.1696
   73TIP3    H1  225   3.999   3.418   1.453  0.2216  0.4270 -0.3474
   73TIP3    H2  226   4.088   3.300   1.420 -0.0489 -0.0793  0.6883
   74TIP3   OH2  227   1.436   5.537   3.276 -0.4245 -0.2583 -0.0405
   74TIP3    H1  228   1.517   5.566   3.317  0.6437  0.2094 -2.3514
   74TIP3    H2  229   1.441   5.442   3.276 -0.0159 -0.2378  0.0992
   75TIP3   OH2  230   1.785   0.661   0.062  0.0808 -0.2855  0.1928
   75TIP3    H1  231   1.772   0.740   0.010  1.4634 -1.6789 -2.5192
   75TIP3    H2  232   1.876   0.635   0.044  0.2924 -1.4725  2.5508
   76TIP3   OH2  233   4.583   1.959   1.143  0.1039  0.3962  0.2249
   76TIP3    H1  234   4.498   1.973   1.100  0.4858  0.4606 -0.5231
   76TIP3    H2  235   4.648   1.982   1.076  0.7206 -0.5948  0.4648
   77TIP3   OH2  236   0.201   4.291   0.036 -0.6983  0.0540  0.4700
   77TIP3    H1  237   0.127   4.352   0.038  0.2605  1.2422  0.6758
   77TIP3    H2  238   0.161   4.207   0.014 -1.7975  1.1374 -2.1605
   78TIP3   OH2  239   5.207   3.680   0.797 -0.3560  0.2651  0.0390
   78TIP3    H1  240   5.251   3.742   0.739  1.4778 -1.3496 -0.4415
   78TIP3    H2  241   5.114   3.688   0.776 -0.0649  2.1202 -0.6743
   79TIP3   OH2  242   5.606   1.736   3.067  0.1670 -0.0173 -0.8497
   79TIP3    H1  243   5.640   1.652   3.038  1.1255  0.1783 -0.3332
   79TIP3    H2  244   5.625   1.796   2.995  1.3242  0.1764 -0.4096
   80TIP3   OH2  245   3.078   3.599   3.418  0.2277 -0.1607 -0.1111
   80TIP3    H1  246   2.986   3.617   3.401  0.5724  1.8943 -0.1479
   80TIP3    H2  247   3.106   3.543   3.346 -0.6824  0.3246 -0.8624
   81TIP3   OH2  248   4.373   5.152   2.098 -0.0963 -0.0749 -0.2575
   81TIP3    H1  249   4.335   5.102   2.026 -1.8804  1.1942 -0.2648
   81TIP3    H2  250   4.423   5.222   2.056 -1.0253  0.5850 -0.2855
   82TIP3   OH2  251   6.156   2.833   5.136 -0.1410 -0.4486  0.1423
   82TIP3    H1  252   6.117   2.914   5.169  0.4045 -0.5660  1.1240
   82TIP3    H2  253   6.089   2.766   5.152 -0.7142 -0.1643 -0.9472
   83TIP3   OH2  254   6.315   5.106   0.340  0.3486  0.3852 -0.1951
   83TIP3    H1  255   6.321   5.034   0.403  1.0359  0.2468 -0.4045
   83TIP3    H2  256   6.347   5.068   0.258 -1.6245  0.2234 -0.9395
   84TIP3   OH2  257   3.921   0.529   2.114 -0.4029  0.2961 -0.2920
   84TIP3    H1  258   3.932   0.462   2.047  0.2393  0.6983 -0.6097
   84TIP3    H2  259   3.827   0.542   2.121 -0.5487 -0.8739  0.0213
   85TIP3   OH2  260   2.935   3.313   1.786  0.2513  0.1676  0.5762
   85TIP3    H1  261   2.871   3.354   1.728  1.1469 -1.6409 -1.8545
   85TIP3    H2  262   2.893   3.314   1.872 -1.6736  1.8619 -0.2982
   86TIP3   OH2  263   1.367   3.603   4.871 -0.0106 -0.0320  0.7767
   86TIP3    H1  264   1.356   3.555   4.789  2.8690  1.0553 -0.3817
   86TIP3    H2  265   1.409   3.539   4.930 -2.7330 -1.0430  1.7744
   87TIP3   OH2  266   3.783   3.767   0.706  0.2380 -0.5842 -0.1357
   87TIP3    H1  267   3.795   3.717   0.626 -1.9795 -1.4767  0.0148
   87TIP3    H2  268   3.717   3.832   0.683 -1.4721 -1.7382  1.2659
   88TIP3   OH2  269   3.124   4.855   4.259 -0.3544 -0.6036 -0.7398
   88TIP3    H1  270   3.063   4.889   4.325  2.8675  1.8541  1.2854
   88TIP3    H2  271   3.198   4.822   4.309  1.2691 -0.7705 -3.0786
   89TIP3   OH2  272   0.842   1.808   0.564  0.4271  0.2788  0.3513
   89TIP3    H1  273   0.767   1.849   0.607 -0.3370  0.9732 -1.5336
   89TIP3    H2  274   0.893   1.769   0.636 -1.1070  0.7974  1.7806
   90TIP3   OH2  275   0.858   2.634   5.014  0.1430 -0.0257 -0.2131
   90TIP3    H1  276   0.850   2.562   5.076 -0.9544  1.2138  1.1551
   90TIP3    H2  277   0.793   2.615   4.946  1.1861 -1.2650 -0.9111
   91TIP3   OH2  278   0.957   3.090   5.009 -0.3041  0.3280 -0.4770
   91TIP3    H1  279   0.908   3.151   5.063 -0.6608 -0.2739 -0.1102
   91TIP3    H2  280   0.985   3.142   4.933 -0.9584  0.8336 -0.3780
   92TIP3   OH2  281   5.144   2.492   3.398  0.3168 -0.1465 -0.0091
   92TIP3    H1  282   5.084   2.430   3.439  0.0847  1.6066  2.5476
   92TIP3    H2  283   5.102   2.577   3.409  2.9902  1.1070  1.5525
   93TIP3   OH2  284   2.694   0.350   2.837 -0.3666 -0.0963 -0.8481
   93TIP3    H1  285   2.749   0.287   2.791  0.0703 -1.9766  1.9413
   93TIP3    H2  286   2.754   0.396   2.896 -1.2573  0.0824 -0.0374
   94TIP3   OH2  287   6.309   4.496   4.838  0.5500  0.0746 -0.8052
   94TIP3    H1  288   6.270   4.576   4.802 -1.0978 -0.0282  0.6431
   94TIP3    H2  289   6.329   4.519   4.929 -0.2018 -1.2473 -0.2956
   95TIP3   OH2  290   1.577   4.394   0.407  0.2022  0.1588  0.0653
   95TIP3    H1  291   1.550   4.384   0.316  0.3764 -1.3005  0.1602
   95TIP3    H2  292   1.652   4.453   0.403 -0.3538  0.8393 -0.6294
   96TIP3   OH2  293   0.225   1.787   5.032  0.4589 -0.2531  0.2676
   96TIP3    H1  294   0.310   1.811   5.070 -0.1816 -0.5046  1.9523
   96TIP3    H2  295   0.163   1.798   5.105 -0.8426 -0.7688 -0.7335
   97TIP3   OH2  296   2.354   2.772   3.147 -1.0749 -0.4105  0.6934
   97TIP3    H1  297   2.266   2.738   3.160 -1.5309 -0.3384 -1.7699
   97TIP3    H2  298   2.341   2.859   3.108  0.0833 -0.6109 -0.1865
   98TIP3   OH2  299   5.164   0.091   5.207  0.1537  0.2320  0.2682
   98TIP3    H1  300   5.227   0.104   5.137  0.4244 -0.9922  0.2690
   98TIP3    H2  301   5.080   0.115   5.169  0.1195 -1.5962 -0.8754
   99TIP3   OH2  302   2.187   5.372   1.700  0.1418 -0.3181 -0.3422
   99TIP3    H1  303   2.092   5.371   1.695 -0.1123 -0.0265  2.7277
   99TIP3    H2  304   2.211   5.464   1.685 -0.1412 -0.1875  0.0141
  100TIP3   OH2  305   2.123   3.116   2.877 -0.1139  0.1541  0.5000
  100TIP3    H1  306   2.031   3.093   2.891 -0.2869  0.8166  0.4799
  100TIP3    H2  307   2.123   3.169   2.798  0.4930 -1.1134 -0.3754
  101TIP3   OH2  308   4.483   1.121   1.434  0.4394  0.0034 -0.4774
  101TIP3    H1  309   4.541   1.182   1.479  2.0244 -0.8198 -1.3029
  101TIP3    H2  310   4.510   1.127   1.342 -0.6877 -0.5262 -0.8530
  102TIP3   OH2  311   2.483   0.241   5.172  0.1949 -0.5519  0.2550
  102TIP3    H1  312   2.501   0.185   5.097 -2.1110 -1.0211 -0.0163
  102TIP3    H2  313   2.404   0.289   5.148  1.5554  2.2149  0.8438
  103TIP3   OH2  314   2.941   0.730   4.338  0.5025  0.3940 -0.3321
  103TIP3    H1  315   2.907   0.703   4.253 -0.6048  0.5281  0.0547
  103TIP3    H2  316   3.016   0.786   4.318  0.4899  0.1048 -1.2068
  104TIP3   OH2  317   1.531   4.103   0.790 -0.5371  0.6172 -0.3544
  104TIP3    H1  318   1.440   4.115   0.814 -0.0615  2.7106  0.6385
  104TIP3    H2  319   1.578   4.099   0.874  0.4415  1.2052 -0.8517
  105TIP3   OH2  320   1.907   0.226   2.936 -0.0181 -0.1784  0.3612
  105TIP3    H1  321   1.933   0.143   2.976 -0.5798 -1.1225 -1.1166
  105TIP3    H2  322   1.989   0.274   2.924  0.6170 -1.4365 -0.6561
  106TIP3   OH2  323   1.713   5.447   3.967 -0.2745 -0.0826 -0.6609
  106TIP3    H1  324   1.647   5.408   4.023  0.5321  0.3968  0.6799
  106TIP3    H2  325   1.667   5.516   3.919 -0.6510  0.6404  0.6862
  107TIP3   OH2  326   1.925   4.454   4.241 -0.1354 -0.4576  0.0058
  107TIP3    H1  327   1.993   4.421   4.182 -0.1652 -0.7953  0.1596
  107TIP3    H2  328   1.911   4.545   4.213 -1.5439 -1.1634 -1.8128
  108TIP3   OH2  329   3.841   1.949   3.552 -0.5859  0.6328 -0.2627
  108TIP3    H1  330   3.826   2.007   3.627  0.6271 -1.9523  2.1565
  108TIP3    H2  331   3.928   1.914   3.566 -1.0158 -1.2946 -1.9421
  109TIP3   OH2  332   3.144   1.413   1.839 -0.0149 -0.2134 -0.2618
  109TIP3    H1  333   3.205   1.487   1.836 -0.0164 -0.1357  1.0383
  109TIP3    H2  334   3.136   1.392   1.932 -2.0416 -0.1544 -0.3658
  110TIP3   OH2  335   0.241   1.772   4.440  0.5153 -0.5035  0.1435
  110TIP3    H1  336   0.232   1.702   4.505  0.1064 -1.3330 -0.7694
  110TIP3    H2  337   0.211   1.732   4.358  1.0681  0.4918 -0.5685
  111TIP3   OH2  338   4.480   1.325   1.777  0.3375  0.3232 -0.1235
  111TIP3    H1  339   4.540   1.339   1.704 -0.4696  0.1232 -0.8398
  111TIP3    H2  340   4.490   1.232   1.799 -0.6589 -0.0429 -1.1243
  112TIP3   OH2  341   4.340   2.036   2.020 -0.2385  0.1985 -0.3042
  112TIP3    H1  342   4.331   2.084   2.103  0.7329 -0.0035 -0.0701
  112TIP3    H2  343   4.292   2.089   1.957 -0.3739  0.7399  0.2399
  113TIP3   OH2  344   3.972   2.752   4.430 -0.2352  0.1428  0.0916
  113TIP3    H1  345   3.884   2.789   4.433  0.4053  1.6724  1.5143
  113TIP3    H2  346   4.016   2.798   4.358 -0.0219  0.8178  0.6407
  114TIP3   OH2  347   0.372   0.927   2.499 -0.7155 -0.1756 -0.3484
  114TIP3    H1  348   0.298   0.915   2.440 -0.5670 -1.5365 -0.2766
  114TIP3    H2  349   0.348   0.880   2.579 -0.3265  0.4823  0.1693
  115TIP3   OH2  350   5.874   3.421   4.434  0.0743  0.0189 -0.2113
  115TIP3    H1  351   5.934   3.422   4.509 -0.4678  0.7424  0.2255
  115TIP3    H2  352   5.788   3.437   4.472 -0.1979  0.4887 -1.0085
  116TIP3   OH2  353   5.504   1.733   4.401 -0.4764 -0.4161 -0.2008
  116TIP3    H1  354   5.499   1.826   4.377  0.2080 -0.0671  0.9544
  116TIP3    H2  355   5.446   1.725   4.477 -1.0850 -1.1036 -0.7172
  117TIP3   OH2  356   0.506   0.786   0.768  0.5317  0.1865 -0.3270
  117TIP3    H1  357   0.551   0.755   0.847  0.5794  0.7225 -0.1446
  117TIP3    H2  358   0.429   0.833   0.801  0.5190  0.3583 -0.6029
  118TIP3   OH2  359   3.669   5.513   0.223 -0.1295  0.0127 -0.1392
  118TIP3    H1  360   3.610   5.438   0.216 -1.5015  0.8264  1.8681
  118TIP3    H2  361   3.730   5.489   0.292 -1.4561  1.2418  1.5239
  119TIP3   OH2  362   5.362   3.305   3.217 -0.1558 -0.6749 -0.2100
  119TIP3    H1  363   5.377   3.380   3.274  0.4399 -0.9203 -0.0284
  119TIP3    H2  364   5.322   3.341   3.138 -1.5690 -0.4121  0.6085
  120TIP3   OH2  365   4.043   1.076   4.070  0.4463  0.3183 -0.4045
  120TIP3    H1  366   4.124   1.109   4.032  1.1054 -0.6105  0.1628
  120TIP3    H2  367   4.023   1.139   4.140  0.5713  0.6544 -0.6696
  121TIP3   OH2  368   2.250   1.168   1.941 -0.0954  0.4417  0.1115
  121TIP3    H1  369   2.192   1.230   1.984  0.2698  0.8064  0.0808
  121TIP3    H2  370   2.202   1.140   1.862 -1.2620 -1.0863  1.2938
  122TIP3   OH2  371   6.051   0.276   3.212 -0.3660 -0.0731 -0.2217
  122TIP3    H1  372   6.058   0.317   3.126  0.7741  0.9530  0.3340
  122TIP3    H2  373   6.077   0.185   3.197  1.2874  0.4442 -0.7125
  123TIP3   OH2  374   2.822   5.355   4.572  0.5334 -0.0548 -0.0045
  123TIP3    H1  375   2.870   5.429   4.610  0.7578 -0.8856  1.3731
  123TIP3    H2  376   2.733   5.363   4.605  0.3035  0.1678 -0.6723
  124TIP3   OH2  377   3.135   5.600   0.877  0.6151  0.4543 -0.0369
  124TIP3    H1  378   3.048   5.634   0.855  0.3348  0.3060  0.7970
  124TIP3    H2  379   3.135   5.511   0.843  0.2222  0.2565  0.4771
  125TIP3   OH2  380   3.817   1.061   1.652  0.2455 -0.2771  0.3092
  125TIP3    H1  381   3.796   1.081   1.561  2.1612  1.6737  0.2172
  125TIP3    H2  382   3.764   1.122   1.703 -0.3560 -0.9402  0.4923
  126TIP3   OH2  383   2.866   4.981   3.162  0.3951  0.2154 -0.2603
  126TIP3    H1  384   2.946   4.959   3.115 -0.4224 -1.2427 -1.0470
  126TIP3    H2  385   2.805   5.011   3.093 -0.3752 -0.6266  0.0404
  127TIP3   OH2  386   3.243   1.294   3.186  0.0206  0.2554 -0.7173
  127TIP3    H1  387   3.289   1.233   3.244 -0.5798  1.2796  0.8759
  127TIP3    H2  388   3.160   1.250   3.167  0.9801 -0.9367 -2.4113
  128TIP3   OH2  389   0.921   2.487   0.370  0.0147  0.2023  0.3412
  128TIP3    H1  390   0.999   2.515   0.322  0.7641 -0.3391  1.2445
  128TIP3    H2  391   0.938   2.396   0.394 -0.0036  0.6957  2.3254
  129TIP3   OH2  392   3.849   3.808   4.967 -0.3834 -0.1337 -0.0138
  129TIP3    H1  393   3.889   3.724   4.946 -1.4630 -0.2066 -2.0554
  129TIP3    H2  394   3.915   3.873   4.940 -0.2136 -0.2954  0.0094
  130TIP3   OH2  395   1.517   3.180   4.016  0.1349  0.2215 -0.0408
  130TIP3    H1  396   1.611   3.173   4.029 -0.1927 -1.2785  2.0795
  130TIP3    H2  397   1.485   3.225   4.094 -0.8946  0.8875 -0.8236
  131TIP3   OH2  398   2.530   5.872   1.363  0.0630  0.3857 -0.8202
  131TIP3    H1  399   2.436   5.861   1.352  0.1481 -2.1130  0.3155
  131TIP3    H2  400   2.567   5.854   1.276 -0.3524 -2.0295 -0.5635
  132TIP3   OH2  401   0.742   1.137   1.345 -0.1554  0.7526  0.1832
  132TIP3    H1  402   0.799   1.194   1.396  1.3012  0.1649 -0.6978
  132TIP3    H2  403   0.674   1.194   1.310 -0.1241  1.4761  1.2859
  133TIP3   OH2  404   1.445   4.397   4.026  0.4048  0.4525  0.0041
  133TIP3    H1  405   1.445   4.435   4.114  1.2658  0.8514 -0.1587
  133TIP3    H2  406   1.421   4.305   4.039 -1.0905  0.8838  0.4682
  134TIP3   OH2  407   1.687   2.824   3.124  0.3455 -0.1628  0.1579
  134TIP3    H1  408   1.660   2.796   3.212 -1.4981  0.9323  0.0110
  134TIP3    H2  409   1.775   2.789   3.113  0.4287 -0.7498  2.2500
  135TIP3   OH2  410   4.500   3.077   2.658  0.1290  0.1006 -0.3901
  135TIP3    H1  411   4.571   3.140   2.660 -1.4176  1.9479 -0.6102
  135TIP3    H2  412   4.486   3.053   2.750  1.4156 -0.8066 -0.3991
  136TIP3   OH2  413   1.707   4.952   0.161  0.3760 -0.2038 -0.4985
  136TIP3    H1  414   1.729   4.891   0.232 -0.1392 -0.2426 -0.3669
  136TIP3    H2  415   1.792   4.973   0.121  0.5287 -1.2532 -0.7572
  137TIP3   OH2  416   5.699   3.801   4.156  0.4281  0.1061  0.7196
  137TIP3    H1  417   5.779   3.819   4.107 -0.1208 -0.0072 -0.2558
  137TIP3    H2  418   5.643   3.877   4.138  0.7567  0.7958  2.4073
  138TIP3   OH2  419   4.319   5.563   1.142  0.7482  0.4241  0.1718
  138TIP3    H1  420   4.296   5.649   1.106 -0.9653 -0.5428 -1.2248
  138TIP3    H2  421   4.360   5.517   1.069  1.3251 -0.0908  0.8059
  139TIP3   OH2  422   2.989   5.895   2.222  0.6379  0.0335 -0.1308
  139TIP3    H1  423   2.946   5.844   2.291 -0.5036  0.4189 -0.5426
  139TIP3    H2  424   3.011   5.978   2.264  0.7479 -0.0616  0.0029
  140TIP3   OH2  425   0.609   4.603   3.732 -0.2274 -0.0707 -0.0415
  140TIP3    H1  426   0.527   4.554   3.739  0.1242 -0.6134  0.2916
  140TIP3    H2  427   0.645   4.604   3.820 -0.2066  0.7571 -0.0523
  141TIP3   OH2  428   6.124   3.099   4.961 -0.7496  0.1792  0.3530
  141TIP3    H1  429   6.158   3.029   4.905 -1.2397 -0.0804  0.3838
  141TIP3    H2  430   6.171   3.178   4.931 -1.3465  0.1376 -0.7477
  142TIP3   OH2  431   2.222   4.718   0.642  0.3020  0.0326 -0.1776
  142TIP3    H1  432   2.215   4.813   0.626  1.8984  0.0805 -0.7886
  142TIP3    H2  433   2.268   4.712   0.725 -0.8035 -0.2336  0.4342
  143TIP3   OH2  434   0.751   5.620   4.032 -0.0765  0.0056 -0.0448
  143TIP3    H1  435   0.666   5.581   4.049  0.0310  0.1590  0.8702
  143TIP3    H2  436   0.742   5.661   3.946 -1.0128  0.2672  0.1719
  144TIP3   OH2  437   2.304   3.084   4.227 -0.6210 -0.8839  0.3160
  144TIP3    H1  438   2.350   3.168   4.231 -2.2104  0.0329  3.8747
  144TIP3    H2  439   2.251   3.089   4.148  1.0983  0.4180 -0.8006
  145TIP3   OH2  440   1.757   1.027   2.546 -0.4018  0.0148  0.4520
  145TIP3    H1  441   1.813   0.966   2.497 -0.7104 -1.0124  1.3433
  145TIP3    H2  442   1.717   0.973   2.615 -3.2633  0.4414 -0.7213
  146TIP3   OH2  443   1.798   1.222   0.191  0.5562 -0.5548 -0.0473
  146TIP3    H1  444   1.805   1.209   0.096 -1.9667 -0.6961 -0.2643
  146TIP3    H2  445   1.880   1.267   0.214  2.2644 -2.4439 -1.8902
  147TIP3   OH2  446   3.309   3.397   4.097 -0.2743 -0.9258  0.0127
  147TIP3    H1  447   3.369   3.358   4.034  1.5024 -0.2758  1.2320
  147TIP3    H2  448   3.286   3.325   4.156  0.8255 -0.7688  0.6497
  148TIP3   OH2  449   4.990   3.167   0.288 -0.2466  0.2579 -0.4139
  148TIP3    H1  450   4.982   3.076   0.262 -0.4860  0.3486 -0.6668
  148TIP3    H2  451   4.972   3.217   0.208 -1.7947  0.5537  0.0772
  149TIP3   OH2  452   4.023   5.877   0.606  0.4268  0.7076  0.2638
  149TIP3    H1  453   3.984   5.797   0.571 -0.8686  1.0801  0.7951
  149TIP3    H2  454   4.020   5.866   0.701 -0.8470  1.8559  0.3881
  150TIP3   OH2  455   0.026   0.226   3.375  0.1128  0.0906 -0.1012
  150TIP3    H1  456  -0.029   0.155   3.343 -1.0958  0.6317  0.7059
  150TIP3    H2  457   0.021   0.293   3.306  2.0432 -0.9162 -1.3329
  151TIP3   OH2  458   2.160   0.837   0.963  0.2739 -0.8223  0.2526
  151TIP3    H1  459   2.226   0.771   0.940 -0.1986 -0.5776 -2.0705
  151TIP3    H2  460   2.076   0.792   0.953 -0.0081 -1.0861  3.0480
  152TIP3   OH2  461   4.568   1.647   1.535 -0.0087 -0.2903 -0.2773
  152TIP3    H1  462   4.600   1.649   1.625 -2.9365 -0.2543  0.8845
  152TIP3    H2  463   4.569   1.739   1.508 -0.1088 -0.1644  0.1315
  153TIP3   OH2  464   5.729   3.520   0.290  0.5164 -0.2705 -0.5640
  153TIP3    H1  465   5.749   3.544   0.381  0.2834 -1.7643 -0.0956
  153TIP3    H2  466   5.668   3.587   0.261 -1.1608 -0.9797  1.1241
  154TIP3   OH2  467   4.539   3.910   4.523  0.2788 -0.6958 -0.7270
  154TIP3    H1  468   4.590   3.868   4.592 -1.6209  0.8583  1.7767
  154TIP3    H2  469   4.453   3.923   4.561 -0.4975  1.4110 -2.9531
  155TIP3   OH2  470   5.564   5.778   4.638 -0.1227 -0.0432 -0.1431
  155TIP3    H1  471   5.539   5.835   4.711 -0.5378 -0.7353  0.2739
  155TIP3    H2  472   5.484   5.728   4.619  0.0222  0.0363 -0.9872
  156TIP3   OH2  473   2.898   4.091   1.425 -0.1451 -0.5753 -0.0705
  156TIP3    H1  474   2.866   4.136   1.503  0.1534  0.5375 -0.5658
  156TIP3    H2  475   2.952   4.157   1.380 -0.4776 -1.1229 -1.3130
  157TIP3   OH2  476   0.162   3.399   0.887 -0.0499 -0.2916  0.4251
  157TIP3    H1  477   0.067   3.387   0.882 -0.1172  0.2377  0.3456
  157TIP3    H2  478   0.198   3.311   0.875 -0.5637 -0.7165  1.8609
  158TIP3   OH2  479   5.154   2.417   1.118  0.0636 -0.3530 -0.4199
  158TIP3    H1  480   5.158   2.429   1.023  0.9709  1.3789 -0.2048
  158TIP3    H2  481   5.236   2.374   1.141 -0.9099 -2.4071 -0.5757
  159TIP3   OH2  482   3.545   0.517   0.637  0.3908 -0.2923 -0.4079
  159TIP3    H1  483   3.591   0.499   0.719 -0.7460 -0.6767  0.1618
  159TIP3    H2  484   3.455   0.492   0.654 -0.1400  0.8883 -1.3600
  160TIP3   OH2  485   5.895   1.539   0.886  0.1177  0.1603 -0.1770
  160TIP3    H1  486   5.905   1.630   0.857  0.4775 -0.2038 -1.2468
  160TIP3    H2  487   5.806   1.516   0.862 -0.1591  0.3933  0.5985
  161TIP3   OH2  488   5.200   5.750   3.504  0.6382 -0.8588  0.1907
  161TIP3    H1  489   5.183   5.758   3.598 -1.0078 -0.2731 -0.1141
  161TIP3    H2  490   5.293   5.729   3.497  0.9536 -0.1392  1.9078
  162TIP3   OH2  491   3.429   5.088   2.552  0.1128 -0.2138 -0.0242
  162TIP3    H1  492   3.342   5.050   2.545 -0.3311  0.6244  0.7389
  162TIP3    H2  493   3.423   5.172   2.506  0.6040 -0.2869 -0.2281
  163TIP3   OH2  494   2.433   5.654   3.184  0.4416 -0.0160 -0.4205
  163TIP3    H1  495   2.395   5.583   3.132  0.5522 -0.4838  0.1186
  163TIP3    H2  496   2.412   5.630   3.275  3.1238 -0.9765  0.0285
  164TIP3   OH2  497   3.156   5.501   2.850 -0.0018 -0.3002 -0.2880
  164TIP3    H1  498   3.069   5.514   2.886 -0.1536 -0.8933 -0.4458
  164TIP3    H2  499   3.200   5.443   2.912  0.8115  1.2236  0.6186
  165TIP3   OH2  500   6.137   0.880   2.565  0.0099  0.3283 -0.0182
  165TIP3    H1  501   6.098   0.936   2.499 -0.7283 -0.3629 -0.1873
  165TIP3    H2  502   6.079   0.888   2.641  0.4261  0.5245  0.2816
  166TIP3   OH2  503   1.716   2.471   3.461  0.3258 -0.1363 -0.0177
  166TIP3    H1  504   1.674   2.493   3.378  0.2998 -1.4325 -0.3825
  166TIP3    H2  505   1.683   2.536   3.523 -1.7399 -0.7097 -0.4309
  167TIP3   OH2  506   3.110   4.701   2.704  0.2675 -0.3164 -0.2970
  167TIP3    H1  507   3.158   4.661   2.777 -0.2551 -0.8768 -0.2480
  167TIP3    H2  508   3.129   4.645   2.629 -0.0515 -0.3663 -0.3434
  168TIP3   OH2  509   5.127   2.626   0.557  0.5264  0.7872  0.5459
  168TIP3    H1  510   5.090   2.695   0.613 -0.2796 -0.8664  2.1839
  168TIP3    H2  511   5.181   2.575   0.617  0.0736 -0.7383 -0.3057
  169TIP3   OH2  512   1.231   0.898   4.113 -0.2068 -0.4839 -0.1218
  169TIP3    H1  513   1.168   0.947   4.166 -1.4720 -0.7839 -1.2973
  169TIP3    H2  514   1.316   0.937   4.135 -0.6095 -0.8450  2.3744
  170TIP3   OH2  515   6.304   1.580   2.030 -0.2303  0.3843  0.0261
  170TIP3    H1  516   6.270   1.654   2.080 -1.7076  0.7142 -1.3904
  170TIP3    H2  517   6.370   1.619   1.972  0.8632  0.1383  1.0662
  171TIP3   OH2  518   5.748   3.198   4.746 -0.1554 -0.2450 -0.3111
  171TIP3    H1  519   5.803   3.235   4.815  1.1101 -1.7046 -0.4790
  171TIP3    H2  520   5.722   3.274   4.694 -1.1928  0.8967  1.7440
  172TIP3   OH2  521   0.634   5.593   1.977 -0.1646  0.1869  0.1703
  172TIP3    H1  522   0.597   5.509   1.950 -1.0769  0.6172  0.0314
  172TIP3    H2  523   0.728   5.578   1.982 -0.2793 -0.7255 -0.2675
  173TIP3   OH2  524   1.217   0.649   0.215  0.0585  0.2288 -0.1687
  173TIP3    H1  525   1.182   0.563   0.193  0.6979 -0.0591 -0.0993
  173TIP3    H2  526   1.247   0.685   0.131 -0.9619  0.7391 -0.3226
  174TIP3   OH2  527   6.317   3.049   4.233  0.4502 -0.0424 -0.4447
  174TIP3    H1  528   6.332   3.046   4.138  0.4637 -2.3662 -0.4217
  174TIP3    H2  529   6.230   3.011   4.245  0.0116  1.1749  0.4265
  175TIP3   OH2  530   1.894   2.755   1.291 -0.4789  0.6187  0.2391
  175TIP3    H1  531   1.939   2.810   1.227  0.4385  0.9758  1.1587
  175TIP3    H2  532   1.964   2.717   1.343 -1.1219 -1.0375 -0.0383
  176TIP3   OH2  533   3.920   0.946   2.413  0.3729  0.4120 -0.2139
  176TIP3    H1  534   3.941   0.990   2.496  1.8630  0.7204 -0.7219
  176TIP3    H2  535   4.005   0.925   2.375 -0.3029 -0.5532 -1.2446
  177TIP3   OH2  536   0.479   5.529   4.035 -0.3667  0.1986 -0.0335
  177TIP3    H1  537   0.423   5.458   4.065  2.2055 -2.1293 -0.3433
  177TIP3    H2  538   0.458   5.538   3.942 -2.3096  1.5261  0.4710
  178TIP3   OH2  539   1.468   4.629   4.886 -0.0517 -0.4333  0.0342
  178TIP3    H1  540   1.387   4.626   4.835  0.6631  1.0267 -1.2961
  178TIP3    H2  541   1.523   4.561   4.847  0.8077  1.2334 -1.8237
  179TIP3   OH2  542   1.776   0.648   3.896  0.8461  0.6064  0.2979
  179TIP3    H1  543   1.843   0.582   3.877  0.1982 -0.1937  0.7149
  179TIP3    H2  544   1.718   0.646   3.819  0.0536 -0.3065  0.9035
  180TIP3   OH2  545   6.239   3.282   2.297 -0.0484  0.6415 -0.4249
  180TIP3    H1  546   6.212   3.234   2.375  2.4791  0.4287  0.3891
  180TIP3    H2  547   6.298   3.351   2.329 -1.9353  3.0690 -1.7758
  181TIP3   OH2  548   2.624   1.034   5.038 -0.1157  0.8673  0.5830
  181TIP3    H1  549   2.570   1.062   5.112 -0.9438 -0.0024  0.3289
  181TIP3    H2  550   2.616   1.104   4.974 -1.0017  0.7221  0.5274
  182TIP3   OH2  551   4.819   1.172   0.193 -0.9085  0.0746 -0.1511
  182TIP3    H1  552   4.906   1.211   0.182 -0.4527 -0.1554  2.2284
  182TIP3    H2  553   4.815   1.105   0.125  0.7127  0.1926 -0.4057
  183TIP3   OH2  554   2.996   4.852   1.813  0.1318 -0.0624  0.0072
  183TIP3    H1  555   3.033   4.844   1.901 -0.1216  0.7623  0.1931
  183TIP3    H2  556   3.062   4.899   1.763  0.3702 -0.7199 -0.3150
  184TIP3   OH2  557   5.158   4.084   1.363  0.2845  0.1653  0.3327
  184TIP3    H1  558   5.077   4.131   1.385  0.8581  1.9059 -1.1225
  184TIP3    H2  559   5.130   3.993   1.350 -1.5949  0.8683 -0.8988
  185TIP3   OH2  560   1.657   5.037   1.019  0.5854  0.2047 -0.6614
  185TIP3    H1  561   1.598   5.108   1.045 -0.6461 -0.3530 -1.7497
  185TIP3    H2  562   1.645   5.031   0.924  3.2350  0.7521 -1.1013
  186TIP3   OH2  563   3.700   3.757   4.499 -0.6405 -0.1414 -0.1553
  186TIP3    H1  564   3.755   3.832   4.523  0.3918 -0.6374 -0.8575
  186TIP3    H2  565   3.663   3.726   4.581  1.4080 -0.7420  0.6217
  187TIP3   OH2  566   3.449   1.726   3.066 -0.1255 -0.2148  0.3850
  187TIP3    H1  567   3.408   1.751   2.984 -1.6607  1.1510  1.5001
  187TIP3    H2  568   3.439   1.631   3.070 -1.4777 -0.1266 -0.3026
  188TIP3   OH2  569   2.802   5.105   2.373  0.2216  0.3108 -0.3426
  188TIP3    H1  570   2.724   5.061   2.339 -0.1853  1.5419 -1.0905
  188TIP3    H2  571   2.875   5.050   2.343 -0.2581  0.1988 -1.3637
  189TIP3   OH2  572   0.061   3.953   1.498  0.4876  0.1683  0.8354
  189TIP3    H1  573   0.107   4.033   1.472  1.5993 -0.7386 -0.0866
  189TIP3    H2  574  -0.006   3.941   1.430  0.2975  0.3323  0.9932
  190TIP3   OH2  575   0.826   3.289   5.173 -0.4684 -0.3292  0.1597
  190TIP3    H1  576   0.745   3.262   5.130 -1.2716 -1.5318  2.3021
  190TIP3    H2  577   0.811   3.381   5.197 -0.6155 -0.1189 -0.6955
  191TIP3   OH2  578   4.963   1.974   4.717 -0.1198 -0.2056  0.0633
  191TIP3    H1  579   4.916   2.048   4.757 -1.5737 -1.0311 -0.0660
  191TIP3    H2  580   4.987   1.918   4.791 -1.0060 -0.7067 -0.0111
  192TIP3   OH2  581   4.150   4.295   1.076 -0.2006  0.2436  0.0596
  192TIP3    H1  582   4.121   4.319   0.988 -1.6495 -1.0675  0.1169
  192TIP3    H2  583   4.115   4.206   1.088 -1.5860  1.0294  2.5885
  193TIP3   OH2  584   0.618   3.059   0.506 -0.2040  0.1466 -0.2252
  193TIP3    H1  585   0.639   3.146   0.471 -0.1353  1.4086  2.6370
  193TIP3    H2  586   0.523   3.052   0.496 -0.0546 -0.0706 -1.6854
  194TIP3   OH2  587   0.657   3.754   2.414  0.3431 -0.1546 -0.1007
  194TIP3    H1  588   0.724   3.797   2.468 -0.0931  1.9665 -1.1220
  194TIP3    H2  589   0.706   3.707   2.347  0.8527  1.3446 -0.8176
  195TIP3   OH2  590   3.619   4.348   1.232  0.0586  0.4783  0.8235
  195TIP3    H1  591   3.612   4.422   1.293 -0.2655  0.8533  0.3429
  195TIP3    H2  592   3.697   4.367   1.180  1.1171 -0.5207  1.9948
  196TIP3   OH2  593   0.070   4.578   4.088  0.1710  0.0620  0.4698
  196TIP3    H1  594   0.161   4.587   4.060 -0.3081 -0.2120 -1.2848
  196TIP3    H2  595   0.022   4.640   4.034 -0.8737 -0.8645  0.3112
  197TIP3   OH2  596   0.571   4.189   3.207 -0.8458 -0.3833 -0.3352
  197TIP3    H1  597   0.593   4.101   3.238  1.5689 -0.5687 -2.2937
  197TIP3    H2  598   0.602   4.247   3.277 -0.4599 -0.9882  0.0116
  198TIP3   OH2  599   5.339   1.289   2.789 -0.0199  0.7035  0.4105
  198TIP3    H1  600   5.374   1.377   2.799  0.9279  0.5969 -1.5385
  198TIP3    H2  601   5.246   1.301   2.774  0.2261  1.4435 -0.5947
  199TIP3   OH2  602   5.359   4.199   4.271  0.0865 -0.6355  0.1050
  199TIP3    H1  603   5.378   4.290   4.295 -0.2527 -0.6308  0.3574
  199TIP3    H2  604   5.352   4.153   4.354  0.2449 -0.8935 -0.0230
  200TIP3   OH2  605   3.332   5.190   1.346  0.7777  0.1443  0.2538
  200TIP3    H1  606   3.351   5.234   1.264  1.5761 -0.3393  0.1694
  200TIP3    H2  607   3.311   5.261   1.407 -1.0419  0.4396 -0.6482
  201TIP3   OH2  608   1.083   1.388   3.064  0.9565 -0.5027 -0.0622
  201TIP3    H1  609   1.024   1.454   3.027  1.3982  0.9266  1.6299
  201TIP3    H2  610   1.083   1.317   3.000  0.6687  1.2427 -2.1216
  202TIP3   OH2  611   5.176   5.657   4.236 -0.1789  0.5707  0.1783
  202TIP3    H1  612   5.246   5.699   4.186 -0.4978  0.0489 -0.7223
  202TIP3    H2  613   5.111   5.632   4.170 -0.1439 -1.0534  0.7287
  203TIP3   OH2  614  -0.030   0.607   0.331 -0.2799  0.2893 -0.0158
  203TIP3    H1  615  -0.022   0.517   0.301  0.3047  0.6868 -1.1115
  203TIP3    H2  616   0.059   0.641   0.331 -0.4559  0.7979  0.6672
  204TIP3   OH2  617   3.822   1.827   3.881 -0.5457 -0.0578  0.1257
  204TIP3    H1  618   3.903   1.819   3.831 -1.8623 -0.9243 -2.0768
  204TIP3    H2  619   3.804   1.921   3.885 -1.6142  0.0429 -3.3955
  205TIP3   OH2  620   0.098   2.627   0.436  0.2875 -0.6672  0.1049
  205TIP3    H1  621   0.044   2.617   0.358 -0.7730 -0.8079  0.8415
  205TIP3    H2  622   0.185   2.647   0.402 -0.2385 -0.3338 -1.1004
  206TIP3   OH2  623   4.947   0.139   2.556  0.6299 -0.2764  0.1529
  206TIP3    H1  624   4.944   0.235   2.563  1.3913 -0.3336  1.9331
  206TIP3    H2  625   4.857   0.111   2.573  0.6729  0.0793  1.0271
  207TIP3   OH2  626   3.160   3.045   2.051  0.4286 -0.2937  0.2436
  207TIP3    H1  627   3.134   3.066   1.962 -1.9207 -1.5605  0.5552
  207TIP3    H2  628   3.249   3.012   2.043  0.2315 -0.4489 -1.6456
  208TIP3   OH2  629   3.866   5.869   4.626 -0.4892  0.3163  0.1502
  208TIP3    H1  630   3.851   5.786   4.670 -1.1030 -0.1747 -0.9297
  208TIP3    H2  631   3.880   5.932   4.697  1.1252 -0.8938  0.9567
  209TIP3   OH2  632   0.627   0.059   3.704  0.2512  0.4553 -0.0476
  209TIP3    H1  633   0.706   0.107   3.676 -0.7309  1.6384 -0.8908
  209TIP3    H2  634   0.612   0.089   3.794  1.7358 -1.1337  0.8001
  210TIP3   OH2  635   6.112   2.308   2.907  0.2137  0.8848  0.6861
  210TIP3    H1  636   6.133   2.309   3.000  1.3537  0.3177  0.4639
  210TIP3    H2  637   6.194   2.280   2.865 -0.2102  1.3659 -0.5010
  211TIP3   OH2  638   4.023   1.869   1.614  0.6284 -0.2282 -0.3513
  211TIP3    H1  639   4.053   1.803   1.677  0.9757  0.4460  0.2062
  211TIP3    H2  640   3.986   1.818   1.542 -0.3425 -1.0022  0.6670
  212TIP3   OH2  641   3.874   3.098   3.036  0.1141  0.0469  0.1782
  212TIP3    H1  642   3.836   3.132   2.955 -0.6331  0.4188  0.6721
  212TIP3    H2  643   3.931   3.169   3.067 -0.5920  0.4372  0.6311
  213TIP3   OH2  644   2.616   1.145   3.748 -1.1277  0.0164  0.3608
  213TIP3    H1  645   2.596   1.192   3.830 -0.5652 -0.6471  0.8864
  213TIP3    H2  646   2.531   1.111   3.720 -1.2314 -0.2894  1.0144
  214TIP3   OH2  647   5.595   0.646   3.613 -0.4934 -0.0601  0.2242
  214TIP3    H1  648   5.547   0.727   3.632 -0.7995  0.3208 -1.8862
  214TIP3    H2  649   5.684   0.675   3.592 -0.5195 -0.2812 -0.2118
  215TIP3   OH2  650   5.455   0.192   0.769  0.0609 -0.0419 -0.0956
  215TIP3    H1  651   5.469   0.100   0.747  0.4188 -0.0336  0.0927
  215TIP3    H2  652   5.370   0.213   0.730 -0.1015 -0.4980  0.0047
  216TIP3   OH2  653   3.686   0.671   2.964  0.4080  0.3887  0.1855
  216TIP3    H1  654   3.763   0.677   3.021  0.4520 -2.0310  0.4598
  216TIP3    H2  655   3.613   0.658   3.025 -0.1830  1.9684 -0.1216
  217TIP3   OH2  656   5.047   5.892   2.146  0.3245  0.5342  0.2890
  217TIP3    H1  657   4.990   5.874   2.221  1.2061  0.0967  0.8789
  217TIP3    H2  658   5.011   5.971   2.106 -1.4234 -0.4242 -0.1139
  218TIP3   OH2  659   3.095   4.460   0.075 -0.1165  0.3961  0.4578
  218TIP3    H1  660   3.082   4.470   0.169 -0.9621  1.0041  0.2911
  218TIP3    H2  661   3.055   4.538   0.036  0.5678  0.3477 -0.3857
  219TIP3   OH2  662   2.136   3.465   1.909  0.0081 -0.4225  0.8565
  219TIP3    H1  663   2.116   3.410   1.986 -1.9495  0.1938  0.8525
  219TIP3    H2  664   2.091   3.547   1.927 -0.1188 -0.1153 -0.7656
  220TIP3   OH2  665   0.483   2.919   0.889 -0.5095 -0.1434 -0.7355
  220TIP3    H1  666   0.542   2.992   0.870 -0.4091  0.2114  0.7672
  220TIP3    H2  667   0.494   2.904   0.983 -0.4814 -2.1538 -1.0138
  221TIP3   OH2  668   5.372   2.408   3.282  0.0826  0.3863 -0.3871
  221TIP3    H1  669   5.296   2.430   3.337  0.8890 -0.9401  1.3853
  221TIP3    H2  670   5.349   2.441   3.195 -2.4998  0.0882  0.0843
  222TIP3   OH2  671   4.733   2.700   0.501  0.6773  0.2322  0.2949
  222TIP3    H1  672   4.722   2.717   0.408 -3.1713 -0.4674  0.4405
  222TIP3    H2  673   4.753   2.606   0.507  1.7527  0.4439  0.1854
  223TIP3   OH2  674   1.710   3.704   1.512  0.2222 -0.2118 -0.4312
  223TIP3    H1  675   1.666   3.618   1.513 -0.2274  0.0098 -0.7371
  223TIP3    H2  676   1.691   3.739   1.425 -0.8329  0.8379  0.2011
  224TIP3   OH2  677   4.984   4.071   0.784  0.5295 -0.0365  0.3621
  224TIP3    H1  678   5.005   3.990   0.737  0.9017  0.2951 -0.0463
  224TIP3    H2  679   4.904   4.103   0.741  0.4405 -0.1333  0.4555
  225TIP3   OH2  680   0.271   4.418   1.505  0.0717 -0.0945  0.4288
  225TIP3    H1  681   0.346   4.474   1.523  0.9839 -1.9698  3.0075
  225TIP3    H2  682   0.199   4.457   1.555  0.0789  0.0852  0.2996
  226TIP3   OH2  683   5.634   2.321   1.094 -0.4169  0.3470  0.4107
  226TIP3    H1  684   5.596   2.333   1.007 -1.6031  0.4820  0.9317
  226TIP3    H2  685   5.667   2.231   1.093 -0.0933  0.4659 -0.2910
  227TIP3   OH2  686   2.032   3.664   4.209  0.2641  0.2746  0.0742
  227TIP3    H1  687   1.938   3.681   4.212  0.1881 -0.1658  0.3108
  227TIP3    H2  688   2.039   3.570   4.192  0.6109 -0.5009  3.6656
  228TIP3   OH2  689   0.527   5.936   4.575 -0.5260  0.0161 -0.0802
  228TIP3    H1  690   0.546   5.844   4.593 -0.0181  0.3326  1.1372
  228TIP3    H2  691   0.604   5.967   4.527  0.0778  0.1942  0.9599
  229TIP3   OH2  692   0.425   3.104   0.196 -0.2398  0.7230  0.5133
  229TIP3    H1  693   0.478   3.183   0.205  1.0205 -0.1060  0.5145
  229TIP3    H2  694   0.451   3.048   0.269  1.7716 -1.3085 -1.6053
  230TIP3   OH2  695   5.422   4.467   4.363  0.4860  0.1128  0.0463
  230TIP3    H1  696   5.404   4.547   4.313 -1.6703 -0.6475 -0.5235
  230TIP3    H2  697   5.351   4.463   4.428  0.8324 -1.0977  0.3724
  231TIP3   OH2  698   5.723   3.575   0.576 -0.0308 -0.0323 -0.0161
  231TIP3    H1  699   5.701   3.644   0.639 -0.5443  0.0054 -0.2306
  231TIP3    H2  700   5.658   3.506   0.593  0.2812 -0.3266 -0.0183
  232TIP3   OH2  701   4.574   4.366   3.836  0.4296 -0.7921  0.1508
  232TIP3    H1  702   4.565   4.455   3.804  0.6655 -1.5471 -2.1810
  232TIP3    H2  703   4.515   4.362   3.912 -1.3393  0.7232 -1.0448
  233TIP3   OH2  704   5.237   4.637   2.349  0.3656  0.1659  0.2904
  233TIP3    H1  705   5.261   4.712   2.295  0.1806  1.5195  1.9727
  233TIP3    H2  706   5.197   4.575   2.288  0.4455  1.4647 -1.1503
  234TIP3   OH2  707   4.705   5.394   0.675 -0.3645  0.4853  0.5202
  234TIP3    H1  708   4.630   5.340   0.700  0.4852  0.2566  2.8446
  234TIP3    H2  709   4.775   5.368   0.736  0.7299  2.6830  0.3184
  235TIP3   OH2  710   4.123   0.773   0.483 -0.2412  0.3895  0.0411
  235TIP3    H1  711   4.170   0.770   0.567  0.0705  0.0078 -0.1468
  235TIP3    H2  712   4.182   0.731   0.421  0.2835  2.1765 -0.7539
  236TIP3   OH2  713   4.060   0.775   1.989  0.0174  0.2965 -0.3667
  236TIP3    H1  714   4.147   0.811   1.971  0.0521  1.2661  1.5217
  236TIP3    H2  715   4.071   0.724   2.069 -1.1745  0.4532 -0.0849
  237TIP3   OH2  716   2.647   1.531   2.539 -0.3189 -0.4284 -0.1519
  237TIP3    H1  717   2.635   1.572   2.624  0.2172  0.2195 -0.3744
  237TIP3    H2  718   2.740   1.509   2.536  0.1752  1.5554 -1.4106
  238TIP3   OH2  719   0.554   3.856   4.922  0.0162 -0.2698 -0.0519
  238TIP3    H1  720   0.529   3.935   4.875  0.9896 -0.8023 -1.5337
  238TIP3    H2  721   0.648   3.847   4.906  0.1073 -1.2205  0.8811
  239TIP3   OH2  722   2.694   0.371   3.540 -0.3063  0.4618  0.2151
  239TIP3    H1  723   2.626   0.328   3.488 -0.4054  1.4813 -0.5259
  239TIP3    H2  724   2.647   0.403   3.618 -0.0466 -1.5639  1.2557
  240TIP3   OH2  725   4.911   1.810   3.224  0.0934 -0.0966  0.2383
  240TIP3    H1  726   4.969   1.736   3.245 -1.0358 -0.5608  1.9458
  240TIP3    H2  727   4.839   1.802   3.287 -2.3764 -0.1054 -2.3945
  241TIP3   OH2  728   3.840   4.882   0.358 -0.0347  0.1836 -0.5311
  241TIP3    H1  729   3.931   4.858   0.375 -0.9435 -3.7131 -0.2252
  241TIP3    H2  730   3.819   4.838   0.275 -2.3930 -1.5800  0.8870
  242TIP3   OH2  731   3.922   2.926   0.670  0.1742  0.1242 -0.3858
  242TIP3    H1  732   3.908   2.912   0.764  2.1034  0.5132  0.0013
  242TIP3    H2  733   3.858   2.869   0.628 -2.5879  1.9063  1.1186
  243TIP3   OH2  734   4.451   1.235   0.265  0.4158 -0.3655  0.4518
  243TIP3    H1  735   4.518   1.202   0.325 -0.3858  0.3035  1.7664
  243TIP3    H2  736   4.385   1.276   0.322 -1.5520 -1.7273 -0.7064
  244TIP3   OH2  737   1.381   5.798   3.970  0.0680  0.2440 -0.5917
  244TIP3    H1  738   1.455   5.754   3.928  0.2033  1.2904 -1.5026
  244TIP3    H2  739   1.319   5.727   3.989  1.3604 -0.6819  0.3821
  245TIP3   OH2  740   1.563   4.441   1.724  0.0313  0.3194 -0.3573
  245TIP3    H1  741   1.485   4.402   1.764  0.2824 -0.5428 -0.6794
  245TIP3    H2  742   1.616   4.471   1.798 -0.2511  0.1981 -0.1059
  246TIP3   OH2  743   0.583   4.758   4.393 -0.6004  0.1248 -0.4664
  246TIP3    H1  744   0.487   4.758   4.387 -0.6686 -0.9177  0.2986
  246TIP3    H2  745   0.601   4.741   4.485  0.3350  0.7881 -0.5142
  247TIP3   OH2  746   1.507   4.720   1.915 -0.1373 -0.5427  0.2352
  247TIP3    H1  747   1.573   4.716   1.845  1.2027 -1.1485  1.4799
  247TIP3    H2  748   1.449   4.792   1.890 -0.4206 -1.4912 -2.0959
  248TIP3   OH2  749   6.243   5.456   3.329  0.1853 -0.0233  0.4121
  248TIP3    H1  750   6.285   5.534   3.292 -1.5936  0.3554 -0.9613
  248TIP3    H2  751   6.241   5.393   3.257 -2.6777  0.4493 -0.0650
  249TIP3   OH2  752   2.703   2.803   0.848  0.6408 -0.3696  0.3175
  249TIP3    H1  753   2.628   2.747   0.828  0.5409 -0.0990 -0.0820
  249TIP3    H2  754   2.703   2.809   0.944  1.9147 -2.7717  0.5528
  250TIP3   OH2  755   0.589   4.333   2.708  0.4037  0.3418  0.2849
  250TIP3    H1  756   0.678   4.325   2.676  0.3307  1.2662 -0.1789
  250TIP3    H2  757   0.551   4.404   2.657 -0.8084 -0.4640  0.0280
  251TIP3   OH2  758   1.234   1.635   5.070  0.3494  0.5660  0.0789
  251TIP3    H1  759   1.154   1.594   5.038  0.0127  1.5189 -0.3466
  251TIP3    H2  760   1.293   1.635   4.994  0.8565 -0.3475  0.4548
  252TIP3   OH2  761   6.329   0.601   3.547  0.5155  0.4729  0.1767
  252TIP3    H1  762   6.302   0.587   3.456 -0.8624 -1.1580  0.7878
  252TIP3    H2  763   6.362   0.516   3.576  0.0132  0.7033  1.4879
  253TIP3   OH2  764   2.638   5.028   3.602 -0.4626  0.3188  0.4500
  253TIP3    H1  765   2.673   5.097   3.546  0.8519 -1.0055 -0.4434
  253TIP3    H2  766   2.555   5.004   3.562  0.4520 -0.6020 -1.0061
  254TIP3   OH2  767   4.715   2.672   1.869  0.1904 -0.7287 -0.5165
  254TIP3    H1  768   4.754   2.641   1.950  0.9837 -2.1329 -1.3944
  254TIP3    H2  769   4.680   2.593   1.827  0.4710 -0.1579 -1.8960
  255TIP3   OH2  770   2.696   5.643   0.030  0.2837  0.0442 -0.0416
  255TIP3    H1  771   2.707   5.548   0.027 -1.3924 -0.1922  0.6173
  255TIP3    H2  772   2.639   5.663  -0.043  2.8461  0.9615 -1.9508
  256TIP3   OH2  773   5.766   5.810   0.611  0.2560  0.2603 -0.1597
  256TIP3    H1  774   5.699   5.797   0.677  0.7127 -1.5807  0.0138
  256TIP3    H2  775   5.800   5.722   0.595  0.7305  0.7745 -2.2386
  257TIP3   OH2  776   5.933   5.251   4.706  0.3345 -0.2918  0.3233
  257TIP3    H1  777   5.977   5.301   4.638  0.2944 -1.0884 -0.2890
  257TIP3    H2  778   5.996   5.249   4.778  0.7573 -0.2675 -0.0414
  258TIP3   OH2  779   0.271   4.148   1.508 -0.3165  0.0206 -0.2600
  258TIP3    H1  780   0.337   4.117   1.571  1.0956  3.0865 -0.0731
  258TIP3    H2  781   0.279   4.243   1.510 -4.0347  0.4774 -1.1098
  259TIP3   OH2  782   6.169   4.292   3.508 -0.3597 -0.2839 -0.1012
  259TIP3    H1  783   6.264   4.297   3.512 -0.4418  1.0622  0.5287
  259TIP3    H2  784   6.146   4.341   3.429 -0.5781  0.1389  0.2220
  260TIP3   OH2  785   1.346   3.433   2.514  0.0137 -0.1334 -0.5324
  260TIP3    H1  786   1.396   3.456   2.592  0.4304 -0.7582 -0.6073
  260TIP3    H2  787   1.289   3.361   2.541 -0.2935  0.0689 -0.6413
  261TIP3   OH2  788   1.231   3.619   3.350  0.3396  0.3218 -0.0742
  261TIP3    H1  789   1.294   3.554   3.317  0.6182  0.6205 -0.1381
  261TIP3    H2  790   1.280   3.667   3.417 -0.0426  0.1002  0.3657
  262TIP3   OH2  791   3.686   4.642   0.729  0.0631 -0.2399  0.2362
  262TIP3    H1  792   3.662   4.685   0.812 -1.1069 -1.1846  0.4239
  262TIP3    H2  793   3.677   4.711   0.663 -0.9741  0.0286  0.6348
  263TIP3   OH2  794   0.381   1.144   1.546  0.1239 -0.1744 -0.1262
  263TIP3    H1  795   0.404   1.157   1.638  0.7426  0.5842 -0.3742
  263TIP3    H2  796   0.311   1.079   1.548  0.3289 -0.3886  0.8594
  264TIP3   OH2  797   3.780   5.834   0.280 -0.0339 -0.1374  0.0272
  264TIP3    H1  798   3.834   5.885   0.340 -0.3306  0.6900 -0.4083
  264TIP3    H2  799   3.734   5.771   0.336  0.8968 -0.4343  0.4712
  265TIP3   OH2  800   3.648   2.028   0.099 -0.1544 -0.3441 -0.5887
  265TIP3    H1  801   3.635   2.121   0.081  1.4932  0.0393 -0.0288
  265TIP3    H2  802   3.561   1.989   0.094 -0.8431  1.1959 -1.0053
  266TIP3   OH2  803   5.356   0.056   4.184 -0.5795 -0.1423  0.5086
  266TIP3    H1  804   5.446   0.074   4.210 -0.2738  1.7487 -1.5656
  266TIP3    H2  805   5.360  -0.030   4.141  1.0370  1.3390 -2.6200
  267TIP3   OH2  806   3.112   1.924   3.458 -0.1699  0.4050 -0.0311
  267TIP3    H1  807   3.044   1.877   3.506 -1.0595 -0.3584 -1.9643
  267TIP3    H2  808   3.187   1.864   3.457 -0.4927  0.0086 -0.4603
  268TIP3   OH2  809   1.875   5.199   1.780 -0.3635 -0.3392 -0.4963
  268TIP3    H1  810   1.871   5.279   1.727 -3.0606  1.4284  2.0489
  268TIP3    H2  811   1.953   5.211   1.835 -0.6307  0.4761 -0.2763
  269TIP3   OH2  812   0.432   0.779   1.288 -0.2735 -0.3543 -0.6232
  269TIP3    H1  813   0.390   0.791   1.373  1.1796  1.3944 -0.0759
  269TIP3    H2  814   0.500   0.713   1.304  0.7216  0.7545 -0.0938
  270TIP3   OH2  815   1.926   5.415   1.597  0.0387 -0.0718 -0.5158
  270TIP3    H1  816   1.889   5.396   1.511  0.3798  0.0155 -0.6817
  270TIP3    H2  817   1.930   5.511   1.600 -1.4443  0.0067  0.2193
  271TIP3   OH2  818   0.907   3.255   2.627  0.1949  0.3614  0.5304
  271TIP3    H1  819   0.950   3.268   2.712  0.1638  0.2081  0.5696
  271TIP3    H2  820   0.829   3.311   2.632  0.4134  0.6815  0.4384
  272TIP3   OH2  821   1.328   0.721   0.933 -0.0546  0.1972 -0.3508
  272TIP3    H1  822   1.290   0.633   0.932 -0.3547  0.3014 -2.6952
  272TIP3    H2  823   1.375   0.725   1.017 -0.5808 -1.9341  0.1182
  273TIP3   OH2  824   5.707   0.124   1.864 -0.3647  0.2246  0.1265
  273TIP3    H1  825   5.736   0.065   1.933  0.3537 -1.3359 -1.4379
  273TIP3    H2  826   5.787   0.147   1.816 -1.0976 -0.6930 -1.6464
  274TIP3   OH2  827   2.570   3.023   0.994  0.2690 -0.0869 -0.2364
  274TIP3    H1  828   2.579   3.110   1.033  1.1194 -0.1925 -0.1782
  274TIP3    H2  829   2.554   2.965   1.067  3.1263 -0.4823  0.1960
  275TIP3   OH2  830   1.603   2.819   3.377 -0.4285 -0.0150 -0.1255
  275TIP3    H1  831   1.565   2.763   3.444 -1.6527 -2.2263 -2.5494
  275TIP3    H2  832   1.656   2.882   3.427 -2.1329 -0.8217  2.9479
  276TIP3   OH2  833   2.528   0.889   1.394 -0.0471 -0.1491  0.4300
  276TIP3    H1  834   2.493   0.942   1.322  0.1393 -0.2057  0.2997
  276TIP3    H2  835   2.541   0.802   1.356  1.1536  0.1090  0.2133
  277TIP3   OH2  836   1.475   0.636   3.807 -0.8602 -0.1168  0.6032
  277TIP3    H1  837   1.519   0.722   3.806  2.3089 -1.5818  0.9645
  277TIP3    H2  838   1.424   0.637   3.888  0.7202  0.7867  1.6670
  278TIP3   OH2  839   4.945   3.719   4.925 -0.8891  0.1526 -0.0437
  278TIP3    H1  840   4.964   3.635   4.966  1.5333  0.3286 -0.6643
  278TIP3    H2  841   4.896   3.768   4.992  2.5976  0.3143  2.6843
  279TIP3   OH2  842   2.396   1.392   0.822 -0.3816  0.3933 -0.4060
  279TIP3    H1  843   2.430   1.340   0.894 -1.3322  0.1023 -0.1525
  279TIP3    H2  844   2.312   1.426   0.854  1.2407  4.0885  0.3545
  280TIP3   OH2  845   4.044   0.371   3.231 -0.0857 -0.2371 -0.5391
  280TIP3    H1  846   3.973   0.392   3.169 -0.9680  1.9137  1.0891
  280TIP3    H2  847   4.096   0.450   3.235  0.2064 -0.4932  1.1307
  281TIP3   OH2  848   3.109   5.798   3.678  0.5172  0.4050 -0.6166
  281TIP3    H1  849   3.084   5.883   3.713 -3.3788 -1.0168  0.4901
  281TIP3    H2  850   3.032   5.766   3.632  2.8012 -1.3860 -3.6379
  282TIP3   OH2  851   5.415   4.207   2.312  0.6192 -0.2946  0.6938
  282TIP3    H1  852   5.479   4.231   2.379 -1.3333  2.1769  1.8675
  282TIP3    H2  853   5.331   4.213   2.357 -0.6215 -1.1329 -1.3715
  283TIP3   OH2  854   3.553   5.441   4.817  0.0589 -0.1427 -0.3034
  283TIP3    H1  855   3.589   5.409   4.900 -0.6603  1.6355  0.7767
  283TIP3    H2  856   3.624   5.492   4.778 -0.7244  2.3459  1.2376
  284TIP3   OH2  857   5.171   2.559   1.909  0.4952  0.1473 -0.7400
  284TIP3    H1  858   5.247   2.501   1.917 -0.4767 -1.0840 -0.2310
  284TIP3    H2  859   5.101   2.515   1.957 -0.3801  1.5779 -0.6345
  285TIP3   OH2  860   3.777   0.534   2.587  0.0619  0.0851 -0.3003
  285TIP3    H1  861   3.718   0.598   2.548  0.8874  0.1167 -1.5556
  285TIP3    H2  862   3.861   0.550   2.545  0.5226 -1.1879  0.0834
  286TIP3   OH2  863   3.594   1.067   3.246 -0.3013  0.3258 -0.4947
  286TIP3    H1  864   3.635   1.133   3.303 -2.0813  0.7920  0.3087
  286TIP3    H2  865   3.631   0.984   3.275 -0.9923  0.5833  1.2100
  287TIP3   OH2  866   0.185   2.257   2.148 -0.1583 -0.0980  0.5375
  287TIP3    H1  867   0.118   2.324   2.146 -0.3380 -0.2567  1.1292
  287TIP3    H2  868   0.226   2.266   2.234 -0.3855 -0.9303  0.7462
  288TIP3   OH2  869   4.169   3.772   4.465 -0.0470 -0.1430 -0.2350
  288TIP3    H1  870   4.168   3.867   4.454 -2.9838  0.1560  1.6759
  288TIP3    H2  871   4.097   3.741   4.410 -0.1867 -1.0811  0.4623
  289TIP3   OH2  872   0.176   3.105   3.806  1.0443 -0.5388  0.0872
  289TIP3    H1  873   0.101   3.072   3.856  0.0506  2.2699  0.6280
  289TIP3    H2  874   0.180   3.048   3.729 -0.2051 -2.1465  1.1318
  290TIP3   OH2  875   0.724   4.331   0.204  0.0454  0.2603 -0.8777
  290TIP3    H1  876   0.774   4.326   0.286 -1.3343  2.1821  0.1675
  290TIP3    H2  877   0.636   4.303   0.228 -0.3484  0.7167 -1.7265
  291TIP3   OH2  878   1.470   1.773   3.575 -0.1474 -0.3953  0.5938
  291TIP3    H1  879   1.463   1.682   3.548  1.8641 -0.7229  1.0454
  291TIP3    H2  880   1.540   1.774   3.640 -1.7710  1.0932  2.4389
  292TIP3   OH2  881   4.090   4.605   4.499  0.1511 -0.3297  0.2996
  292TIP3    H1  882   4.075   4.682   4.445  1.9056  0.3955  0.7837
  292TIP3    H2  883   4.124   4.539   4.438 -1.8452 -0.9622 -0.2152
  293TIP3   OH2  884   0.655   3.683   1.838 -0.6101  0.4103 -0.1921
  293TIP3    H1  885   0.701   3.599   1.840 -0.1847  0.6469  0.1393
  293TIP3    H2  886   0.701   3.733   1.770 -0.2081  0.7371  0.3121
  294TIP3   OH2  887   4.669   5.021   1.212 -0.5353 -0.0690 -0.0993
  294TIP3    H1  888   4.624   5.021   1.296 -0.3675  1.0026  0.0127
  294TIP3    H2  889   4.603   5.052   1.149 -0.5543 -0.5058 -0.2949
  295TIP3   OH2  890   1.407   5.674   4.962 -0.3423 -0.6587  0.5121
  295TIP3    H1  891   1.453   5.729   4.898  0.1376 -1.6011  0.0298
  295TIP3    H2  892   1.474   5.614   4.994 -0.9295 -1.1640  0.8079
  296TIP3   OH2  893   4.015   5.381   1.626  0.0969  0.4116  0.2381
  296TIP3    H1  894   4.109   5.374   1.609 -0.0787 -0.3308 -0.4632
  296TIP3    H2  895   3.984   5.447   1.564  0.2622  1.1807  0.9508
  297TIP3   OH2  896   1.793   3.656   5.181 -0.1176  0.3197  0.0237
  297TIP3    H1  897   1.838   3.700   5.253 -1.7825  0.9095  0.7688
  297TIP3    H2  898   1.833   3.691   5.102  0.7694  0.7472  0.6482
  298TIP3   OH2  899   2.904   4.731   2.884 -0.0792  0.5211  0.4430
  298TIP3    H1  900   2.968   4.729   2.813 -0.9262  0.6146 -0.3443
  298TIP3    H2  901   2.834   4.673   2.855 -0.3584  0.4284  1.2849
  299TIP3   OH2  902   5.759   3.881   5.014  0.1114 -0.2308  0.5360
  299TIP3    H1  903   5.695   3.949   4.989 -0.0157 -0.5803 -0.1176
  299TIP3    H2  904   5.767   3.890   5.109 -2.4195 -1.4544  0.9674
  300TIP3   OH2  905   6.214   3.177   2.896  0.1111  0.2613 -0.6052
  300TIP3    H1  906   6.155   3.106   2.920  0.6172 -0.9091 -2.5494
  300TIP3    H2  907   6.205   3.242   2.966 -1.2685 -1.1778  0.6064
  301TIP3   OH2  908   1.306   0.780   0.428  0.3302 -0.1463 -0.1836
  301TIP3    H1  909   1.279   0.719   0.360  0.9731  1.8606 -2.3971
  301TIP3    H2  910   1.226   0.801   0.476 -0.3366 -0.8404 -0.9788
  302TIP3   OH2  911   0.917   4.980   0.230  0.2412  0.7321  0.2869
  302TIP3    H1  912   0.841   4.935   0.268 -0.0980  0.9691 -0.1032
  302TIP3    H2  913   0.880   5.034   0.160  1.1155 -1.6067 -2.1301
  303TIP3   OH2  914   4.594   2.535   0.698 -0.3396  0.2654 -0.4109
  303TIP3    H1  915   4.501   2.517   0.682 -0.5740  0.9792  0.0910
  303TIP3    H2  916   4.620   2.593   0.626  0.1199 -1.0920 -1.3857
  304TIP3   OH2  917   2.552   0.491   1.423 -0.1284  0.1921  0.5800
  304TIP3    H1  918   2.476   0.536   1.460 -1.4443 -1.8632  0.5278
  304TIP3    H2  919   2.574   0.423   1.487  1.2309  0.2837  0.2508
  305TIP3   OH2  920   4.183   0.770   3.789  0.3189 -0.0960 -0.2838
  305TIP3    H1  921   4.242   0.812   3.853  0.9283 -1.4574  0.0997
  305TIP3    H2  922   4.101   0.759   3.836  0.8120 -1.2352  0.3700
  306TIP3   OH2  923   0.776   1.145   2.039  0.0131  0.1348 -0.1632
  306TIP3    H1  924   0.707   1.196   2.081 -1.3394  0.6233 -2.7485
  306TIP3    H2  925   0.797   1.194   1.960  2.5758 -0.5974 -0.0226
  307TIP3   OH2  926   5.209   5.701   1.864 -0.3799 -0.2273  0.0999
  307TIP3    H1  927   5.305   5.702   1.874 -0.4663  0.0667  0.9851
  307TIP3    H2  928   5.195   5.678   1.772  0.5571  0.6626 -0.2800
  308TIP3   OH2  929   3.716   5.199   1.334  0.4655 -0.1488 -0.1876
  308TIP3    H1  930   3.669   5.261   1.390  1.1227 -0.0826  0.2982
  308TIP3    H2  931   3.656   5.182   1.261 -0.7990 -0.9761  1.0114
  309TIP3   OH2  932   3.516   5.409   0.724  0.6950  0.1516 -0.4212
  309TIP3    H1  933   3.608   5.393   0.747  0.3540  0.9941  1.8422
  309TIP3    H2  934   3.475   5.430   0.808 -1.5201  0.0655 -1.4332
  310TIP3   OH2  935   0.550   5.052   2.949 -0.5639  0.3083  0.5578
  310TIP3    H1  936   0.528   5.069   3.040  1.1508  1.8348  0.7314
  310TIP3    H2  937   0.495   5.112   2.899 -2.3994 -1.3727  0.4485
  311TIP3   OH2  938   4.976   4.733   5.091  0.0600 -0.1206  0.0162
  311TIP3    H1  939   4.970   4.670   5.163  1.3838 -0.9547 -0.5557
  311TIP3    H2  940   4.983   4.818   5.134  0.6475 -0.5902  0.8798
  312TIP3   OH2  941   5.343   2.953   0.309 -0.2213 -0.2565 -0.0891
  312TIP3    H1  942   5.321   3.025   0.369 -0.9569 -0.6333  0.1089
  312TIP3    H2  943   5.286   2.967   0.234 -1.1481 -1.2298  0.4126
  313TIP3   OH2  944   1.385   2.158   0.040  0.1274 -0.1602 -0.3827
  313TIP3    H1  945   1.299   2.180   0.075  0.2492 -1.1334  0.6136
  313TIP3    H2  946   1.396   2.065   0.061  0.9423 -0.3414 -1.5302
  314TIP3   OH2  947   4.904   5.039   3.333 -0.0169 -0.1260  0.2663
  314TIP3    H1  948   4.975   5.102   3.326 -2.4498  3.2400  2.6792
  314TIP3    H2  949   4.841   5.066   3.267  0.0494 -1.9304 -0.6038
  315TIP3   OH2  950   5.465   5.664   1.904 -0.5866  0.0618 -0.3314
  315TIP3    H1  951   5.476   5.610   1.826  0.0182  0.1544 -0.3174
  315TIP3    H2  952   5.526   5.627   1.967  0.3391  1.1521 -0.5432
  316TIP3   OH2  953   2.512   4.029   3.448  0.5813 -0.0946  0.7076
  316TIP3    H1  954   2.590   3.983   3.479  1.3375  0.7829  0.1514
  316TIP3    H2  955   2.490   3.987   3.365  2.0540  1.3217 -0.4743
  317TIP3   OH2  956   2.170   5.461   3.802  0.2143  0.7548  0.1201
  317TIP3    H1  957   2.229   5.414   3.862  0.8390 -1.0306 -1.7776
  317TIP3    H2  958   2.088   5.412   3.806  0.2593  0.6228 -0.4570
  318TIP3   OH2  959   0.159   2.255   3.150  0.1359 -0.5815 -0.1075
  318TIP3    H1  960   0.201   2.295   3.074 -0.3332 -0.1003 -0.1275
  318TIP3    H2  961   0.111   2.180   3.115  1.0629 -1.2040 -0.0628
  319TIP3   OH2  962   3.908   5.086   1.162  0.7436 -0.4340 -0.0731
  319TIP3    H1  963   3.881   4.994   1.159  0.7924 -0.5156  1.4623
  319TIP3    H2  964   3.838   5.130   1.210  1.1618  0.1649  0.0003
  320TIP3   OH2  965   3.733   5.720   3.565  0.6529 -0.0613  0.2171
  320TIP3    H1  966   3.708   5.702   3.475  0.6189 -1.1493  0.4280
  320TIP3    H2  967   3.702   5.809   3.581 -0.1392 -0.1777 -0.5703
  321TIP3   OH2  968   4.102   2.080   4.364  0.4745  0.1717  0.0913
  321TIP3    H1  969   4.006   2.078   4.365  0.4304  1.0512  1.8100
  321TIP3    H2  970   4.124   2.173   4.364  1.3042 -0.0125  0.9191
  322TIP3   OH2  971   0.072   0.882   3.964  0.1987  0.4408  0.1632
  322TIP3    H1  972   0.121   0.803   3.940  1.3222  1.0090  0.5398
  322TIP3    H2  973   0.066   0.878   4.059  0.3181  0.8351  0.1882
  323TIP3   OH2  974   3.483   4.147   0.433  0.6541 -0.2383 -0.1845
  323TIP3    H1  975   3.466   4.241   0.431 -0.0212 -0.3731 -1.9246
  323TIP3    H2  976   3.419   4.113   0.496  0.1969  0.3291 -0.3375
  324TIP3   OH2  977   1.451   3.548   3.940  0.6550  0.4607 -0.6279
  324TIP3    H1  978   1.494   3.577   4.020  1.5412 -1.6625 -0.2575
  324TIP3    H2  979   1.512   3.571   3.870  0.9807  0.2261 -0.4246
  325TIP3   OH2  980   3.889   5.402   1.166  0.3282  0.0901  0.2969
  325TIP3    H1  981   3.944   5.441   1.234 -0.2645 -1.9553  2.0886
  325TIP3    H2  982   3.919   5.311   1.161 -0.3215 -0.0617 -1.4885
  326TIP3   OH2  983   4.166   0.553   2.668 -0.6066 -0.1854  0.2453
  326TIP3    H1  984   4.183   0.640   2.706 -1.7851  0.8432 -1.4214
  326TIP3    H2  985   4.095   0.568   2.606  0.9297 -1.7976 -2.0731
  327TIP3   OH2  986   0.545   1.137   2.444  0.1868 -0.3511  0.3737
  327TIP3    H1  987   0.496   1.055   2.447  0.2896 -0.4812 -1.0749
  327TIP3    H2  988   0.496   1.196   2.501 -1.5757 -0.5338 -0.8814
  328TIP3   OH2  989   1.825   5.902   1.733 -0.1457  0.4273  0.4879
  328TIP3    H1  990   1.755   5.842   1.708  0.8430 -0.7379  0.4496
  328TIP3    H2  991   1.870   5.859   1.805  0.2583  1.3746  0.8220
  329TIP3   OH2  992   1.185   2.028   4.535  0.7170  0.1362 -0.2253
  329TIP3    H1  993   1.183   2.002   4.443 -0.4231  1.5467 -0.6349
  329TIP3    H2  994   1.126   2.103   4.540  0.9224  0.2172  1.6260
  330TIP3   OH2  995   0.264   0.882   1.569  0.1071 -0.1425  0.7833
  330TIP3    H1  996   0.189   0.823   1.564  0.0161 -0.1086  1.6387
  330TIP3    H2  997   0.267   0.911   1.660  0.0508  1.3035  0.3570
  331TIP3   OH2  998   3.798   4.634   2.488 -0.3816 -0.0606  0.0874
  331TIP3    H1  999   3.767   4.546   2.510 -0.3199 -0.3504 -0.9478
  331TIP3    H2 1000   3.881   4.620   2.443  0.8563  0.6668  2.0051
  332TIP3   OH2 1001   5.303   1.331   4.504 -0.0124  0.4482  0.5793
  332TIP3    H1 1002   5.286   1.401   4.441  0.0506 -0.5472 -0.5864
  332TIP3    H2 1003   5.396   1.312   4.495 -0.1578 -0.2206  0.3929
  333TIP3   OH2 1004   2.011   0.592   1.295  0.0638  0.4415 -0.2062
  333TIP3    H1 1005   1.964   0.589   1.379 -0.0137  3.1829 -0.0535
  333TIP3    H2 1006   2.048   0.505   1.285 -0.8757 -0.3015  2.1302
  334TIP3   OH2 1007   2.349   1.245   2.972 -0.3918  0.2595  0.1716
  334TIP3    H1 1008   2.395   1.300   2.909 -1.4964  0.2501 -0.6551
  334TIP3    H2 1009   2.258   1.246   2.944 -0.8314 -0.1212  1.5034
  335TIP3   OH2 1010   5.190   5.366   4.299 -0.0305 -0.0417  0.8124
  335TIP3    H1 1011   5.276   5.351   4.260 -0.3089  0.4061 -0.0007
  335TIP3    H2 1012   5.177   5.461   4.293 -0.5516 -0.0970  0.9885
  336TIP3   OH2 1013   4.299   2.364   1.672  0.4396  0.0322 -0.2688
  336TIP3    H1 1014   4.300   2.311   1.752 -0.7707  0.7134  0.2209
  336TIP3    H2 1015   4.389   2.395   1.663  0.3472  0.9558  1.5407
  337TIP3   OH2 1016   2.953   3.752   2.869  0.6338 -0.3431 -0.5074
  337TIP3    H1 1017   2.887   3.819   2.852 -0.5223 -0.4859  2.6598
  337TIP3    H2 1018   3.031   3.782   2.823 -0.5594  1.8338 -1.2401
  338TIP3   OH2 1019   0.138   0.531   5.032 -0.2496 -0.0437 -0.2686
  338TIP3    H1 1020   0.067   0.469   5.051 -1.7718  1.3004 -1.3103
  338TIP3    H2 1021   0.161   0.567   5.117  1.5569 -2.8535  0.5677
  339TIP3   OH2 1022   4.232   4.889   2.880 -0.0033 -0.3802 -0.7182
  339TIP3    H1 1023   4.205   4.802   2.849 -0.2782 -1.2976  1.8931
  339TIP3    H2 1024   4.320   4.875   2.916  0.2913  0.6422 -0.9964
  340TIP3   OH2 1025   0.256   1.464   5.116 -0.0418 -0.7639 -0.1314
  340TIP3    H1 1026   0.186   1.469   5.051 -1.4235  0.2324  1.3554
  340TIP3    H2 1027   0.241   1.382   5.162 -1.2956  0.1542  1.2296
  341TIP3   OH2 1028   4.572   2.540   4.579 -0.2786  0.2017 -0.2024
  341TIP3    H1 1029   4.496   2.585   4.543 -0.3331  0.9596  0.8184
  341TIP3    H2 1030   4.539   2.496   4.658  0.2263  0.0971 -0.0461
  342TIP3   OH2 1031   1.558   4.562   4.517  0.1369  0.1180  0.0785
  342TIP3    H1 1032   1.585   4.643   4.559 -1.5182 -0.7335  3.0580
  342TIP3    H2 1033   1.636   4.506   4.520  0.9179  1.1096 -0.8592
  343TIP3   OH2 1034   5.999   0.434   5.040  0.6613 -0.4731  0.1984
  343TIP3    H1 1035   6.028   0.416   4.950  0.3614 -2.9340  0.5199
  343TIP3    H2 1036   6.079   0.433   5.091  1.0268  2.4243 -0.1538
  344TIP3   OH2 1037   1.877   4.043   3.561 -0.2014 -0.2419 -0.1769
  344TIP3    H1 1038   1.845   4.087   3.482 -0.7185  0.8928  0.6338
  344TIP3    H2 1039   1.969   4.069   3.567 -0.2517 -0.0462 -0.2345
  345TIP3   OH2 1040   2.884   3.443   5.025  0.0011  0.0474  0.1332
  345TIP3    H1 1041   2.840   3.358   5.032  0.4277 -0.2771 -0.8593
  345TIP3    H2 1042   2.815   3.503   4.998 -0.0723 -0.2409 -0.3504
  346TIP3   OH2 1043   0.123   3.983   4.420 -0.5623  0.4544  0.3021
  346TIP3    H1 1044   0.208   4.005   4.383 -1.4817  1.9185 -1.0535
  346TIP3    H2 1045   0.118   3.888   4.414  0.2592  0.4766 -1.2953
  347TIP3   OH2 1046   4.606   0.282   4.626  0.4824 -0.1293  0.0596
  347TIP3    H1 1047   4.633   0.208   4.681 -0.8531 -0.2035  0.6566
  347TIP3    H2 1048   4.564   0.342   4.687  0.0915  0.3656 -0.6929
  348TIP3   OH2 1049   5.377   3.282   1.463 -0.0260  0.3064 -0.6502
  348TIP3    H1 1050   5.303   3.317   1.513  0.0904 -1.1612  0.6529
  348TIP3    H2 1051   5.381   3.336   1.384 -0.4665  2.5088  0.7455
  349TIP3   OH2 1052   5.093   1.372   2.612  0.0159  0.7167  0.1316
  349TIP3    H1 1053   5.095   1.288   2.567  0.9573  0.1729  1.1401
  349TIP3    H2 1054   5.162   1.423   2.571 -0.0251  0.7077  0.0513
  350TIP3   OH2 1055   4.157   2.944   3.382 -0.3661  0.8427  0.2720
  350TIP3    H1 1056   4.097   3.014   3.404 -1.5603 -0.5962  1.8576
  350TIP3    H2 1057   4.205   2.976   3.305 -0.8545  3.3319  0.9300
  351TIP3   OH2 1058   6.362   0.251   4.980 -0.2649 -0.5328  0.1824
  351TIP3    H1 1059   6.287   0.310   4.976  0.3783  0.2711 -0.1087
  351TIP3    H2 1060   6.323   0.163   4.982 -1.1838 -0.2252 -1.8238
  352TIP3   OH2 1061   2.770   3.827   0.072 -0.0556 -0.5966 -0.3761
  352TIP3    H1 1062   2.825   3.751   0.091  0.8464 -0.2716 -1.5792
  352TIP3    H2 1063   2.829   3.902   0.081 -0.6956 -0.1069 -0.1846
  353TIP3   OH2 1064   4.255   0.818   4.367 -0.4183 -0.1684  0.3123
  353TIP3    H1 1065   4.299   0.890   4.322 -0.9107  0.3635  0.6541
  353TIP3    H2 1066   4.245   0.849   4.457  0.5456 -1.2139  0.7917
  354TIP3   OH2 1067   5.492   3.226   0.176  0.7584  0.6640  0.5368
  354TIP3    H1 1068   5.445   3.214   0.258  0.9451  0.5659  0.6323
  354TIP3    H2 1069   5.430   3.270   0.118  0.5177  0.4483  0.6284
  355TIP3   OH2 1070   3.234   3.144   3.476 -0.3775  0.7338 -0.4655
  355TIP3    H1 1071   3.185   3.077   3.522  0.3532 -0.3203 -1.1754
  355TIP3    H2 1072   3.250   3.212   3.542 -0.3047 -0.2269  0.5320
  356TIP3   OH2 1073   1.631   4.239   3.665 -0.0921 -0.1940 -0.4027
  356TIP3    H1 1074   1.714   4.192   3.666  0.4985  0.7880 -1.0045
  356TIP3    H2 1075   1.646   4.313   3.606 -0.6193  1.3622  1.2936
  357TIP3   OH2 1076   0.991   5.210   2.798  0.2511 -0.2439  0.2569
  357TIP3    H1 1077   1.024   5.134   2.847  0.0449 -0.9398 -0.6436
  357TIP3    H2 1078   1.057   5.224   2.730  1.0068  1.2914  1.2585
  358TIP3   OH2 1079   2.243   5.844   2.752  0.0853 -0.4402 -0.5955
  358TIP3    H1 1080   2.215   5.773   2.695 -1.7719  0.2415 -0.5939
  358TIP3    H2 1081   2.303   5.896   2.697 -0.5962 -0.5644 -1.4778
  359TIP3   OH2 1082   4.025   0.688   4.257 -0.0196  0.3164  0.1565
  359TIP3    H1 1083   4.115   0.719   4.260  0.9688 -2.3796  0.3507
  359TIP3    H2 1084   3.987   0.716   4.340  1.7593 -1.5136  1.6976
  360TIP3   OH2 1085   3.627   4.106   3.905 -0.2676  0.3890  0.3517
  360TIP3    H1 1086   3.719   4.082   3.906 -0.6471 -1.1463  1.1387
  360TIP3    H2 1087   3.612   4.148   3.990 -0.8207 -1.6464  1.3130
  361TIP3   OH2 1088   0.772   5.724   2.420  0.3790  0.2287 -0.3984
  361TIP3    H1 1089   0.718   5.732   2.341 -0.2018  0.3750  0.0076
  361TIP3    H2 1090   0.718   5.674   2.481 -0.5310  2.8558  1.0874
  362TIP3   OH2 1091   2.712   5.899   2.772 -0.0786 -0.1815 -0.4954
  362TIP3    H1 1092   2.803   5.897   2.803 -0.5789  1.1017  1.2027
  362TIP3    H2 1093   2.667   5.835   2.827 -0.6045  0.7303  0.1550
  363TIP3   OH2 1094   1.373   1.992   1.481 -0.3605 -0.2556 -0.6090
  363TIP3    H1 1095   1.405   1.902   1.486 -1.0633 -0.4747  0.1758
  363TIP3    H2 1096   1.428   2.040   1.543 -2.0686 -0.8162  1.4471
  364TIP3   OH2 1097   2.907   4.190   1.720 -0.2420 -0.3362  0.0253
  364TIP3    H1 1098   2.923   4.095   1.719  0.4026 -0.2371  0.2934
  364TIP3    H2 1099   2.993   4.228   1.739 -0.3144  0.3532 -1.0007
  365TIP3   OH2 1100   4.625   3.307   2.276 -0.1136  0.1773  0.6567
  365TIP3    H1 1101   4.676   3.373   2.229  0.2658  0.7513  1.8270
  365TIP3    H2 1102   4.573   3.357   2.340 -0.6366 -0.5685  0.8315
  366TIP3   OH2 1103   0.722   5.630   4.547 -0.5603  0.6640  0.5795
  366TIP3    H1 1104   0.683   5.607   4.632 -1.6531 -0.0364 -0.0909
  366TIP3    H2 1105   0.808   5.666   4.570 -1.1648  1.2753  2.0332
  367TIP3   OH2 1106   5.359   4.752   1.539  0.4464 -0.1387  0.2333
  367TIP3    H1 1107   5.389   4.725   1.626 -0.2083  0.5164  0.6630
  367TIP3    H2 1108   5.381   4.677   1.483 -1.0195 -1.4580  1.3353
  368TIP3   OH2 1109   3.922   4.209   2.313 -0.2048  0.0805 -0.2520
  368TIP3    H1 1110   3.984   4.139   2.332 -1.0428 -1.0550 -1.5221
  368TIP3    H2 1111   3.967   4.290   2.339  0.7677 -0.9111  1.2835
  369TIP3   OH2 1112   4.316   3.415   3.182 -0.0178  0.3799  0.2896
  369TIP3    H1 1113   4.404   3.422   3.145 -1.2575  2.5993 -2.6847
  369TIP3    H2 1114   4.300   3.501   3.221 -1.6008  0.8584 -1.2681
  370TIP3   OH2 1115   5.856   5.914   3.136 -0.1404 -0.4816 -0.2425
  370TIP3    H1 1116   5.841   5.835   3.189 -0.8031 -0.3551 -0.2297
  370TIP3    H2 1117   5.775   5.926   3.087  0.3141 -0.3495 -0.9719
  371TIP3   OH2 1118   0.180   0.349   2.100  0.4238 -0.0174 -0.2825
  371TIP3    H1 1119   0.219   0.315   2.020  1.0932 -1.6176  0.6661
  371TIP3    H2 1120   0.251   0.350   2.164 -0.4047 -0.1951  0.6876
  372TIP3   OH2 1121   5.467   3.109   1.218 -0.0251  0.6967 -0.2650
  372TIP3    H1 1122   5.515   3.045   1.272  0.5784 -0.2127 -1.8065
  372TIP3    H2 1123   5.422   3.164   1.282 -1.5799 -1.9949  1.1682
  373TIP3   OH2 1124   5.570   4.810   2.185  0.2052  0.1715  0.2033
  373TIP3    H1 1125   5.636   4.878   2.201  1.3550 -1.0163  0.6556
  373TIP3    H2 1126   5.487   4.858   2.179  0.7237  1.4416  2.3571
  374TIP3   OH2 1127   4.267   1.992   1.579  0.2722  0.6537  0.1858
  374TIP3    H1 1128   4.307   1.984   1.493  1.0427  1.2799  0.4680
  374TIP3    H2 1129   4.206   1.919   1.584  0.6929  0.2264 -0.6332
  375TIP3   OH2 1130   5.590   0.406   4.299  0.2407 -0.2076 -0.3043
  375TIP3    H1 1131   5.498   0.404   4.273  0.6395 -1.3449 -1.7010
  375TIP3    H2 1132   5.596   0.482   4.357 -1.5321 -0.0073 -0.3253
  376TIP3   OH2 1133   2.074   0.827   3.648 -0.1804  0.6595  0.4943
  376TIP3    H1 1134   2.012   0.818   3.575 -0.5475  0.0678  0.8746
  376TIP3    H2 1135   2.073   0.742   3.692  1.0295  0.5933  0.4206
  377TIP3   OH2 1136   1.987   1.503   3.515 -0.0122 -0.1231 -0.2359
  377TIP3    H1 1137   2.057   1.568   3.517 -1.2246  1.2561 -0.5500
  377TIP3    H2 1138   1.991   1.466   3.427  0.2240  0.0416 -0.2951
  378TIP3   OH2 1139   6.055   5.457   0.788 -0.3667 -0.1208 -0.3179
  378TIP3    H1 1140   6.135   5.441   0.737  1.3199 -2.0183  2.6393
  378TIP3    H2 1141   6.069   5.544   0.826  0.5406 -0.6030  0.4985
  379TIP3   OH2 1142   4.218   4.635   2.766 -0.3994  0.6485  0.6197
  379TIP3    H1 1143   4.298   4.586   2.745 -1.1514 -0.1801 -0.4164
  379TIP3    H2 1144   4.147   4.580   2.735 -1.3569  1.6851  0.8976
  380TIP3   OH2 1145   4.330   5.070   1.791  0.0361  0.3401  0.2701
  380TIP3    H1 1146   4.274   5.021   1.731 -2.1321  0.1571  2.2908
  380TIP3    H2 1147   4.414   5.024   1.789 -0.4815 -0.6294 -1.3400
  381TIP3   OH2 1148   1.363   0.767   3.419 -0.3306  0.0366  0.2406
  381TIP3    H1 1149   1.366   0.835   3.486  0.1524  1.3959 -1.1260
  381TIP3    H2 1150   1.426   0.701   3.449 -0.6214  0.2857  1.4434
  382TIP3   OH2 1151   0.710   1.958   0.757  0.0787  0.3931 -0.6758
  382TIP3    H1 1152   0.799   1.994   0.760  0.1192  0.2480  0.0652
  382TIP3    H2 1153   0.653   2.035   0.760  0.1661  0.5541 -2.2467
  383TIP3   OH2 1154   3.070   1.920   1.852 -0.0842 -0.2117  0.0602
  383TIP3    H1 1155   2.997   1.901   1.793  1.7899  0.1225 -2.5192
  383TIP3    H2 1156   3.089   2.012   1.837  2.5863 -0.9187 -1.4998
  384TIP3   OH2 1157   2.694   0.993   1.109 -0.4344 -0.1826 -0.1624
  384TIP3    H1 1158   2.778   0.955   1.136 -0.2673 -0.8624 -1.5484
  384TIP3    H2 1159   2.686   1.073   1.161  0.9932 -0.1820  0.1063
  385TIP3   OH2 1160   2.212   2.276   4.884 -0.3966  0.0143  0.3434
  385TIP3    H1 1161   2.243   2.308   4.799 -1.7751  0.4499 -0.0209
  385TIP3    H2 1162   2.292   2.266   4.936  0.5248 -0.7437 -1.1449
  386TIP3   OH2 1163   3.472   5.679   1.556 -0.0905 -0.3082 -0.2520
  386TIP3    H1 1164   3.478   5.704   1.464  0.9597  0.8572  0.1149
  386TIP3    H2 1165   3.459   5.761   1.603 -0.2824 -0.8499  0.6837
  387TIP3   OH2 1166   4.980   2.454   4.719 -0.2963 -0.3264 -0.1438
  387TIP3    H1 1167   4.922   2.457   4.643 -1.0987 -0.7160  0.4403
  387TIP3    H2 1168   5.026   2.538   4.718  0.3430 -0.6678 -1.5430
  388TIP3   OH2 1169   0.996   3.811   0.441  0.0006  0.0562  0.6875
  388TIP3    H1 1170   1.069   3.752   0.460  1.4290  0.8779 -1.7307
  388TIP3    H2 1171   1.002   3.878   0.508  2.0300  0.5138  0.1369
  389TIP3   OH2 1172   5.136   2.371   0.360 -0.2336 -0.7238 -0.0114
  389TIP3    H1 1173   5.199   2.378   0.288  0.4810  1.0465  0.7346
  389TIP3    H2 1174   5.187   2.390   0.438 -1.2993 -1.2231  0.8232
  390TIP3   OH2 1175   1.792   4.443   0.146 -0.4718 -0.3924  0.4408
  390TIP3    H1 1176   1.868   4.485   0.106 -0.8369 -0.1849 -0.0444
  390TIP3    H2 1177   1.820   4.423   0.236  0.2374 -0.5422  0.1936
  391TIP3   OH2 1178   5.762   2.895   2.186  0.0918  0.2495  0.7144
  391TIP3    H1 1179   5.786   2.862   2.099  0.8025  0.9869  0.6098
  391TIP3    H2 1180   5.667   2.899   2.185 -0.1236 -2.7893  1.1302
  392TIP3   OH2 1181   2.080   3.099   4.061 -0.2771  0.2721  0.8638
  392TIP3    H1 1182   2.010   3.098   3.995  1.7710  2.2384 -1.5415
  392TIP3    H2 1183   2.076   3.013   4.101 -1.3170 -1.2690 -2.2374
  393TIP3   OH2 1184   6.254   2.064   3.787 -0.3221  0.2251  0.2756
  393TIP3    H1 1185   6.198   2.027   3.855  1.0613 -0.2751  1.1823
  393TIP3    H2 1186   6.197   2.127   3.741 -1.6477 -0.3518  1.0560
  394TIP3   OH2 1187   2.889   2.489   0.169 -0.4852 -0.1206 -0.7540
  394TIP3    H1 1188   2.831   2.529   0.104 -0.2758  0.3156 -0.6761
  394TIP3    H2 1189   2.897   2.555   0.238  0.0646 -0.1936 -0.7411
  395TIP3   OH2 1190   2.039   2.789   2.678 -0.2253 -0.0639 -0.4939
  395TIP3    H1 1191   1.985   2.799   2.599 -1.7856  0.8593  0.6408
  395TIP3    H2 1192   2.109   2.853   2.667  0.7927 -1.3838 -2.0607
  396TIP3   OH2 1193   1.521   4.727   1.043  0.7186  0.2194  0.6426
  396TIP3    H1 1194   1.602   4.703   1.090  0.9517 -0.0114  0.1261
  396TIP3    H2 1195   1.535   4.695   0.954 -0.2563 -0.4983  0.7392
  397TIP3   OH2 1196   0.862   2.882   1.514 -0.1373  0.0331  0.7044
  397TIP3    H1 1197   0.865   2.787   1.525  1.4042  0.0776  0.9639
  397TIP3    H2 1198   0.954   2.909   1.514 -0.5538  1.5577  0.8811
  398TIP3   OH2 1199   5.615   0.974   1.245 -0.4264 -0.2411 -0.1133
  398TIP3    H1 1200   5.691   0.954   1.191  0.2678  1.9554 -0.0424
  398TIP3    H2 1201   5.651   0.999   1.330 -1.2279  0.5708  0.0075
  399TIP3   OH2 1202   0.243   3.997   4.792  0.4941 -0.3027 -0.3241
  399TIP3    H1 1203   0.175   4.055   4.759 -0.2223 -0.8374  0.1591
  399TIP3    H2 1204   0.256   4.024   4.883  1.2246  0.0529 -0.5234
  400TIP3   OH2 1205   2.078   2.014   4.293  0.0588 -0.0636 -0.4203
  400TIP3    H1 1206   2.161   1.985   4.255 -0.3649  0.5571 -1.9369
  400TIP3    H2 1207   2.078   1.980   4.382  0.7094 -2.4336 -1.2620
  401TIP3   OH2 1208   5.812   5.347   1.995 -0.1357  0.3587  0.4973
  401TIP3    H1 1209   5.804   5.308   1.908  1.9081  2.5280 -0.7851
  401TIP3    H2 1210   5.724   5.375   2.018 -0.7179 -0.3057 -0.8410
  402TIP3   OH2 1211   1.617   5.632   3.094  0.0023 -0.1827  0.1919
  402TIP3    H1 1212   1.645   5.590   3.013 -1.6930  0.0662 -0.5473
  402TIP3    H2 1213   1.551   5.573   3.130 -1.2510  1.0261 -0.0435
  403TIP3   OH2 1214   4.473   4.009   0.378  0.3248  0.1253 -0.1591
  403TIP3    H1 1215   4.436   3.926   0.409 -0.2637  0.5734  0.3749
  403TIP3    H2 1216   4.410   4.039   0.312 -0.1609  0.7740  0.5814
  404TIP3   OH2 1217   1.324   5.262   3.477 -0.1810 -0.0637  0.0989
  404TIP3    H1 1218   1.241   5.296   3.444  0.7824  0.4755 -1.9205
  404TIP3    H2 1219   1.381   5.259   3.401  1.6536 -0.4876  1.4120
  405TIP3   OH2 1220   1.150   2.913   1.109  0.1019 -0.2339  0.1986
  405TIP3    H1 1221   1.145   2.857   1.032  0.2530  0.9832 -0.7252
  405TIP3    H2 1222   1.157   2.853   1.183  0.5366 -1.4086 -0.7830
  406TIP3   OH2 1223   1.018   3.546   3.073 -0.7034  0.1709  0.4615
  406TIP3    H1 1224   0.977   3.478   3.020 -0.2767 -1.5074  2.1440
  406TIP3    H2 1225   1.072   3.595   3.011 -2.0579 -0.1619 -1.0509
  407TIP3   OH2 1226   2.807   3.657   2.250  0.3186  0.1141 -0.2495
  407TIP3    H1 1227   2.803   3.658   2.154 -1.3420  2.3806 -0.2331
  407TIP3    H2 1228   2.732   3.604   2.276 -0.7711  1.5890 -0.2463
  408TIP3   OH2 1229   0.003   2.274   2.780 -0.2796 -0.5033 -0.0111
  408TIP3    H1 1230   0.063   2.224   2.725 -1.0864 -1.2374 -0.2423
  408TIP3    H2 1231   0.060   2.328   2.835  0.5745 -0.9301 -0.4632
  409TIP3   OH2 1232   1.147   4.900   2.302 -0.1529 -0.0890  0.3011
  409TIP3    H1 1233   1.115   4.983   2.339  1.1800  0.9202 -0.7192
  409TIP3    H2 1234   1.234   4.889   2.341 -0.0528 -0.6852 -0.0805
  410TIP3   OH2 1235   4.419   4.554   1.256  0.1072 -0.0834  0.2574
  410TIP3    H1 1236   4.356   4.506   1.311 -0.3818 -0.2441 -0.4376
  410TIP3    H2 1237   4.467   4.609   1.318  1.2674 -2.0744  1.2228
  411TIP3   OH2 1238   2.890   1.768   5.112 -0.0467 -0.1058  0.0635
  411TIP3    H1 1239   2.874   1.729   5.198 -1.2052  1.7837  0.7611
  411TIP3    H2 1240   2.832   1.845   5.109 -0.0550 -0.1324 -2.4206
  412TIP3   OH2 1241   5.745   2.332   0.344 -0.2923  0.0097 -0.7472
  412TIP3    H1 1242   5.812   2.286   0.294 -0.2581  0.6536 -1.3166
  412TIP3    H2 1243   5.665   2.319   0.293 -0.1369  1.2103 -1.3523
  413TIP3   OH2 1244   4.317   5.802   1.401 -0.0010 -0.1967  0.3258
  413TIP3    H1 1245   4.335   5.890   1.431 -1.2851 -0.3490  1.6113
  413TIP3    H2 1246   4.238   5.810   1.347 -0.1314 -0.5705  0.4572
  414TIP3   OH2 1247   4.516   4.727   2.517 -0.0571  0.4655  0.7427
  414TIP3    H1 1248   4.549   4.781   2.445  1.1292 -1.4821 -0.2473
  414TIP3    H2 1249   4.426   4.757   2.530  0.0243  1.5281 -0.8834
  415TIP3   OH2 1250   6.329   0.858   2.374 -0.1449 -0.2044 -0.1105
  415TIP3    H1 1251   6.250   0.877   2.425 -0.2368  1.1590 -0.7111
  415TIP3    H2 1252   6.348   0.766   2.393 -0.4202  0.1294  2.0257
  416TIP3   OH2 1253   0.529   4.362   1.622 -0.2196  0.4241 -0.0409
  416TIP3    H1 1254   0.517   4.267   1.635 -3.1870  0.6641 -0.2488
  416TIP3    H2 1255   0.530   4.398   1.711 -0.4361  0.3035  0.0114
  417TIP3   OH2 1256   5.241   0.923   0.995  0.2848  0.3422 -0.2894
  417TIP3    H1 1257   5.274   1.010   0.974 -0.0329  0.7036  0.6376
  417TIP3    H2 1258   5.263   0.912   1.088 -3.0578  1.0418  0.7135
  418TIP3   OH2 1259   0.468   0.557   3.994  0.7451 -0.3191  0.3912
  418TIP3    H1 1260   0.461   0.480   4.052 -0.4907 -0.3390  0.2411
  418TIP3    H2 1261   0.562   0.572   3.987  0.9704 -1.0364  1.4640
  419TIP3   OH2 1262   0.803   4.107   2.275  0.1327 -0.4113 -0.2653
  419TIP3    H1 1263   0.850   4.176   2.229  1.2000 -1.6157 -1.0618
  419TIP3    H2 1264   0.781   4.145   2.360  0.5080  0.9578 -0.7580
  420TIP3   OH2 1265   0.681   2.076   4.043 -0.1016  0.2813 -0.3540
  420TIP3    H1 1266   0.729   2.000   4.011 -1.2011 -0.4516 -0.3335
  420TIP3    H2 1267   0.591   2.062   4.012 -1.2575 -0.5035  2.9668
  421TIP3   OH2 1268   4.917   5.453   0.060 -0.5522  0.3606  0.0884
  421TIP3    H1 1269   4.890   5.538   0.093 -3.8012 -1.1453  1.8144
  421TIP3    H2 1270   4.962   5.412   0.134  0.8839  0.4578 -0.6912
  422TIP3   OH2 1271   6.240   3.356   4.075 -0.0518  0.0570  0.0408
  422TIP3    H1 1272   6.183   3.348   3.998 -1.0403  0.4412  0.7115
  422TIP3    H2 1273   6.328   3.341   4.041 -0.5476 -0.5818 -1.0206
  423TIP3   OH2 1274   0.872   4.015   0.046  0.3897 -0.1539  0.8691
  423TIP3    H1 1275   0.927   4.089   0.073  0.8659 -0.4827  0.8087
  423TIP3    H2 1276   0.831   4.045  -0.035  1.4040 -0.3434  0.2697
  424TIP3   OH2 1277   6.100   2.413   3.211 -0.6646  0.5058  0.0509
  424TIP3    H1 1278   6.086   2.319   3.221 -1.3084  0.5695 -0.2016
  424TIP3    H2 1279   6.192   2.427   3.235 -0.9977  0.0561  1.7463
  425TIP3   OH2 1280   6.077   1.405   2.287 -0.1145 -0.3140  0.1180
  425TIP3    H1 1281   6.171   1.419   2.295  0.0320 -0.9673 -0.3959
  425TIP3    H2 1282   6.038   1.473   2.342  0.6645 -0.3308  0.7035
  426TIP3   OH2 1283   1.000   2.085   3.926  0.5989 -0.3834 -0.2882
  426TIP3    H1 1284   0.919   2.053   3.967  0.3197  0.3522 -0.2491
  426TIP3    H2 1285   1.062   2.013   3.938 -0.1433 -1.1127 -0.6406
  427TIP3   OH2 1286   6.374   2.793   3.714  0.2569  0.6073  0.0089
  427TIP3    H1 1287   6.302   2.793   3.652  0.6595  0.0295 -0.4712
  427TIP3    H2 1288   6.332   2.794   3.800 -0.3130  0.6611 -0.2684
  428TIP3   OH2 1289   5.970   4.299   1.254 -0.1750  0.1600 -0.9904
  428TIP3    H1 1290   5.939   4.389   1.245 -0.0183  0.2527 -0.6377
  428TIP3    H2 1291   6.051   4.296   1.202  0.1667  0.4036 -0.4802
  429TIP3   OH2 1292   4.808   1.350   0.929 -0.3550  0.2678 -0.1330
  429TIP3    H1 1293   4.844   1.290   0.994 -1.5299 -0.7805 -0.3965
  429TIP3    H2 1294   4.826   1.437   0.964  2.9414 -0.1000 -0.5634
  430TIP3   OH2 1295   3.422   0.568   3.032 -0.1441 -0.7936 -0.1351
  430TIP3    H1 1296   3.364   0.550   3.106  0.1362 -2.1731 -0.2391
  430TIP3    H2 1297   3.391   0.509   2.963  0.4705 -0.4962 -0.6698
  431TIP3   OH2 1298   4.142   3.634   5.076 -0.2405  0.6039  0.4906
  431TIP3    H1 1299   4.209   3.700   5.093 -1.7130  2.0023  1.1481
  431TIP3    H2 1300   4.130   3.636   4.981  1.5901 -0.6787  0.1833
  432TIP3   OH2 1301   1.589   2.898   1.356  0.5868 -0.6122  0.3438
  432TIP3    H1 1302   1.564   2.908   1.265 -0.9827 -0.6027  0.7515
  432TIP3    H2 1303   1.620   2.808   1.363 -0.7407 -1.1017  0.1142
  433TIP3   OH2 1304   6.198   3.290   3.391 -0.3443  0.1322 -1.0054
  433TIP3    H1 1305   6.246   3.209   3.405 -0.6622  0.1375  0.2027
  433TIP3    H2 1306   6.123   3.284   3.450 -0.8158  0.9513 -1.4996
  434TIP3   OH2 1307   4.464   3.080   1.677  0.2823 -0.0253  0.2635
  434TIP3    H1 1308   4.394   3.092   1.741 -0.6995 -0.9005 -0.5952
  434TIP3    H2 1309   4.532   3.032   1.723  0.4371  1.0477  1.1828
  435TIP3   OH2 1310   3.468   0.854   1.541  0.0964  0.1848 -0.3898
  435TIP3    H1 1311   3.379   0.865   1.577 -0.0109  0.8279 -0.8239
  435TIP3    H2 1312   3.482   0.934   1.490  0.2257 -0.7258 -1.8160
  436TIP3   OH2 1313   2.920   5.788   1.797  0.2383 -0.5418  0.1898
  436TIP3    H1 1314   2.905   5.849   1.725 -1.8295 -1.3855 -0.1821
  436TIP3    H2 1315   3.004   5.747   1.777  0.1339 -0.0975 -1.2831
  437TIP3   OH2 1316   2.826   4.120   2.976  0.1748  0.1471 -0.1607
  437TIP3    H1 1317   2.904   4.131   2.922  0.2733 -0.4003 -0.1305
  437TIP3    H2 1318   2.802   4.209   3.000  1.4292  0.2758  0.7254
  438TIP3   OH2 1319   2.617   0.581   3.983 -0.4003  0.5484  0.5175
  438TIP3    H1 1320   2.595   0.624   3.900 -1.3693 -2.9098 -1.2105
  438TIP3    H2 1321   2.676   0.510   3.959 -0.6429 -0.5281  2.7979
  439TIP3   OH2 1322   4.745   0.099   2.149  0.0187  0.2133 -0.1586
  439TIP3    H1 1323   4.782   0.058   2.070  0.1808  0.0427  0.0038
  439TIP3    H2 1324   4.788   0.184   2.153 -0.6394  0.5886 -0.7385
  440TIP3   OH2 1325   3.549   4.591   1.347 -0.0934 -0.2913  0.1943
  440TIP3    H1 1326   3.616   4.626   1.407 -2.2568 -0.1079  2.7106
  440TIP3    H2 1327   3.550   4.651   1.273  3.6271 -1.2704 -0.7936
  441TIP3   OH2 1328   1.143   2.455   1.832  0.3798  0.0788  0.0497
  441TIP3    H1 1329   1.105   2.510   1.763  0.0294 -0.4458 -0.1865
  441TIP3    H2 1330   1.069   2.433   1.889  0.7616  0.9374  0.8953
  442TIP3   OH2 1331   5.830   5.834   1.129 -0.5301 -0.1330 -0.2297
  442TIP3    H1 1332   5.749   5.825   1.180  0.1695  0.4006  1.0391
  442TIP3    H2 1333   5.816   5.912   1.076 -0.4759  0.5968  0.7834
  443TIP3   OH2 1334   5.803   4.246   2.174  0.3686 -0.0581  0.5539
  443TIP3    H1 1335   5.817   4.279   2.262 -1.6249 -1.1665  1.3585
  443TIP3    H2 1336   5.865   4.174   2.164  3.3707  2.4403 -0.5025
  444TIP3   OH2 1337   3.509   2.883   0.287  0.6012  0.1639 -0.0756
  444TIP3    H1 1338   3.562   2.893   0.366  0.4662  0.0758  0.0262
  444TIP3    H2 1339   3.426   2.926   0.308 -0.0581 -1.3055  0.4351
  445TIP3   OH2 1340   1.083   4.314   4.981  0.1098  0.1491 -0.0210
  445TIP3    H1 1341   1.074   4.235   5.034  0.4980  0.3497  0.3504
  445TIP3    H2 1342   1.045   4.383   5.034 -0.4296  0.1779 -0.4382
  446TIP3   OH2 1343   5.920   2.430   1.566  0.2649  0.0846 -0.3119
  446TIP3    H1 1344   5.910   2.425   1.471  2.1938 -0.2113 -0.5397
  446TIP3    H2 1345   5.860   2.364   1.600  0.4691 -0.6967 -1.4124
  447TIP3   OH2 1346   2.844   3.869   3.176 -0.5412  0.2648 -0.2839
  447TIP3    H1 1347   2.838   3.777   3.202 -0.2104  0.3470  0.0854
  447TIP3    H2 1348   2.802   3.872   3.090  0.0960 -0.3689 -0.6286
  448TIP3   OH2 1349   1.490   0.568   1.312 -0.3512 -0.0030  0.0727
  448TIP3    H1 1350   1.486   0.511   1.235  1.0726 -0.3181  0.2068
  448TIP3    H2 1351   1.425   0.533   1.372 -1.8402  0.5416 -1.1732
  449TIP3   OH2 1352   4.225   0.478   3.883  0.2285 -0.3087  0.2511
  449TIP3    H1 1353   4.243   0.567   3.853 -0.9552 -0.1020  0.0957
  449TIP3    H2 1354   4.298   0.426   3.849  1.1872  0.6695  0.7597
  450TIP3   OH2 1355   2.730   2.531   3.411 -0.5513  0.4597 -0.0667
  450TIP3    H1 1356   2.665   2.578   3.359  0.1453  1.8942  0.3048
  450TIP3    H2 1357   2.737   2.581   3.493  0.5317 -0.0390  0.1710
  451TIP3   OH2 1358   2.657   5.284   1.311 -0.4549 -0.4616 -0.5141
  451TIP3    H1 1359   2.727   5.349   1.303 -0.1915 -0.6702  0.0547
  451TIP3    H2 1360   2.577   5.332   1.290 -0.1540 -0.2023 -1.1007
  452TIP3   OH2 1361   4.278   1.801   3.440  0.2934  0.1211  0.3241
  452TIP3    H1 1362   4.297   1.894   3.452 -1.0000  0.4542 -0.0944
  452TIP3    H2 1363   4.220   1.779   3.513  0.3123 -0.2711  0.2227
  453TIP3   OH2 1364   5.443   0.939   4.594 -0.2308  0.0861 -0.1853
  453TIP3    H1 1365   5.373   0.984   4.547 -0.1109 -0.4953 -0.9460
  453TIP3    H2 1366   5.424   0.846   4.582 -0.3719 -0.0765  1.2058
  454TIP3   OH2 1367   2.018   2.831   3.402 -0.3497  0.1750  0.0451
  454TIP3    H1 1368   2.072   2.885   3.344 -1.2687  0.3747 -0.6575
  454TIP3    H2 1369   1.935   2.822   3.355 -1.4029  0.9729  1.6557
  455TIP3   OH2 1370   4.241   3.358   2.395 -0.4078  0.3585  0.1219
  455TIP3    H1 1371   4.175   3.381   2.330 -0.0496 -1.7442 -1.0732
  455TIP3    H2 1372   4.193   3.314   2.464 -0.7240  2.2099  1.1647
  456TIP3   OH2 1373   1.271   5.784   2.077 -0.2985  0.1975  0.3211
  456TIP3    H1 1374   1.214   5.713   2.106 -1.4597  0.0819 -2.0015
  456TIP3    H2 1375   1.210   5.852   2.046  0.7779  0.4426 -1.4003
  457TIP3   OH2 1376   4.340   0.397   3.434  0.3436  0.2544 -0.3315
  457TIP3    H1 1377   4.307   0.458   3.499 -0.9257 -0.7346  0.0119
  457TIP3    H2 1378   4.286   0.412   3.356  0.5085  0.0777 -0.4838
  458TIP3   OH2 1379   4.068   1.557   4.510  0.2918 -0.0899 -0.1603
  458TIP3    H1 1380   4.131   1.524   4.446 -0.0396 -0.3766 -0.3421
  458TIP3    H2 1381   4.019   1.625   4.465  2.1710  1.9925  0.7456
  459TIP3   OH2 1382   3.456   3.178   0.863  0.1500  0.2026  0.0745
  459TIP3    H1 1383   3.462   3.245   0.932 -1.5097  0.3386  0.1259
  459TIP3    H2 1384   3.396   3.215   0.798 -1.8916 -1.7007  0.7240
  460TIP3   OH2 1385   3.264   4.736   3.608 -0.5586  0.0502  0.0820
  460TIP3    H1 1386   3.341   4.793   3.607 -1.9193  2.0763 -2.2712
  460TIP3    H2 1387   3.268   4.690   3.524 -1.2592 -0.8012  0.5038
  461TIP3   OH2 1388   0.798   4.314   3.040 -0.1186 -0.1013 -0.5091
  461TIP3    H1 1389   0.821   4.322   2.948  1.2160 -1.0599 -0.2764
  461TIP3    H2 1390   0.770   4.223   3.051 -1.5478  0.3348 -0.2100
  462TIP3   OH2 1391   3.143   0.775   4.971 -0.0500  0.2020  0.3292
  462TIP3    H1 1392   3.067   0.730   4.936  0.7049  0.1997 -1.4024
  462TIP3    H2 1393   3.172   0.833   4.900  1.8960 -0.2217  0.7107
  463TIP3   OH2 1394   4.293   4.259   3.761  0.2681  0.2273 -0.1562
  463TIP3    H1 1395   4.228   4.312   3.807  1.3290  0.8788  0.6623
  463TIP3    H2 1396   4.377   4.300   3.783  1.0940 -1.5096  0.1247
  464TIP3   OH2 1397   4.027   1.598   1.015  0.3414  0.0086  0.3099
  464TIP3    H1 1398   4.017   1.690   0.990 -0.2788 -0.3474 -0.8015
  464TIP3    H2 1399   3.972   1.550   0.954  3.3125 -1.4525 -1.4364
  465TIP3   OH2 1400   4.765   3.990   3.382 -0.2384  0.0353  0.3471
  465TIP3    H1 1401   4.739   4.045   3.308  0.3591 -0.0144  0.0937
  465TIP3    H2 1402   4.841   4.034   3.419 -0.3923 -0.0654  0.7971
  466TIP3   OH2 1403   5.287   2.569   4.003  0.2893  0.1759 -0.3622
  466TIP3    H1 1404   5.320   2.555   3.914 -0.5550 -0.9091 -0.5120
  466TIP3    H2 1405   5.194   2.588   3.992  0.1370 -0.1549  0.2994
  467TIP3   OH2 1406   3.150   3.340   4.556 -0.1786 -0.4381 -0.0403
  467TIP3    H1 1407   3.212   3.267   4.556  0.1294 -0.2594  2.8699
  467TIP3    H2 1408   3.065   3.299   4.538  0.3842 -0.9983 -1.6721
  468TIP3   OH2 1409   0.626   5.593   1.066  0.0280  0.1511  0.5088
  468TIP3    H1 1410   0.579   5.673   1.042  1.9628  1.0190 -0.6233
  468TIP3    H2 1411   0.648   5.605   1.159  1.3793  1.5494  0.0439
  469TIP3   OH2 1412   5.945   1.732   3.290 -0.2563 -0.1159  0.1776
  469TIP3    H1 1413   6.039   1.728   3.303  0.0412  0.2037 -1.6201
  469TIP3    H2 1414   5.921   1.643   3.263 -0.2514  0.0918 -0.5389
  470TIP3   OH2 1415   3.840   2.964   1.690 -0.3182 -0.6138 -0.0408
  470TIP3    H1 1416   3.881   3.025   1.751 -0.0686 -0.9159  0.1020
  470TIP3    H2 1417   3.749   2.990   1.686 -0.5230 -1.0962  1.1128
  471TIP3   OH2 1418   2.562   3.867   3.993 -0.0354 -0.4061  0.2967
  471TIP3    H1 1419   2.608   3.949   3.977  0.4596 -0.5402  0.9836
  471TIP3    H2 1420   2.557   3.825   3.907 -0.8855  0.6312 -0.1821
  472TIP3   OH2 1421   4.739   4.492   3.130 -0.2244  0.8522 -0.4140
  472TIP3    H1 1422   4.691   4.483   3.212  1.2193  1.4361  0.5293
  472TIP3    H2 1423   4.718   4.580   3.100  0.8346  1.4173  0.4203
  473TIP3   OH2 1424   4.707   5.223   0.099 -0.3755 -0.0683  0.1424
  473TIP3    H1 1425   4.677   5.215   0.008  0.4919 -0.0023 -0.1589
  473TIP3    H2 1426   4.768   5.296   0.098 -0.4674  0.0231  0.8108
  474TIP3   OH2 1427   5.114   4.165   3.402 -0.4597  0.3086  0.3182
  474TIP3    H1 1428   5.047   4.222   3.364 -0.6619  0.0217  0.2358
  474TIP3    H2 1429   5.069   4.115   3.469 -0.5842 -0.6083 -0.4142
  475TIP3   OH2 1430   1.778   5.140   1.533 -0.2344 -0.4277  0.0736
  475TIP3    H1 1431   1.781   5.045   1.521  0.8829 -0.6426  1.7344
  475TIP3    H2 1432   1.790   5.153   1.627  2.7338  1.4666 -0.4237
  476TIP3   OH2 1433   3.348   2.916   2.189 -0.6347  0.2898  0.3944
  476TIP3    H1 1434   3.354   2.980   2.259  0.5430  0.8760 -0.2030
  476TIP3    H2 1435   3.264   2.872   2.202 -0.7900  0.9455  1.6742
  477TIP3   OH2 1436   1.435   3.382   1.719 -0.3140 -0.1834  0.3361
  477TIP3    H1 1437   1.340   3.394   1.718 -0.1087  1.8519 -1.1272
  477TIP3    H2 1438   1.469   3.463   1.758  0.8887  0.2676 -1.5070
  478TIP3   OH2 1439   2.872   3.971   3.735  0.3609 -1.1504 -0.5218
  478TIP3    H1 1440   2.926   3.901   3.771  1.3178  0.2446  0.8874
  478TIP3    H2 1441   2.934   4.035   3.702 -0.3087  0.7988  1.7346
  479TIP3   OH2 1442   6.142   5.077   2.890 -0.3979 -0.5055 -0.9821
  479TIP3    H1 1443   6.212   5.092   2.826 -0.7904  0.5839 -1.1737
  479TIP3    H2 1444   6.084   5.152   2.881 -1.0958 -0.9228 -0.1594
  480TIP3   OH2 1445   0.367   5.838   1.262  0.1593  0.0651  0.2698
  480TIP3    H1 1446   0.302   5.771   1.242  1.2436 -0.8747 -0.1966
  480TIP3    H2 1447   0.385   5.826   1.356 -0.8661  0.8392  0.5936
  481TIP3   OH2 1448   1.243   2.771   4.559  0.0669  0.0384 -0.1818
  481TIP3    H1 1449   1.304   2.790   4.487 -1.0317  0.3726 -1.0663
  481TIP3    H2 1450   1.199   2.690   4.532 -1.0284  0.6719 -0.3778
  482TIP3   OH2 1451   4.539   3.659   2.896  0.2950 -0.4369  0.1955
  482TIP3    H1 1452   4.508   3.569   2.905 -3.6027  0.7862  0.5531
  482TIP3    H2 1453   4.499   3.690   2.815  2.4832  0.7461 -0.5159
  483TIP3   OH2 1454   3.435   4.886   3.394 -0.3284  0.3842  0.3623
  483TIP3    H1 1455   3.389   4.826   3.334  0.3855  0.5968 -0.4193
  483TIP3    H2 1456   3.527   4.878   3.370 -0.2582  2.0726 -0.0249
  484TIP3   OH2 1457   5.640   1.509   2.931  0.3798  0.2147  0.4112
  484TIP3    H1 1458   5.596   1.549   2.857  1.3272 -0.7068 -0.6833
  484TIP3    H2 1459   5.718   1.467   2.894  0.4021 -1.0453  1.7628
  485TIP3   OH2 1460   2.520   4.612   3.723  0.1494 -0.4365  0.5123
  485TIP3    H1 1461   2.564   4.661   3.654  0.0014 -1.4608 -0.3225
  485TIP3    H2 1462   2.565   4.639   3.803  0.4814  0.5824  0.0060
  486TIP3   OH2 1463   1.435   5.443   1.536  0.2263 -0.2621 -0.2263
  486TIP3    H1 1464   1.476   5.508   1.478  0.9651 -1.0655 -0.6223
  486TIP3    H2 1465   1.344   5.471   1.543  0.3530  0.3754 -1.0245
  487TIP3   OH2 1466   3.097   3.952   2.428 -0.2042 -0.1295  0.2716
  487TIP3    H1 1467   3.149   4.010   2.372 -0.1083 -0.7627 -0.2979
  487TIP3    H2 1468   3.012   3.947   2.385 -0.3457 -0.0914  0.5407
  488TIP3   OH2 1469   2.290   5.428   3.148 -0.0517 -0.0486  0.5717
  488TIP3    H1 1470   2.282   5.379   3.229 -1.2332 -0.2432  0.3620
  488TIP3    H2 1471   2.202   5.462   3.132  0.1272 -0.1177 -0.6920
  489TIP3   OH2 1472   4.940   2.759   3.668  0.2571  0.0569  0.0892
  489TIP3    H1 1473   4.910   2.670   3.652 -1.4120  0.7933 -1.2464
  489TIP3    H2 1474   5.034   2.756   3.649  0.1614 -1.3234 -0.3044
  490TIP3   OH2 1475   3.962   0.179   2.759  0.2397  0.5822  0.2746
  490TIP3    H1 1476   3.869   0.198   2.772  0.0294  0.6926 -1.2180
  490TIP3    H2 1477   3.976   0.193   2.666  1.3701 -1.1161  0.1534
  491TIP3   OH2 1478   0.472   2.083   4.297  0.1103  0.1485 -0.1815
  491TIP3    H1 1479   0.548   2.041   4.257  0.4006  0.1771  0.3319
  491TIP3    H2 1480   0.397   2.032   4.265  0.3777 -0.1323 -0.3634
  492TIP3   OH2 1481   5.640   0.612   4.492  0.3506 -0.0522  0.2572
  492TIP3    H1 1482   5.548   0.633   4.508  0.1705 -0.2127 -0.5210
  492TIP3    H2 1483   5.688   0.687   4.529 -0.1028  0.1778  0.3924
  493TIP3   OH2 1484   2.687   3.873   2.933 -0.1916 -0.7081  0.2896
  493TIP3    H1 1485   2.724   3.961   2.935 -0.2173 -0.5627 -2.3670
  493TIP3    H2 1486   2.604   3.881   2.980  0.4198  0.3224  1.2603
  494TIP3   OH2 1487   3.886   2.683   3.493  0.1172 -0.4895 -0.2779
  494TIP3    H1 1488   3.843   2.767   3.503  0.4902 -0.0743 -1.8764
  494TIP3    H2 1489   3.891   2.669   3.398 -0.0740 -2.3799 -0.0633
  495TIP3   OH2 1490   5.786   4.324   3.781 -0.6627 -0.7729 -0.3493
  495TIP3    H1 1491   5.801   4.304   3.873 -1.8430  2.8333  0.8061
  495TIP3    H2 1492   5.873   4.331   3.743 -0.1138 -1.1410  0.8063
  496TIP3   OH2 1493   1.740   1.970   0.925 -0.4290 -0.1059 -0.4702
  496TIP3    H1 1494   1.714   1.989   0.835  0.3684  2.6305 -0.1973
  496TIP3    H2 1495   1.659   1.943   0.969 -1.0804 -0.1236 -1.6508
  497TIP3   OH2 1496  -0.012   3.248   0.523  0.3012  0.0733  0.2833
  497TIP3    H1 1497   0.029   3.228   0.438 -0.9952  0.4696 -0.4588
  497TIP3    H2 1498   0.014   3.338   0.542 -1.3473  0.8537 -0.9103
  498TIP3   OH2 1499   2.873   4.236   2.325  0.0761  0.3087 -0.6407
  498TIP3    H1 1500   2.968   4.236   2.310  0.6881 -1.4912  2.3356
  498TIP3    H2 1501   2.843   4.153   2.290 -0.0576  0.0731  0.0225
  499TIP3   OH2 1502   1.759   4.982   3.800 -0.2321  0.1949  0.1429
  499TIP3    H1 1503   1.756   4.982   3.895  0.0525  0.1670  0.1521
  499TIP3    H2 1504   1.826   4.917   3.777  0.1512  0.6492 -0.0550
  500TIP3   OH2 1505   0.112   3.805   2.724 -0.4534 -0.3179 -0.3801
  500TIP3    H1 1506   0.039   3.746   2.746 -0.8054 -0.0044 -0.6870
  500TIP3    H2 1507   0.155   3.821   2.808 -0.3642 -0.9910 -0.2865
  501TIP3   OH2 1508   0.410   3.860   3.474  0.1394  0.8751 -0.0867
  501TIP3    H1 1509   0.319   3.845   3.502  1.0146  0.0993  2.5642
  501TIP3    H2 1510   0.453   3.775   3.486  1.5216  1.5586 -0.0717
  502TIP3   OH2 1511   1.935   0.573   1.858  0.3092 -0.6269  0.0103
  502TIP3    H1 1512   1.980   0.606   1.936  0.0289  0.8686 -0.4287
  502TIP3    H2 1513   1.999   0.515   1.816  2.2028  1.9462 -0.9563
  503TIP3   OH2 1514   1.626   1.550   4.482 -0.6098 -0.2303 -0.1566
  503TIP3    H1 1515   1.531   1.550   4.468 -0.7324 -0.3983  0.6252
  503TIP3    H2 1516   1.641   1.622   4.543 -0.0908  0.4898 -1.1023
  504TIP3   OH2 1517   4.139   0.656   1.600  0.0025  0.1678  0.4279
  504TIP3    H1 1518   4.055   0.613   1.616 -0.7880  1.0810 -1.0037
  504TIP3    H2 1519   4.120   0.749   1.606  0.6830  0.4099 -0.8335
  505TIP3   OH2 1520   5.131   1.276   5.048  0.6110  0.2998 -0.9468
  505TIP3    H1 1521   5.096   1.219   4.979 -0.1485 -0.5759  0.1155
  505TIP3    H2 1522   5.226   1.265   5.042  0.5265 -0.2249 -1.4616
  506TIP3   OH2 1523   0.391   0.882   5.113 -0.5287  0.2445  0.1649
  506TIP3    H1 1524   0.310   0.838   5.140 -0.3734  0.6044  1.2423
  506TIP3    H2 1525   0.445   0.885   5.191  0.0819  1.0000 -0.2672
  507TIP3   OH2 1526   1.537   1.414   0.083 -0.0817  0.1194 -0.2382
  507TIP3    H1 1527   1.534   1.323   0.056 -3.5895 -0.0094  0.1473
  507TIP3    H2 1528   1.578   1.460   0.009 -0.1801 -1.4914 -1.3251
  508TIP3   OH2 1529   1.744   5.860   2.205 -0.1797  0.3698 -0.2074
  508TIP3    H1 1530   1.720   5.875   2.297  0.5472  1.0058 -0.1109
  508TIP3    H2 1531   1.783   5.772   2.205 -0.2003  0.3579  0.0963
  509TIP3   OH2 1532   1.968   3.511   2.184 -0.7953  0.1437 -0.7377
  509TIP3    H1 1533   2.008   3.569   2.248  0.1805  0.6386 -1.7625
  509TIP3    H2 1534   1.956   3.565   2.106 -0.5152 -0.8362 -1.4875
  510TIP3   OH2 1535   4.763   3.278   1.693  0.1137 -0.8615  0.4888
  510TIP3    H1 1536   4.721   3.260   1.777  0.7689 -2.1791  0.5514
  510TIP3    H2 1537   4.701   3.336   1.648 -0.7580 -1.0290  1.4321
  511TIP3   OH2 1538   5.954   1.017   1.825 -0.3229 -0.2724  0.8732
  511TIP3    H1 1539   5.896   0.960   1.775  0.3866 -0.1417 -0.1295
  511TIP3    H2 1540   5.973   0.968   1.905  0.4426 -1.5657 -0.0598
  512TIP3   OH2 1541   0.601   3.101   2.010 -0.1836 -0.6509 -0.4632
  512TIP3    H1 1542   0.665   3.030   2.004 -0.3380 -0.8711  0.3914
  512TIP3    H2 1543   0.556   3.100   1.925  1.0850 -0.3424 -1.1497
  513TIP3   OH2 1544   6.025   0.838   4.359 -0.5089  0.0761 -0.0339
  513TIP3    H1 1545   5.944   0.880   4.386 -0.6944 -0.1791 -0.1837
  513TIP3    H2 1546   5.997   0.754   4.322 -0.3017  0.5468 -1.3161
  514TIP3   OH2 1547   1.567   1.253   2.547 -0.4732 -0.0971 -0.7691
  514TIP3    H1 1548   1.606   1.168   2.526  0.2440 -0.1710  0.7176
  514TIP3    H2 1549   1.524   1.280   2.466  1.0029 -0.9266 -1.8841
  515TIP3   OH2 1550   0.452   1.673   1.796  0.0034  0.7704 -0.5047
  515TIP3    H1 1551   0.456   1.686   1.701 -0.9987 -2.6885 -1.1596
  515TIP3    H2 1552   0.540   1.644   1.820 -0.1624  0.1396 -0.6600
  516TIP3   OH2 1553   4.519   4.625   0.443 -0.7867  0.1629 -0.0405
  516TIP3    H1 1554   4.612   4.623   0.468 -0.8679  0.6178  0.3285
  516TIP3    H2 1555   4.494   4.717   0.456 -0.9458  0.3235 -1.4094
  517TIP3   OH2 1556   3.975   2.907   1.335  0.1231  0.3028 -0.2722
  517TIP3    H1 1557   3.931   2.990   1.356  1.5054  0.8806  0.4579
  517TIP3    H2 1558   3.992   2.867   1.421 -0.3306 -0.6644 -0.6051
  518TIP3   OH2 1559   2.668   2.722   1.186 -0.1633 -0.3011  0.8400
  518TIP3    H1 1560   2.573   2.735   1.180 -0.0548  0.0437 -0.4476
  518TIP3    H2 1561   2.688   2.737   1.278 -1.2860  0.1842  1.0274
  519TIP3   OH2 1562   5.041   3.805   1.225  0.3535  0.3154 -0.1714
  519TIP3    H1 1563   4.963   3.817   1.278  1.5504  2.8336  1.2074
  519TIP3    H2 1564   5.022   3.850   1.143  0.3997  1.0894  0.2374
  520TIP3   OH2 1565   3.417   3.889   1.230  0.1326  0.2277 -0.1697
  520TIP3    H1 1566   3.354   3.947   1.272  0.8634  1.5094 -0.7679
  520TIP3    H2 1567   3.376   3.864   1.147 -0.6438 -1.0272  0.5677
  521TIP3   OH2 1568   4.237   0.557   4.507 -0.4090 -0.3827  0.0670
  521TIP3    H1 1569   4.228   0.642   4.464 -0.1915 -0.1047  0.5538
  521TIP3    H2 1570   4.235   0.578   4.601 -0.5901 -0.9415  0.1924
  522TIP3   OH2 1571   3.505   1.998   2.208  0.0148  0.1319  0.4127
  522TIP3    H1 1572   3.460   2.032   2.131 -1.0107 -0.8236  0.5602
  522TIP3    H2 1573   3.435   1.979   2.271  0.3953 -2.8683  0.0777
  523TIP3   OH2 1574   2.349   0.839   2.099  0.0907 -0.0554 -0.2795
  523TIP3    H1 1575   2.432   0.793   2.112  0.0801 -0.0120 -0.0618
  523TIP3    H2 1576   2.286   0.770   2.081 -0.3195 -0.3205  1.8877
  524TIP3   OH2 1577   3.774   1.171   5.120 -0.2065  0.6953 -0.0890
  524TIP3    H1 1578   3.768   1.231   5.045  1.1790 -0.3712 -1.1149
  524TIP3    H2 1579   3.685   1.164   5.153 -0.9807  0.7470 -2.0226
  525TIP3   OH2 1580   5.947   5.350   1.600  0.0315  0.2501  0.7835
  525TIP3    H1 1581   5.975   5.320   1.687 -2.1041 -2.9506  0.5575
  525TIP3    H2 1582   5.974   5.280   1.541 -0.6041  1.2715 -0.7702
  526TIP3   OH2 1583   1.629   1.238   2.816  0.5506 -0.1784 -0.1951
  526TIP3    H1 1584   1.659   1.232   2.726 -1.2264 -1.6774 -0.7320
  526TIP3    H2 1585   1.539   1.269   2.810  1.0514  1.7966  1.2340
  527TIP3   OH2 1586   2.965   4.010   2.718 -0.8671 -0.2475 -0.1983
  527TIP3    H1 1587   3.025   3.957   2.665 -0.7446  0.7499 -1.1086
  527TIP3    H2 1588   3.020   4.081   2.751 -1.6173  0.9956 -1.5131
  528TIP3   OH2 1589   5.658   5.127   3.801  0.1693 -0.7076  0.8715
  528TIP3    H1 1590   5.585   5.106   3.742 -0.3102  1.5722  0.5831
  528TIP3    H2 1591   5.736   5.122   3.745  0.1275 -1.8674  0.8802
  529TIP3   OH2 1592   0.312   5.453   0.493  0.2652  0.4133 -1.0306
  529TIP3    H1 1593   0.219   5.431   0.483 -0.2152  0.7221  1.9442
  529TIP3    H2 1594   0.316   5.548   0.480 -0.2685  0.7500  0.9855
  530TIP3   OH2 1595   5.719   3.170   0.040  0.3272  0.1068 -0.6806
  530TIP3    H1 1596   5.640   3.191   0.089  0.6171  2.5769 -1.1580
  530TIP3    H2 1597   5.686   3.132  -0.042 -0.5029  2.3282 -1.4504
  531TIP3   OH2 1598   5.003  -0.013   1.250 -0.4714 -0.4308 -0.1534
  531TIP3    H1 1599   5.070   0.055   1.263 -0.4423 -0.5521  0.3594
  531TIP3    H2 1600   4.990  -0.016   1.155  2.4740 -2.4870 -0.6570
  532TIP3   OH2 1601   3.338   2.386   0.158  0.3510 -0.4154 -0.1855
  532TIP3    H1 1602   3.310   2.350   0.242 -3.2433 -0.3726 -1.1842
  532TIP3    H2 1603   3.382   2.468   0.181  0.5216 -0.9872  1.6955
  533TIP3   OH2 1604   0.941   4.058   3.306  0.0405  0.9239 -0.2019
  533TIP3    H1 1605   0.923   3.986   3.366 -0.1342  0.8212 -0.3785
  533TIP3    H2 1606   0.897   4.034   3.225 -1.7780  2.1784  0.3625
  534TIP3   OH2 1607   5.169   2.143   2.579  0.5898 -0.0162 -0.2589
  534TIP3    H1 1608   5.191   2.219   2.633 -0.5932 -0.0272  0.2521
  534TIP3    H2 1609   5.075   2.130   2.591  0.6175 -1.0666 -0.9853
  535TIP3   OH2 1610   5.658   5.064   3.358  0.6750  0.3406  0.2338
  535TIP3    H1 1611   5.714   5.090   3.431  1.2078 -0.9060  0.3097
  535TIP3    H2 1612   5.656   5.140   3.300  1.6637  0.7479  0.7031
  536TIP3   OH2 1613   0.625   0.668   4.270 -0.3812 -0.3589 -0.0020
  536TIP3    H1 1614   0.693   0.630   4.214  0.0341 -0.5976  0.6544
  536TIP3    H2 1615   0.642   0.632   4.357  1.4789  3.0491  1.2122
  537TIP3   OH2 1616   0.905   2.814   0.794 -0.4468 -0.4283 -0.3576
  537TIP3    H1 1617   0.927   2.807   0.701  2.2705  0.5306  0.1055
  537TIP3    H2 1618   0.986   2.790   0.839 -1.2404  0.5664  1.7445
  538TIP3   OH2 1619   2.300   2.086   3.805  0.0763  0.1896  0.2008
  538TIP3    H1 1620   2.215   2.065   3.843  0.3163 -0.1414  0.5573
  538TIP3    H2 1621   2.329   2.004   3.763 -1.1152  1.0382 -2.5377
  539TIP3   OH2 1622   4.368   1.079   3.720  0.2337 -0.2227 -0.6631
  539TIP3    H1 1623   4.313   1.025   3.663  0.7325 -0.2346 -1.1395
  539TIP3    H2 1624   4.368   1.032   3.804  0.7331 -1.0284 -1.0970
  540TIP3   OH2 1625   3.862   5.138   1.711 -0.2005  0.1539 -0.1815
  540TIP3    H1 1626   3.915   5.212   1.684  1.0111 -0.8086 -0.5542
  540TIP3    H2 1627   3.892   5.066   1.655 -0.5223 -0.8946  0.9567
  541TIP3   OH2 1628   1.545   0.879   3.947 -0.7275  0.2897 -0.0165
  541TIP3    H1 1629   1.637   0.852   3.946 -0.5735  0.7161 -2.1711
  541TIP3    H2 1630   1.529   0.904   4.038  0.9894 -0.7351  0.6301
  542TIP3   OH2 1631   1.263   4.670   1.198 -1.0017 -0.4583  0.1254
  542TIP3    H1 1632   1.320   4.741   1.170  3.5006 -2.1802  3.5942
  542TIP3    H2 1633   1.290   4.594   1.147 -1.1375 -1.0105  0.8409
  543TIP3   OH2 1634   4.984   2.072   2.339  0.1153 -0.1270  0.6779
  543TIP3    H1 1635   4.945   2.048   2.424  0.8344 -0.7691  0.8411
  543TIP3    H2 1636   4.941   2.014   2.276 -0.3792  0.3115  0.6114
  544TIP3   OH2 1637   3.153   2.497   0.995  0.2824  0.6294 -0.3063
  544TIP3    H1 1638   3.098   2.566   0.959  0.5116  1.2289  0.4558
  544TIP3    H2 1639   3.092   2.426   1.017 -0.0045  0.7408 -0.7403
  545TIP3   OH2 1640   0.360   2.552   3.289  0.0381 -0.0382  0.4688
  545TIP3    H1 1641   0.419   2.598   3.349  0.7117 -0.0263 -0.1853
  545TIP3    H2 1642   0.298   2.618   3.260 -0.6680 -0.1815  1.6087
  546TIP3   OH2 1643   0.103   3.673   4.444 -0.5789  0.2819  0.0977
  546TIP3    H1 1644   0.043   3.623   4.389  0.3464  2.1427 -2.8213
  546TIP3    H2 1645   0.189   3.638   4.422 -0.2822 -0.0161  1.6405
  547TIP3   OH2 1646   1.516   4.437   0.124 -0.2931 -0.1421  0.1212
  547TIP3    H1 1647   1.500   4.486   0.043 -0.8281 -1.6667 -0.7258
  547TIP3    H2 1648   1.611   4.424   0.126 -0.3806 -1.1064 -0.9042
  548TIP3   OH2 1649   6.062   1.916   5.006  0.1954 -0.4401  0.9226
  548TIP3    H1 1650   5.984   1.867   5.029 -1.3158  1.1085 -0.5117
  548TIP3    H2 1651   6.051   1.936   4.913  3.0979 -1.4784  0.2393
  549TIP3   OH2 1652   0.929   0.912   1.534 -0.0213 -0.4691 -0.0706
  549TIP3    H1 1653   0.841   0.932   1.567  0.9056  1.0665  1.6608
  549TIP3    H2 1654   0.923   0.822   1.503 -2.0731 -0.5612  0.4417
  550TIP3   OH2 1655   5.148   2.949   2.229 -0.8310 -0.2377  0.2970
  550TIP3    H1 1656   5.130   2.868   2.277 -0.9717 -1.0742 -1.1042
  550TIP3    H2 1657   5.242   2.945   2.210 -0.8315 -0.0584  0.2545
  551TIP3   OH2 1658   3.758   0.262   4.060 -0.5097 -0.5441 -0.1153
  551TIP3    H1 1659   3.786   0.343   4.102 -1.9253  0.2444 -0.6081
  551TIP3    H2 1660   3.822   0.247   3.991 -0.0257 -0.0422  0.2189
  552TIP3   OH2 1661   0.663  -0.025   5.123  0.7156  0.2572  0.4342
  552TIP3    H1 1662   0.604   0.034   5.076  0.3541 -1.2063 -1.0307
  552TIP3    H2 1663   0.746   0.023   5.128 -0.3268  2.0908  1.9736
  553TIP3   OH2 1664   3.795   4.418   0.828  0.0489 -0.2355  0.1809
  553TIP3    H1 1665   3.753   4.503   0.811 -1.4731 -0.9880  0.0512
  553TIP3    H2 1666   3.852   4.404   0.752 -0.9374 -0.0699 -0.6048
  554TIP3   OH2 1667   1.709   4.610   2.771  0.1757  0.4843 -0.0821
  554TIP3    H1 1668   1.792   4.656   2.783  0.9724 -0.9819  0.2801
  554TIP3    H2 1669   1.716   4.532   2.826 -2.5057  1.5528  2.0431
  555TIP3   OH2 1670   2.355   4.678   2.688 -0.7303  0.2113 -0.0167
  555TIP3    H1 1671   2.433   4.702   2.639 -0.6828 -1.0713 -0.6030
  555TIP3    H2 1672   2.283   4.717   2.638 -0.5569  0.4243 -0.1056
  556TIP3   OH2 1673   2.045   0.080   1.323  0.2026  0.2196  0.3300
  556TIP3    H1 1674   2.076   0.128   1.400  0.0023  0.4365  0.2746
  556TIP3    H2 1675   1.985   0.015   1.358  2.4123 -1.7469  0.7188
  557TIP3   OH2 1676   5.688   1.834   1.337 -0.4895  0.0763 -0.2908
  557TIP3    H1 1677   5.685   1.770   1.409  0.4145 -0.0105 -0.3149
  557TIP3    H2 1678   5.613   1.811   1.282 -1.8392  0.8130  1.1548
  558TIP3   OH2 1679   0.593   3.935   2.210  0.4348 -0.8610 -0.1337
  558TIP3    H1 1680   0.582   3.887   2.292 -2.9103  2.5907  1.7615
  558TIP3    H2 1681   0.675   3.983   2.222  0.2094 -0.7263  1.0712
  559TIP3   OH2 1682   5.498   3.941   3.287  0.0512  0.1025  0.0510
  559TIP3    H1 1683   5.548   3.932   3.205 -1.5571 -1.1806 -0.8540
  559TIP3    H2 1684   5.418   3.986   3.261 -0.8485 -1.0641  0.7348
  560TIP3   OH2 1685   4.109   0.832   0.192 -0.4775  0.6233  0.1818
  560TIP3    H1 1686   4.098   0.924   0.217 -0.6653  1.1093 -1.5758
  560TIP3    H2 1687   4.105   0.785   0.275 -0.2628  2.2023  1.1406
  561TIP3   OH2 1688   0.162   1.885   2.693 -0.7532  0.5778  0.1403
  561TIP3    H1 1689   0.096   1.816   2.703 -0.4050  0.1892 -0.1982
  561TIP3    H2 1690   0.171   1.896   2.598 -0.1263  0.4236  0.1786
  562TIP3   OH2 1691   0.237   1.787   3.510 -0.1598  0.0635  0.3980
  562TIP3    H1 1692   0.294   1.863   3.522 -1.0754  0.7299  0.7094
  562TIP3    H2 1693   0.156   1.811   3.556 -0.1013 -1.5291  1.3791
  563TIP3   OH2 1694   1.587   3.475   2.368 -0.1217  0.2300 -0.2570
  563TIP3    H1 1695   1.548   3.484   2.281 -0.9608 -0.0632  0.0800
  563TIP3    H2 1696   1.512   3.471   2.427  0.4462  1.9323  0.6424
  564TIP3   OH2 1697   2.512   4.925   2.516  0.4688 -0.0544  0.7923
  564TIP3    H1 1698   2.517   5.015   2.483  0.0170 -0.1258  0.5343
  564TIP3    H2 1699   2.488   4.872   2.440  1.2008 -0.4626  0.8376
  565TIP3   OH2 1700   4.658   5.431   1.804  0.3038  0.0056 -0.2856
  565TIP3    H1 1701   4.702   5.348   1.786  1.3275  0.8871 -2.2308
  565TIP3    H2 1702   4.691   5.490   1.736 -3.6053  0.8518 -1.7148
  566TIP3   OH2 1703   6.037   3.529   1.353  0.3821  0.3481  0.0651
  566TIP3    H1 1704   5.979   3.458   1.326  0.2105  0.5783 -0.1798
  566TIP3    H2 1705   6.118   3.486   1.377  0.5581  0.1246 -0.8712
  567TIP3   OH2 1706   2.865   1.376   0.851  0.3831 -0.0093  0.1103
  567TIP3    H1 1707   2.857   1.283   0.874  0.8510 -0.2374 -0.6218
  567TIP3    H2 1708   2.881   1.376   0.757  0.4123  0.8164  0.1096
  568TIP3   OH2 1709   1.303   2.533   3.862 -0.4698 -0.0022 -0.7796
  568TIP3    H1 1710   1.211   2.526   3.889  0.3234 -1.2428  1.9637
  568TIP3    H2 1711   1.314   2.463   3.797 -1.7651  1.1397 -2.3007
  569TIP3   OH2 1712   5.908   3.261   2.823 -0.2147 -0.2362  0.4152
  569TIP3    H1 1713   5.876   3.210   2.897  0.0481  0.6601  1.1602
  569TIP3    H2 1714   5.925   3.196   2.754 -3.3211 -0.8062  0.0506
  570TIP3   OH2 1715   3.182   5.329   0.805  0.7879  0.2183 -0.2796
  570TIP3    H1 1716   3.252   5.285   0.757  0.3822 -0.5698 -0.1626
  570TIP3    H2 1717   3.219   5.346   0.891  0.2107 -2.0628  0.5008
  571TIP3   OH2 1718   5.937   5.629   1.601 -0.4620  0.7157  0.4786
  571TIP3    H1 1719   5.946   5.539   1.632 -2.0423  0.7342  1.0708
  571TIP3    H2 1720   5.954   5.624   1.507 -0.5214 -0.2003  0.5125
  572TIP3   OH2 1721   0.151   0.008   3.807  0.6130 -0.5148  0.1196
  572TIP3    H1 1722   0.164   0.071   3.878  0.2815  0.1242 -0.3759
  572TIP3    H2 1723   0.206   0.039   3.736  0.0898 -0.5146 -0.2934
  573TIP3   OH2 1724   1.339   3.912   4.249  0.1014  0.0968  0.4399
  573TIP3    H1 1725   1.297   3.847   4.193  1.5733  0.4231 -1.0979
  573TIP3    H2 1726   1.291   3.906   4.332 -2.1448 -0.3773 -0.8330
  574TIP3   OH2 1727   2.614   0.181   1.103  1.1977  0.5405  0.0348
  574TIP3    H1 1728   2.661   0.105   1.136 -0.4379 -0.8953 -0.7686
  574TIP3    H2 1729   2.588   0.156   1.014 -1.8349  0.8434  0.7308
  575TIP3   OH2 1730   3.838   0.210   3.356  0.4037 -0.1403 -0.4091
  575TIP3    H1 1731   3.784   0.246   3.427  0.6360 -0.7045  0.0690
  575TIP3    H2 1732   3.895   0.282   3.330  0.7883 -0.1210  0.4566
  576TIP3   OH2 1733   3.692   0.364   0.042 -0.5814  0.1494 -0.3081
  576TIP3    H1 1734   3.635   0.431   0.080 -0.4233  0.7420 -1.1037
  576TIP3    H2 1735   3.763   0.355   0.106 -1.3864 -0.3747  0.5411
  577TIP3   OH2 1736   0.249   5.224   2.522 -0.4691 -0.1482  0.4873
  577TIP3    H1 1737   0.157   5.218   2.496 -0.0793 -1.5034 -0.7015
  577TIP3    H2 1738   0.297   5.201   2.442  0.8583 -1.1712  1.5494
  578TIP3   OH2 1739   5.192   1.781   1.727 -0.1978  0.5667  0.2458
  578TIP3    H1 1740   5.197   1.876   1.738  2.4333  0.5659 -0.2672
  578TIP3    H2 1741   5.216   1.766   1.636  1.6061 -0.6775  0.8743
  579TIP3   OH2 1742   3.302   5.498   1.287 -0.1900 -0.1520 -0.1789
  579TIP3    H1 1743   3.260   5.476   1.370  0.7644  0.4811  0.4936
  579TIP3    H2 1744   3.260   5.579   1.260 -1.5725 -1.1347 -1.1172
  580TIP3   OH2 1745   2.722   5.439   3.144  0.2129  0.1429  0.5045
  580TIP3    H1 1746   2.632   5.407   3.140  0.5568 -0.6640 -1.3001
  580TIP3    H2 1747   2.720   5.522   3.097  0.4091  0.1542  0.5150
  581TIP3   OH2 1748   1.619   4.268   2.928  0.2261 -0.2542 -0.1034
  581TIP3    H1 1749   1.573   4.350   2.944 -0.6377 -0.5642 -0.8960
  581TIP3    H2 1750   1.579   4.234   2.848  1.8564 -0.5233 -0.8563
  582TIP3   OH2 1751   2.389   3.463   1.578 -0.9249 -0.3142  0.0205
  582TIP3    H1 1752   2.402   3.554   1.605 -1.2311  0.2623 -1.6575
  582TIP3    H2 1753   2.368   3.417   1.659 -2.6054  1.4553  0.6589
  583TIP3   OH2 1754   6.165   2.807   4.138 -0.1153 -0.3721 -0.7351
  583TIP3    H1 1755   6.088   2.831   4.188  0.1730  3.6284 -1.8798
  583TIP3    H2 1756   6.131   2.751   4.067 -1.8482  0.6824 -0.7837
  584TIP3   OH2 1757   2.288   1.843   1.020  0.0013 -0.4550 -0.0910
  584TIP3    H1 1758   2.283   1.801   1.106  0.7980  0.3538  0.3671
  584TIP3    H2 1759   2.223   1.797   0.968  0.7388 -2.1717  0.4179
  585TIP3   OH2 1760   2.719   2.298   2.968  0.0205  0.0876  0.5007
  585TIP3    H1 1761   2.657   2.315   2.897  0.2434 -1.1798 -0.0295
  585TIP3    H2 1762   2.697   2.210   2.998  2.4484 -1.0281 -0.6718
  586TIP3   OH2 1763   6.194   3.702   3.875 -0.1444  0.4002  0.0173
  586TIP3    H1 1764   6.201   3.718   3.781  0.1205 -0.4900 -0.1251
  586TIP3    H2 1765   6.280   3.669   3.901 -0.6576 -0.8411  0.2544
  587TIP3   OH2 1766   0.503   3.653   4.383  0.2982 -0.2977 -0.1364
  587TIP3    H1 1767   0.558   3.576   4.396  2.2617  0.5301 -2.6955
  587TIP3    H2 1768   0.529   3.714   4.452  0.4332 -1.0051  0.4517
  588TIP3   OH2 1769   1.561   4.382   1.306  0.1102 -0.1537  0.3928
  588TIP3    H1 1770   1.509   4.419   1.377 -0.2779  2.1516 -0.9699
  588TIP3    H2 1771   1.628   4.448   1.289  0.7235 -1.0457 -0.8078
  589TIP3   OH2 1772   4.907   5.358   2.048 -0.1118 -0.1925 -0.1697
  589TIP3    H1 1773   4.893   5.362   2.142  0.0920  0.5700 -0.1640
  589TIP3    H2 1774   4.903   5.449   2.019  0.3733 -0.3680 -0.8162
  590TIP3   OH2 1775   2.948   3.710   4.476  0.2819  0.2567 -0.3383
  590TIP3    H1 1776   2.921   3.780   4.417  0.8291  1.7888  1.1521
  590TIP3    H2 1777   3.019   3.666   4.430  0.2638  0.9993 -1.1008
  591TIP3   OH2 1778   4.306   2.740   0.127  0.5503  0.0582  0.1004
  591TIP3    H1 1779   4.238   2.806   0.112  1.6497  0.7939 -2.1608
  591TIP3    H2 1780   4.363   2.780   0.192 -0.4510 -0.0119  1.0464
  592TIP3   OH2 1781   4.622   4.847   4.459 -0.3713 -0.4961  0.5589
  592TIP3    H1 1782   4.593   4.786   4.527 -0.3907 -1.1120  0.0115
  592TIP3    H2 1783   4.718   4.845   4.464 -0.2867 -2.0259 -0.6647
  593TIP3   OH2 1784   6.155   5.659   4.509 -0.2831 -0.2218 -0.3470
  593TIP3    H1 1785   6.161   5.753   4.527  1.6388 -0.6123  1.4003
  593TIP3    H2 1786   6.208   5.647   4.430  1.3880 -0.0930  0.7063
  594TIP3   OH2 1787   3.943   1.354   1.125  0.0661 -0.3084 -0.1624
  594TIP3    H1 1788   4.015   1.406   1.089  1.0625 -0.6896  1.2084
  594TIP3    H2 1789   3.973   1.328   1.212 -2.6673  1.4436  1.4381
  595TIP3   OH2 1790   5.732   3.377   2.303 -0.4904 -0.1434  0.0252
  595TIP3    H1 1791   5.687   3.461   2.288 -2.2994 -0.6159  2.2668
  595TIP3    H2 1792   5.725   3.362   2.397  0.4480 -2.4659 -0.2065
  596TIP3   OH2 1793   2.489   0.093   1.528 -0.8569  0.4162 -0.6369
  596TIP3    H1 1794   2.463   0.040   1.604 -1.9689 -0.3956 -1.5570
  596TIP3    H2 1795   2.564   0.046   1.491 -0.3869  0.7494 -0.1187
  597TIP3   OH2 1796   5.994   0.261   1.407  0.0443  0.2365  0.4652
  597TIP3    H1 1797   6.021   0.351   1.425  1.1584  0.1177 -0.5133
  597TIP3    H2 1798   6.022   0.244   1.317  0.9786 -1.4799  1.0263
  598TIP3   OH2 1799   3.334   2.809   4.518  0.2155  0.1671 -0.3603
  598TIP3    H1 1800   3.263   2.760   4.475 -0.0859  0.3150 -0.0285
  598TIP3    H2 1801   3.335   2.777   4.608  3.1091 -2.7301 -1.2333
  599TIP3   OH2 1802   5.078   3.440   3.903 -0.3475 -0.6570  0.2790
  599TIP3    H1 1803   5.129   3.367   3.940  2.4740  0.8848 -0.2666
  599TIP3    H2 1804   5.137   3.515   3.909 -1.7857  0.8188 -2.4294
  600TIP3   OH2 1805   4.472   4.664   3.024  0.4612 -0.1641 -0.2790
  600TIP3    H1 1806   4.466   4.630   2.935 -1.7195 -0.8524  0.0735
  600TIP3    H2 1807   4.467   4.587   3.080 -0.1299  0.3946  0.4610
  601TIP3   OH2 1808   1.686   1.890   1.866 -0.4611 -0.4981 -0.1493
  601TIP3    H1 1809   1.697   1.916   1.957  1.5900  0.4525 -0.6138
  601TIP3    H2 1810   1.607   1.837   1.866 -0.7606 -0.1575  2.0979
  602TIP3   OH2 1811   1.647   4.810   4.578  0.5218 -0.3303  0.2205
  602TIP3    H1 1812   1.572   4.795   4.521 -0.1616  1.1722  0.6554
  602TIP3    H2 1813   1.663   4.904   4.572  0.6717 -0.1891  2.1610
  603TIP3   OH2 1814   0.273   0.564   0.955  0.2608 -0.3477  0.1813
  603TIP3    H1 1815   0.258   0.657   0.941  0.1777 -0.7117 -2.7148
  603TIP3    H2 1816   0.339   0.561   1.024 -1.3411  1.7395  1.9478
  604TIP3   OH2 1817   0.332   5.599   2.190 -0.4411  0.6236 -0.7922
  604TIP3    H1 1818   0.310   5.506   2.188  1.1622  0.0403  2.3435
  604TIP3    H2 1819   0.248   5.644   2.198 -1.1248 -0.7462  0.0765
  605TIP3   OH2 1820   2.695   3.853   0.503 -0.1942  0.0902  0.0940
  605TIP3    H1 1821   2.672   3.874   0.593 -0.2863 -0.6294  0.2426
  605TIP3    H2 1822   2.626   3.893   0.450 -0.5656 -0.1422  0.3962
  606TIP3   OH2 1823   4.377   0.239   4.199 -0.2303  0.0129 -0.0569
  606TIP3    H1 1824   4.390   0.151   4.236  0.2174  0.1694  0.1627
  606TIP3    H2 1825   4.284   0.242   4.178 -0.0149 -1.0262 -1.3680
  607TIP3   OH2 1826   1.502   5.591   1.305 -0.0220  0.7034 -0.2066
  607TIP3    H1 1827   1.409   5.587   1.282 -0.3893  1.7606  1.0109
  607TIP3    H2 1828   1.541   5.644   1.236 -0.4054  0.6247 -0.4904
  608TIP3   OH2 1829   4.063   0.364   3.607 -0.0781  0.1327 -0.8875
  608TIP3    H1 1830   4.108   0.447   3.628 -0.5406  0.6098 -1.7307
  608TIP3    H2 1831   3.974   0.391   3.584  0.4924 -0.2620 -3.8987
  609TIP3   OH2 1832   5.857   4.301   4.068  0.4386  0.4432  0.0177
  609TIP3    H1 1833   5.947   4.300   4.102  1.0849 -0.2755 -1.6009
  609TIP3    H2 1834   5.820   4.217   4.096  0.4776  0.4846  0.1908
  610TIP3   OH2 1835   0.377   1.139   3.272 -0.9246  0.0872  0.4171
  610TIP3    H1 1836   0.304   1.192   3.241 -0.8032 -0.4381 -0.8279
  610TIP3    H2 1837   0.453   1.173   3.224 -0.7225 -0.7220  0.1529
  611TIP3   OH2 1838   4.061   1.591   2.790  0.1708 -0.1594  0.5982
  611TIP3    H1 1839   4.012   1.630   2.862 -1.2608 -1.0408  0.1353
  611TIP3    H2 1840   4.006   1.519   2.759  0.1997  0.8469 -2.0772
  612TIP3   OH2 1841   3.133   0.757   0.170 -0.3759 -0.1376 -0.6509
  612TIP3    H1 1842   3.058   0.723   0.219 -0.1846  1.6027  0.9686
  612TIP3    H2 1843   3.112   0.740   0.078 -1.7337 -1.5948 -0.1150
  613TIP3   OH2 1844   6.066   2.154   3.230  0.0035  0.1045  0.5099
  613TIP3    H1 1845   6.071   2.069   3.187  2.9408  0.5517 -0.2815
  613TIP3    H2 1846   5.993   2.146   3.291 -1.7333 -1.9424 -1.6053
  614TIP3   OH2 1847   0.779   0.569   4.871  0.2885  0.1294 -0.4412
  614TIP3    H1 1848   0.872   0.555   4.851 -0.0302 -0.0168 -1.9398
  614TIP3    H2 1849   0.769   0.664   4.876  0.3411  0.1770 -1.2088
  615TIP3   OH2 1850   4.183   2.677   4.580 -0.2037 -0.0778  0.3322
  615TIP3    H1 1851   4.113   2.701   4.520 -0.9601 -1.9038  0.4147
  615TIP3    H2 1852   4.263   2.686   4.528 -0.5840  0.9717 -0.0969
  616TIP3   OH2 1853   0.977   1.035   0.689  0.4011 -0.0689  0.1493
  616TIP3    H1 1854   1.052   0.989   0.726 -0.3754 -1.0753  0.5056
  616TIP3    H2 1855   0.902   1.001   0.736 -0.2368  1.4373  0.2978
  617TIP3   OH2 1856   2.282   2.400   4.591  0.2106 -0.0158 -0.3592
  617TIP3    H1 1857   2.215   2.407   4.522  1.3334  0.4360 -1.4558
  617TIP3    H2 1858   2.338   2.328   4.562  1.0823  0.6177 -0.2765
  618TIP3   OH2 1859   6.215   5.501   2.604 -0.1099 -0.3427 -0.0518
  618TIP3    H1 1860   6.226   5.538   2.516 -0.7552 -1.2624 -0.5415
  618TIP3    H2 1861   6.191   5.575   2.659 -0.7292  0.0816 -0.8670
  619TIP3   OH2 1862   6.064   0.408   2.964  0.2388 -0.0292 -0.0882
  619TIP3    H1 1863   5.976   0.433   2.939  0.0007 -0.4040  0.3640
  619TIP3    H2 1864   6.112   0.491   2.969 -0.6243  0.4088  1.7348
  620TIP3   OH2 1865   5.446   1.071   2.220  0.0209  0.6526  0.4520
  620TIP3    H1 1866   5.408   1.000   2.168 -0.6167  0.0833  1.6550
  620TIP3    H2 1867   5.535   1.081   2.185  0.1283 -0.7407  0.2456
  621TIP3   OH2 1868   2.270   4.166   1.884 -0.3805  0.7779  0.0510
  621TIP3    H1 1869   2.350   4.159   1.937  0.2995 -0.4828 -1.0761
  621TIP3    H2 1870   2.256   4.077   1.851 -0.9137  1.4718 -1.6813
  622TIP3   OH2 1871   0.025   5.570   1.722 -0.3862 -0.3892  0.3150
  622TIP3    H1 1872   0.118   5.572   1.743 -0.2852  1.0762 -0.1616
  622TIP3    H2 1873   0.016   5.499   1.659  0.5011 -0.2211 -0.0145
  623TIP3   OH2 1874   6.075   4.101   2.210  0.2981 -0.1528 -0.2005
  623TIP3    H1 1875   6.045   4.132   2.295 -0.3363  0.6008 -0.6851
  623TIP3    H2 1876   6.135   4.169   2.180 -1.5169  0.9657 -1.5152
  624TIP3   OH2 1877   5.559   5.520   1.251 -0.1749  0.3082  0.0399
  624TIP3    H1 1878   5.566   5.445   1.192 -0.4156  1.5170 -1.6068
  624TIP3    H2 1879   5.494   5.494   1.316  0.7501 -1.4018  0.3315
  625TIP3   OH2 1880   3.061   4.086   3.347  0.5836 -0.1998 -0.1231
  625TIP3    H1 1881   2.970   4.090   3.316  0.4080  0.4107  0.4409
  625TIP3    H2 1882   3.101   4.166   3.313  0.3290  0.5849  1.3695
  626TIP3   OH2 1883   6.077   0.619   0.463 -0.7160  0.2600 -0.0743
  626TIP3    H1 1884   6.147   0.600   0.400  0.4310  1.1451  0.8679
  626TIP3    H2 1885   6.018   0.544   0.458  0.9107 -1.0744 -0.0816
  627TIP3   OH2 1886   5.809   2.665   2.654  0.3690 -0.2036 -0.7257
  627TIP3    H1 1887   5.814   2.663   2.558  1.4673 -5.1166 -0.8514
  627TIP3    H2 1888   5.888   2.710   2.681  1.2570 -0.7927 -2.2080
  628TIP3   OH2 1889   5.469   4.313   1.788 -0.3557  0.3642 -0.0606
  628TIP3    H1 1890   5.392   4.262   1.761  1.0217 -2.3897  0.7940
  628TIP3    H2 1891   5.481   4.291   1.881  1.0474  1.2688  0.0032
  629TIP3   OH2 1892   4.741   4.832   3.123  0.4536  0.1600 -0.2246
  629TIP3    H1 1893   4.745   4.924   3.099  1.3389  0.3480  0.6038
  629TIP3    H2 1894   4.820   4.816   3.174 -1.9907  0.2318  4.0767
  630TIP3   OH2 1895   2.935   0.833   1.080  0.0207 -0.0544 -0.0489
  630TIP3    H1 1896   2.994   0.758   1.073 -0.6750 -0.7741  1.2804
  630TIP3    H2 1897   2.925   0.845   1.175 -1.1643  0.6906 -0.2623
  631TIP3   OH2 1898   5.375   3.107   2.651 -0.1811  0.3800 -0.0508
  631TIP3    H1 1899   5.301   3.127   2.708 -0.0678  0.2275  0.1490
  631TIP3    H2 1900   5.418   3.192   2.636  0.0832  0.3451  0.4955
  632TIP3   OH2 1901   1.424   5.388   0.485 -0.0855  0.4404  0.2209
  632TIP3    H1 1902   1.496   5.396   0.548 -1.3918  0.1995  1.8020
  632TIP3    H2 1903   1.396   5.478   0.469  0.6638  0.5528 -0.5665
  633TIP3   OH2 1904   3.605   0.338   0.422  0.1506 -0.4500 -0.0005
  633TIP3    H1 1905   3.550   0.347   0.344  0.3449  1.1094 -0.0013
  633TIP3    H2 1906   3.576   0.408   0.480  1.2609 -0.4085  0.5423
  634TIP3   OH2 1907   5.514   5.724   5.080 -0.5121 -0.1248  0.2217
  634TIP3    H1 1908   5.541   5.656   5.019  0.4246  0.0957  0.3730
  634TIP3    H2 1909   5.554   5.698   5.163 -2.1819 -0.6870  0.8816
  635TIP3   OH2 1910   4.442   1.712   0.101  0.0323  0.2597 -0.6566
  635TIP3    H1 1911   4.509   1.754   0.155 -0.9049  1.9370 -0.7152
  635TIP3    H2 1912   4.368   1.698   0.161 -0.2245  0.1409 -0.9967
  636TIP3   OH2 1913   4.782   1.369   5.158  0.3068 -0.6878  0.3250
  636TIP3    H1 1914   4.749   1.282   5.133  1.1713 -1.1149  0.6102
  636TIP3    H2 1915   4.835   1.352   5.235 -2.1217  0.5735  2.4015
  637TIP3   OH2 1916   0.548   3.505   2.746  0.4302 -0.1182 -0.2117
  637TIP3    H1 1917   0.566   3.462   2.662 -0.6924 -2.0035  0.4667
  637TIP3    H2 1918   0.614   3.468   2.806  1.1963  1.1820 -0.2115
  638TIP3   OH2 1919   3.359   3.197   1.727  0.2554 -0.0441 -0.2078
  638TIP3    H1 1920   3.371   3.219   1.820  0.4047  3.8642 -1.0013
  638TIP3    H2 1921   3.264   3.202   1.714  0.2000 -0.9927 -0.2090
  639TIP3   OH2 1922   6.280   2.993   0.650  0.0636  0.1510  0.5407
  639TIP3    H1 1923   6.200   2.967   0.604  1.4475 -0.8277 -1.4252
  639TIP3    H2 1924   6.301   3.079   0.614  1.6569 -1.0082 -1.5094
  640TIP3   OH2 1925   3.209   4.468   4.875 -0.1797 -0.3763  0.0550
  640TIP3    H1 1926   3.236   4.529   4.807 -1.0159  3.1713  2.5883
  640TIP3    H2 1927   3.289   4.449   4.924 -0.0187 -0.9229 -0.4054
  641TIP3   OH2 1928   0.800   0.718   3.184  0.1351  0.3318 -0.1881
  641TIP3    H1 1929   0.790   0.664   3.106 -0.8122  0.8039 -0.4134
  641TIP3    H2 1930   0.765   0.803   3.159 -0.7039  0.3364  0.9232
  642TIP3   OH2 1931   3.278   4.007   4.525 -0.3156  0.4146  0.0860
  642TIP3    H1 1932   3.267   3.950   4.449  0.6242 -0.0713  0.3018
  642TIP3    H2 1933   3.243   3.957   4.598  0.3778  0.1629  0.2519
  643TIP3   OH2 1934   4.481   3.544   4.705 -0.5511  0.3309 -0.4154
  643TIP3    H1 1935   4.455   3.556   4.613  1.3684  0.7773 -0.9400
  643TIP3    H2 1936   4.463   3.628   4.746  0.5327  0.8147 -0.9024
  644TIP3   OH2 1937   4.827   3.572   3.558 -0.8348 -0.3589 -0.9272
  644TIP3    H1 1938   4.829   3.499   3.620  1.5304 -0.2005 -0.7131
  644TIP3    H2 1939   4.791   3.534   3.478 -0.0497 -1.6934 -0.6893
  645TIP3   OH2 1940   5.265   5.237   1.014 -0.0007 -0.0671  0.2382
  645TIP3    H1 1941   5.207   5.282   1.075 -2.0379 -0.6819 -1.1303
  645TIP3    H2 1942   5.274   5.149   1.050 -1.5608 -0.5641 -0.5310
  646TIP3   OH2 1943   4.448   0.091   3.206  0.4504  0.2566  0.0414
  646TIP3    H1 1944   4.517   0.062   3.146  1.4805  3.5485 -0.5663
  646TIP3    H2 1945   4.491   0.099   3.291 -0.0680 -0.7949  0.4249
  647TIP3   OH2 1946   2.425   3.142   0.779 -0.4426  0.5979  0.4590
  647TIP3    H1 1947   2.437   3.209   0.846  0.0493  0.4474  0.5250
  647TIP3    H2 1948   2.493   3.077   0.798 -1.1924 -0.1362  0.6620
  648TIP3   OH2 1949   1.015   5.947   0.618  0.1792  0.1082  0.0241
  648TIP3    H1 1950   1.051   5.861   0.594  0.4507 -0.1397  1.2077
  648TIP3    H2 1951   1.078   6.010   0.583 -0.9800 -0.0213 -2.5296
  649TIP3   OH2 1952   1.392   5.897   2.804 -0.5943  0.2739  0.5483
  649TIP3    H1 1953   1.436   5.981   2.790 -0.8228  0.5386  1.3780
  649TIP3    H2 1954   1.378   5.892   2.899 -0.8161 -0.5845  0.4819
  650TIP3   OH2 1955   3.354   4.732   0.445 -0.5580 -0.0435  0.0582
  650TIP3    H1 1956   3.304   4.713   0.525 -0.2135 -1.6152 -0.0676
  650TIP3    H2 1957   3.444   4.741   0.474 -0.6769  1.3048  0.0785
  651TIP3   OH2 1958   0.529   4.077   3.608 -0.2360 -0.3138  0.2140
  651TIP3    H1 1959   0.537   4.077   3.512  1.0508 -2.5646  0.2518
  651TIP3    H2 1960   0.435   4.082   3.624 -0.4781  0.1393 -1.1466
  652TIP3   OH2 1961   5.950   4.100   3.732 -0.6484 -0.1768 -0.0159
  652TIP3    H1 1962   5.977   4.013   3.704 -0.7233  0.1340 -1.0969
  652TIP3    H2 1963   6.023   4.133   3.783  0.0003 -0.3084 -0.8383
  653TIP3   OH2 1964   3.808   0.048   0.965 -0.3401  0.5863  0.7274
  653TIP3    H1 1965   3.819  -0.026   0.906  0.0509  0.9969  0.2811
  653TIP3    H2 1966   3.881   0.042   1.027 -0.3730  0.5379  0.7617
  654TIP3   OH2 1967   4.845   1.295   3.533 -0.1601  0.2319  0.2806
  654TIP3    H1 1968   4.862   1.261   3.621  0.8676 -0.3460 -0.1152
  654TIP3    H2 1969   4.931   1.292   3.490 -0.7138  0.1726 -0.8501
  655TIP3   OH2 1970   3.769   5.083   3.494 -0.2643 -0.0810  0.2216
  655TIP3    H1 1971   3.856   5.075   3.455  0.3782 -3.2759  2.0049
  655TIP3    H2 1972   3.709   5.064   3.423  0.7071 -1.7876 -0.2028
  656TIP3   OH2 1973   4.150   1.281   0.403  0.1259  0.5114  0.0603
  656TIP3    H1 1974   4.204   1.232   0.465 -0.0069 -0.4441 -0.5712
  656TIP3    H2 1975   4.121   1.358   0.452  2.5141  1.3775  0.2704
  657TIP3   OH2 1976   5.594   1.484   3.519  0.6796 -0.1334  0.7539
  657TIP3    H1 1977   5.567   1.524   3.436 -0.3958 -1.6686  0.3013
  657TIP3    H2 1978   5.517   1.436   3.549  1.8821 -1.9731  1.1440
  658TIP3   OH2 1979   5.611   0.168   1.157  0.6819 -0.4190 -0.1377
  658TIP3    H1 1980   5.542   0.232   1.141  2.0460  0.5443 -2.9076
  658TIP3    H2 1981   5.580   0.116   1.231 -1.0711  2.5872  1.4213
  659TIP3   OH2 1982   6.088   3.258   0.587 -0.3255 -0.4708  0.3946
  659TIP3    H1 1983   6.181   3.273   0.569 -0.6114 -1.1001 -1.9794
  659TIP3    H2 1984   6.048   3.345   0.586  0.0371 -0.3056  0.0498
  660TIP3   OH2 1985   4.182   2.810   0.750 -0.9060  0.9684  0.3267
  660TIP3    H1 1986   4.172   2.772   0.837  0.2873  0.1159  0.1100
  660TIP3    H2 1987   4.094   2.837   0.726 -0.8687  4.5385  3.2391
  661TIP3   OH2 1988   3.173   5.258   2.345 -0.2885  0.0255 -0.6359
  661TIP3    H1 1989   3.241   5.325   2.336 -1.3017  1.1868  0.0519
  661TIP3    H2 1990   3.115   5.292   2.413 -1.0867 -1.3497 -0.5974
  662TIP3   OH2 1991   3.748   3.439   4.661 -0.0404  0.8560  0.4997
  662TIP3    H1 1992   3.784   3.436   4.750  0.2710  1.6051  0.4019
  662TIP3    H2 1993   3.819   3.474   4.607 -0.2585  0.4928 -0.0333
  663TIP3   OH2 1994   0.453   3.558   3.400 -0.0271  0.3920  0.6827
  663TIP3    H1 1995   0.460   3.589   3.309 -0.9504 -1.5939 -0.1400
  663TIP3    H2 1996   0.538   3.520   3.419 -0.4272 -0.9960 -0.1304
  664TIP3   OH2 1997   3.949   3.616   0.259 -0.7347  0.5075  0.8176
  664TIP3    H1 1998   3.981   3.635   0.171 -1.7268 -0.6243  0.1869
  664TIP3    H2 1999   3.864   3.574   0.245 -1.0067  0.5142  2.3285
  665TIP3   OH2 2000   0.287   3.557   2.687  0.3225 -0.4642 -0.3404
  665TIP3    H1 2001   0.249   3.634   2.644  0.6854  0.1944  0.5028
  665TIP3    H2 2002   0.381   3.574   2.690  0.1739  0.2365  2.0817
  666TIP3   OH2 2003   0.125   1.395   2.859 -0.2682 -0.6228  0.2211
  666TIP3    H1 2004   0.175   1.343   2.922  0.3965 -0.0065  0.2278
  666TIP3    H2 2005   0.144   1.355   2.774  1.3634  0.3876  0.0501
  667TIP3   OH2 2006   1.521   0.562   3.113 -0.3358 -0.2638  0.2463
  667TIP3    H1 2007   1.589   0.497   3.093 -0.3234 -0.1564 -0.0690
  667TIP3    H2 2008   1.506   0.606   3.030 -2.1201 -1.5342 -0.1666
  668TIP3   OH2 2009   1.064   0.565   4.868  0.0220 -0.0657  0.1868
  668TIP3    H1 2010   1.136   0.569   4.805 -0.5965 -0.5776 -0.5717
  668TIP3    H2 2011   1.066   0.650   4.913  0.8672  0.0597 -0.0692
  669TIP3   OH2 2012   0.280   0.201   0.309 -0.2675 -0.3329  0.1272
  669TIP3    H1 2013   0.304   0.135   0.374 -0.0576 -0.4835 -0.1021
  669TIP3    H2 2014   0.356   0.258   0.303  0.0802 -0.8693 -0.6736
  670TIP3   OH2 2015   4.392   4.521   0.781  0.0081 -0.1057  0.2510
  670TIP3    H1 2016   4.373   4.610   0.749 -1.0431 -0.6464 -0.6893
  670TIP3    H2 2017   4.485   4.524   0.806  0.5825  0.6800 -1.7960
  671TIP3   OH2 2018   2.218   0.170   3.562  0.3561  0.9326 -0.3671
  671TIP3    H1 2019   2.150   0.102   3.561 -1.3224  2.4555  1.6572
  671TIP3    H2 2020   2.298   0.123   3.585 -0.2955 -0.6617 -1.1592
  672TIP3   OH2 2021   4.428   5.938   2.259 -0.0218  0.1469  0.2073
  672TIP3    H1 2022   4.439   6.027   2.292 -1.0305  1.3267 -2.3288
  672TIP3    H2 2023   4.361   5.899   2.314  1.9290  0.0990  2.7326
  673TIP3   OH2 2024   3.076   5.499   2.554  0.8328 -0.0979 -0.2911
  673TIP3    H1 2025   3.105   5.500   2.645 -2.1266  0.4727  0.7383
  673TIP3    H2 2026   3.023   5.420   2.547  1.6264 -0.5432 -1.7852
  674TIP3   OH2 2027   2.887   0.144   2.783 -0.3032  0.5577 -0.2451
  674TIP3    H1 2028   2.968   0.128   2.831 -0.5198  1.2590  0.3894
  674TIP3    H2 2029   2.819   0.106   2.838 -0.4511  0.4397 -0.5112
  675TIP3   OH2 2030   6.317   2.501   0.244 -0.4940  0.8537 -0.6551
  675TIP3    H1 2031   6.367   2.420   0.237 -0.1871  0.9179  0.5720
  675TIP3    H2 2032   6.309   2.532   0.154  1.4164  0.6835 -0.9162
  676TIP3   OH2 2033   5.624   1.580   1.434  0.6345  0.1231 -0.4333
  676TIP3    H1 2034   5.537   1.617   1.453 -0.0950 -0.3736 -2.5450
  676TIP3    H2 2035   5.659   1.557   1.519 -1.0784  0.8471  0.5225
  677TIP3   OH2 2036   0.830   4.904   4.690  0.3315  0.0206  0.2573
  677TIP3    H1 2037   0.872   4.821   4.665 -0.6438 -0.3679 -0.1490
  677TIP3    H2 2038   0.791   4.937   4.609 -0.7701 -0.0100  0.7509
  678TIP3   OH2 2039   1.144   6.002   4.417  0.5610  0.2473 -0.3244
  678TIP3    H1 2040   1.168   5.935   4.481  0.2297  1.8283  1.5284
  678TIP3    H2 2041   1.207   5.991   4.345  0.0766 -2.4583 -0.4284
  679TIP3   OH2 2042   3.503   2.816   4.918 -0.1235  0.5878 -0.1969
  679TIP3    H1 2043   3.577   2.833   4.976  0.3079 -0.6570 -0.3634
  679TIP3    H2 2044   3.495   2.895   4.866  1.0234  0.7750 -0.1025
  680TIP3   OH2 2045   4.664   4.006   2.520  0.6471  0.5266 -0.5881
  680TIP3    H1 2046   4.736   3.956   2.558  0.8240  1.8374  0.9117
  680TIP3    H2 2047   4.657   3.974   2.430 -2.0134 -5.2851  1.2000
  681TIP3   OH2 2048   5.993   2.911   1.398 -0.1088 -0.0486  0.0012
  681TIP3    H1 2049   5.928   2.841   1.399 -0.2410  0.0731 -0.0120
  681TIP3    H2 2050   5.948   2.986   1.438 -0.0011  0.0573 -0.0755
  682TIP3   OH2 2051   0.024   0.339   3.607  0.2856 -0.2804  0.4575
  682TIP3    H1 2052  -0.030   0.274   3.652 -2.9219  1.0906 -1.0826
  682TIP3    H2 2053   0.043   0.300   3.522  1.2284 -0.4778  0.7439
  683TIP3   OH2 2054   0.071   1.791   3.228 -0.1561 -0.3061  0.0283
  683TIP3    H1 2055   0.002   1.796   3.295  0.0699 -0.6424  0.2907
  683TIP3    H2 2056   0.145   1.752   3.274 -0.4889 -2.0172 -0.7943
  684TIP3   OH2 2057   0.977   5.334   1.329  0.0094  0.3601 -0.1247
  684TIP3    H1 2058   0.902   5.275   1.325 -0.9330  1.5726 -0.6344
  684TIP3    H2 2059   0.966   5.392   1.254 -1.1439  3.6184  2.3316
  685TIP3   OH2 2060   0.538   5.163   0.879  0.4406 -0.4802 -0.1220
  685TIP3    H1 2061   0.550   5.229   0.810  0.4022 -0.3367  0.0088
  685TIP3    H2 2062   0.543   5.080   0.833  0.7645 -0.3931 -0.2512
  686TIP3   OH2 2063   5.876   2.477   1.119 -0.1971  0.6292  0.0520
  686TIP3    H1 2064   5.946   2.474   1.185  0.8433 -1.6125 -1.0615
  686TIP3    H2 2065   5.807   2.422   1.156  0.4579 -0.7739 -0.7380
  687TIP3   OH2 2066   0.854   3.400   3.626  0.6542 -0.1159  0.4247
  687TIP3    H1 2067   0.949   3.395   3.612  1.0441  3.5529  0.6504
  687TIP3    H2 2068   0.817   3.405   3.538  0.5516 -1.9285  0.3219
  688TIP3   OH2 2069   0.926   2.577   4.311 -0.7278 -0.5919 -0.4385
  688TIP3    H1 2070   0.833   2.574   4.291 -0.4987  2.6216 -2.8429
  688TIP3    H2 2071   0.950   2.669   4.298  2.3547 -0.8055  2.3642
  689TIP3   OH2 2072   2.438   3.479   0.367 -0.7461  0.9171 -0.0581
  689TIP3    H1 2073   2.464   3.568   0.391 -1.1847  1.2363 -0.7373
  689TIP3    H2 2074   2.375   3.453   0.434  1.8299 -0.1915  2.1189
  690TIP3   OH2 2075   6.048   3.572   1.957 -0.0186  0.7009  0.1296
  690TIP3    H1 2076   6.023   3.516   2.030  0.2344  1.5087  0.8511
  690TIP3    H2 2077   6.104   3.517   1.903  0.3620  0.3030  0.9146
  691TIP3   OH2 2078   2.879   5.058   0.470 -0.4074 -0.2148 -0.2211
  691TIP3    H1 2079   2.857   4.990   0.534  1.1354 -0.6344 -0.0980
  691TIP3    H2 2080   2.930   5.122   0.520 -1.7528  1.0190 -0.3602
  692TIP3   OH2 2081   2.341   4.070   4.070 -0.1414 -0.2837  0.4890
  692TIP3    H1 2082   2.381   4.156   4.080 -0.5687  0.0013 -0.2431
  692TIP3    H2 2083   2.414   4.009   4.083 -0.1715  0.0893  2.9294
  693TIP3   OH2 2084   2.171   3.277   2.636  0.0033  0.0952 -0.0570
  693TIP3    H1 2085   2.190   3.334   2.561  0.8356  0.2560  0.2649
  693TIP3    H2 2086   2.077   3.260   2.630 -0.0370  0.5398 -0.8330
  694TIP3   OH2 2087   1.079   2.758   3.723 -0.3332 -0.0318 -0.2226
  694TIP3    H1 2088   1.034   2.709   3.792 -2.3208  0.1352 -1.3487
  694TIP3    H2 2089   1.061   2.709   3.643 -1.6375  2.0315 -1.2480
  695TIP3   OH2 2090   3.417   3.216   2.263  0.1114 -0.2970  0.2945
  695TIP3    H1 2091   3.435   3.295   2.314 -0.7470 -0.3659  0.7218
  695TIP3    H2 2092   3.404   3.148   2.328 -2.0393 -0.1705  0.0855
  696TIP3   OH2 2093   1.666   0.201   4.312  0.6192 -0.3483  0.2342
  696TIP3    H1 2094   1.675   0.109   4.336 -2.9022 -0.8048  0.3379
  696TIP3    H2 2095   1.594   0.232   4.367  2.0081  2.6570  0.5390
  697TIP3   OH2 2096   5.816   3.323   3.117  0.3219 -0.2292  0.2152
  697TIP3    H1 2097   5.738   3.299   3.068 -0.6608 -0.0106  1.5936
  697TIP3    H2 2098   5.836   3.412   3.089 -0.8812  0.3015  0.9751
  698TIP3   OH2 2099   3.904   4.138   1.325  0.2224 -0.1130  0.0494
  698TIP3    H1 2100   3.817   4.131   1.365  0.5963  1.9835  1.3608
  698TIP3    H2 2101   3.887   4.132   1.231 -1.1967 -0.8778  0.3166
  699TIP3   OH2 2102   6.059   5.740   3.361 -0.1596  0.2094  0.0075
  699TIP3    H1 2103   5.991   5.684   3.323  0.3798  0.5787 -1.5657
  699TIP3    H2 2104   6.131   5.679   3.382 -0.4566  0.0058  0.4538
  700TIP3   OH2 2105   5.186   4.230   4.030 -0.5636 -0.3655 -0.1219
  700TIP3    H1 2106   5.144   4.294   4.087  0.4222  1.6337 -1.5246
  700TIP3    H2 2107   5.258   4.194   4.082 -0.4932  0.4542  0.3594
  701TIP3   OH2 2108   3.282   1.780   2.843 -0.2537  0.2660  0.1197
  701TIP3    H1 2109   3.233   1.788   2.761  1.0079  2.1642 -0.5078
  701TIP3    H2 2110   3.245   1.848   2.900 -0.7131 -0.6460  0.9400
  702TIP3   OH2 2111   6.098   0.735   4.829  0.5128  0.1510  0.5719
  702TIP3    H1 2112   6.112   0.659   4.772  0.3618  0.5384  0.0088
  702TIP3    H2 2113   6.150   0.805   4.789 -0.5206  0.7482  0.2409
  703TIP3   OH2 2114   0.143   5.456   4.715 -1.0541 -0.4453 -0.5690
  703TIP3    H1 2115   0.204   5.461   4.789 -1.3361  1.0166 -0.4070
  703TIP3    H2 2116   0.056   5.451   4.756 -1.1252 -1.4461 -0.8085
  704TIP3   OH2 2117   2.353   3.629   3.180  0.7042  0.4563  0.0313
  704TIP3    H1 2118   2.316   3.541   3.186 -0.0957  0.8074  0.5046
  704TIP3    H2 2119   2.355   3.649   3.087  0.2095  0.2123 -0.0326
  705TIP3   OH2 2120   3.845   0.729   0.396 -0.2853 -0.3218 -0.1215
  705TIP3    H1 2121   3.938   0.739   0.418 -0.1534  0.4313 -0.9480
  705TIP3    H2 2122   3.800   0.729   0.481  0.4297 -0.2330  0.2689
  706TIP3   OH2 2123   3.150   0.883   3.610  0.0355  1.0537  0.3119
  706TIP3    H1 2124   3.219   0.859   3.548 -0.1295  1.8112 -0.1768
  706TIP3    H2 2125   3.197   0.904   3.691  0.3842  1.5479 -0.0128
  707TIP3   OH2 2126   4.499   0.154   0.290  0.0315  0.0004  0.3302
  707TIP3    H1 2127   4.414   0.119   0.263 -0.1524 -0.0199  0.9404
  707TIP3    H2 2128   4.479   0.235   0.335  0.4586  0.8849 -1.0077
  708TIP3   OH2 2129   1.769   0.861   1.204  0.4980 -0.3427  0.1726
  708TIP3    H1 2130   1.791   0.805   1.278  2.3707 -0.0351 -0.1001
  708TIP3    H2 2131   1.753   0.947   1.243  0.0647 -0.4999  0.3478
  709TIP3   OH2 2132   2.424   0.128   4.924 -0.6922  0.4039  0.0721
  709TIP3    H1 2133   2.394   0.120   4.833 -1.2871 -1.8146  0.3925
  709TIP3    H2 2134   2.351   0.096   4.976  0.9212 -1.9455  1.0750
  710TIP3   OH2 2135   0.702   2.113   0.113 -0.8415 -0.4487 -0.3648
  710TIP3    H1 2136   0.720   2.203   0.138 -1.6976 -0.1046 -0.9195
  710TIP3    H2 2137   0.677   2.069   0.195 -3.5555  0.6402 -0.5007
  711TIP3   OH2 2138   0.615   0.908   2.019  0.3244 -0.6616  0.0258
  711TIP3    H1 2139   0.692   0.964   2.034  0.0532 -0.3500  0.2644
  711TIP3    H2 2140   0.643   0.848   1.950  0.4701  0.0629 -0.5560
  712TIP3   OH2 2141   3.371   1.042   2.423  0.2721  0.1710  0.8313
  712TIP3    H1 2142   3.337   0.960   2.457  0.5459  1.0002  3.3060
  712TIP3    H2 2143   3.421   1.017   2.345  1.8740 -2.2713  2.5034
  713TIP3   OH2 2144   3.079   4.809   0.064  0.4108 -0.0293  0.6777
  713TIP3    H1 2145   3.034   4.888   0.092 -1.6344 -0.7945 -0.2490
  713TIP3    H2 2146   3.140   4.838  -0.004  0.5447  0.8766  1.1710
  714TIP3   OH2 2147   6.231   1.119   0.414  0.0161  0.2543 -0.0379
  714TIP3    H1 2148   6.155   1.147   0.464  1.4135  1.0626  1.7909
  714TIP3    H2 2149   6.265   1.044   0.463 -0.8321 -1.5520 -2.0934
  715TIP3   OH2 2150   2.771   5.256   0.300  0.2996 -0.4282 -0.1189
  715TIP3    H1 2151   2.832   5.197   0.345 -0.3745  0.5966  2.3299
  715TIP3    H2 2152   2.796   5.343   0.331  0.4049  0.4919 -2.5834
  716TIP3   OH2 2153   1.524   5.230   1.141  0.1587 -0.0693  0.0272
  716TIP3    H1 2154   1.522   5.207   1.234  1.7385  3.8602  1.2275
  716TIP3    H2 2155   1.444   5.280   1.128 -0.3772 -1.1380 -0.9840
  717TIP3   OH2 2156   2.252   1.349   5.175 -0.1887 -0.1595  0.0749
  717TIP3    H1 2157   2.333   1.372   5.129  0.0206  0.2189  0.6255
  717TIP3    H2 2158   2.246   1.412   5.246 -1.0666 -0.0758 -0.0638
  718TIP3   OH2 2159   2.568   1.878   2.798 -0.7225  0.2761  0.0576
  718TIP3    H1 2160   2.479   1.841   2.798 -1.0957  1.1490 -0.1956
  718TIP3    H2 2161   2.569   1.939   2.725 -0.1090  0.7409  0.4427
  719TIP3   OH2 2162   0.652   5.240   1.409  0.1630 -0.0854 -0.0983
  719TIP3    H1 2163   0.670   5.153   1.446  0.2121  0.3576  0.9342
  719TIP3    H2 2164   0.594   5.222   1.335  1.1307 -1.1088 -0.6440
  720TIP3   OH2 2165   6.031   5.180   3.897  0.0585  0.7501  0.2356
  720TIP3    H1 2166   6.124   5.172   3.877  0.2518 -2.0186  1.6434
  720TIP3    H2 2167   5.987   5.164   3.814  0.8581 -1.2523  0.1432
  721TIP3   OH2 2168   2.452   5.676   1.784  0.4387 -0.5920  0.3607
  721TIP3    H1 2169   2.357   5.680   1.776  0.2618 -0.5794  2.1903
  721TIP3    H2 2170   2.483   5.752   1.735 -0.4879 -0.4866 -0.0902
  722TIP3   OH2 2171   0.668   3.415   4.402  0.1979 -0.3658 -0.3320
  722TIP3    H1 2172   0.708   3.349   4.458 -0.5061 -0.2672  0.3092
  722TIP3    H2 2173   0.684   3.384   4.313 -0.6934 -1.7551 -0.0399
  723TIP3   OH2 2174   1.813   0.532   3.637  0.5128 -0.9798  0.0787
  723TIP3    H1 2175   1.849   0.589   3.569  1.9604 -1.7759  0.1482
  723TIP3    H2 2176   1.731   0.499   3.598 -0.1012  0.7070 -0.1495
  724TIP3   OH2 2177   5.772   3.125   3.347 -0.4224 -0.3552  0.2310
  724TIP3    H1 2178   5.786   3.162   3.259  2.1389  0.2947  0.8144
  724TIP3    H2 2179   5.725   3.193   3.394  1.1847  0.7924  0.2750
  725TIP3   OH2 2180   0.492   0.347   4.183  0.5301  0.5213 -0.2237
  725TIP3    H1 2181   0.438   0.282   4.228 -0.6550  2.0327  0.6488
  725TIP3    H2 2182   0.582   0.325   4.209  0.1123 -0.3769  0.5374
  726TIP3   OH2 2183   1.896   5.052   2.925  0.1050  0.2925  0.1056
  726TIP3    H1 2184   1.954   5.123   2.899  2.2254 -1.4165 -0.1252
  726TIP3    H2 2185   1.955   4.985   2.960 -1.6202 -1.9508 -1.0569
  727TIP3   OH2 2186   6.193   4.932   5.060 -0.6214  0.1441 -0.1633
  727TIP3    H1 2187   6.117   4.931   5.117  0.0658  2.9474  0.9838
  727TIP3    H2 2188   6.158   4.948   4.972 -1.4384 -0.3371  0.0690
  728TIP3   OH2 2189   0.980   0.417   1.534 -0.4572 -0.1460  0.0500
  728TIP3    H1 2190   0.997   0.451   1.622 -1.8116 -0.6433  0.5275
  728TIP3    H2 2191   0.979   0.322   1.545  1.7237 -0.3398 -0.9819
  729TIP3   OH2 2192   6.235   0.447   5.143 -0.4520 -0.1629 -0.6189
  729TIP3    H1 2193   6.238   0.513   5.213 -1.4580  0.5821 -1.2516
  729TIP3    H2 2194   6.271   0.368   5.183 -1.0577  0.2294  0.7599
  730TIP3   OH2 2195   4.375   5.033   0.449 -0.3494 -0.0048  0.0725
  730TIP3    H1 2196   4.424   4.999   0.525 -1.6170  0.1456  0.9872
  730TIP3    H2 2197   4.338   5.115   0.481  0.0053  0.6203 -1.0867
  731TIP3   OH2 2198   1.516   2.116   1.278 -0.3722 -0.0639  0.5169
  731TIP3    H1 2199   1.461   2.173   1.224 -0.5064 -0.3725  0.3243
  731TIP3    H2 2200   1.454   2.073   1.338 -0.1656  0.6733  1.2894
  732TIP3   OH2 2201   4.699   2.121   1.838 -0.3777 -0.4590 -0.5576
  732TIP3    H1 2202   4.646   2.083   1.769 -0.1975  1.5492 -1.9130
  732TIP3    H2 2203   4.767   2.171   1.791 -0.8405  1.8001  0.9960
  733TIP3   OH2 2204   5.326   5.474   2.254  0.1998 -0.2023  0.0637
  733TIP3    H1 2205   5.391   5.459   2.186  0.4308 -1.8310  0.6091
  733TIP3    H2 2206   5.242   5.462   2.210  0.2905  0.4929 -0.3144
  734TIP3   OH2 2207   5.619   5.791   1.297 -0.2282  0.1902  0.0266
  734TIP3    H1 2208   5.569   5.802   1.378 -1.5909 -0.2987 -0.7098
  734TIP3    H2 2209   5.606   5.699   1.274 -0.2964  0.4521 -1.0194
  735TIP3   OH2 2210   2.193   0.858   1.562 -0.0177  0.1344 -0.1309
  735TIP3    H1 2211   2.110   0.831   1.601  0.0166 -0.3979 -0.4224
  735TIP3    H2 2212   2.171   0.884   1.473  0.2073 -0.5382 -0.3900
  736TIP3   OH2 2213   1.921   0.137   2.155  0.2375  0.1878  0.1070
  736TIP3    H1 2214   1.851   0.162   2.095  0.5344  0.3496 -0.1762
  736TIP3    H2 2215   2.000   0.175   2.117  0.2719  1.2721  1.1871
  737TIP3   OH2 2216   3.026   3.573   0.387 -0.2142  0.7081 -0.2161
  737TIP3    H1 2217   2.940   3.588   0.425 -0.2239 -2.5853  1.4671
  737TIP3    H2 2218   3.087   3.596   0.457 -0.0143 -1.0117  0.2349
  738TIP3   OH2 2219   4.742   0.232   3.573 -0.5540 -0.2192  0.1426
  738TIP3    H1 2220   4.657   0.201   3.541  0.6939 -2.3106 -1.3987
  738TIP3    H2 2221   4.770   0.164   3.634  0.4665 -0.1120 -0.1952
  739TIP3   OH2 2222   0.649   2.661   0.783  0.3164 -0.3167 -0.6813
  739TIP3    H1 2223   0.614   2.750   0.793  0.0464 -0.4493 -0.4537
  739TIP3    H2 2224   0.723   2.672   0.722  0.7932  0.1901 -0.0330
  740TIP3   OH2 2225   0.184   1.125   0.558  0.3253  0.5279  0.0079
  740TIP3    H1 2226   0.126   1.053   0.581  0.5587  0.5863  0.8213
  740TIP3    H2 2227   0.224   1.099   0.475 -0.2471  0.1216 -0.1426
  741TIP3   OH2 2228   3.637   2.818   3.751  0.1473  0.1085  0.0771
  741TIP3    H1 2229   3.697   2.788   3.819  0.6143 -2.0486 -1.1890
  741TIP3    H2 2230   3.693   2.868   3.691 -0.1108  1.3216  0.8084
  742TIP3   OH2 2231   1.696   4.125   1.012 -0.2669  0.1177  0.2574
  742TIP3    H1 2232   1.698   4.089   1.101  0.1030 -0.9571 -0.1619
  742TIP3    H2 2233   1.754   4.067   0.962  0.9681  1.7721 -0.3059
  743TIP3   OH2 2234   4.162   0.788   2.286  0.1936  0.7131 -0.0024
  743TIP3    H1 2235   4.182   0.696   2.265 -0.4084  0.1757  1.6057
  743TIP3    H2 2236   4.247   0.830   2.296  0.4797  0.1982 -0.2195
  744TIP3   OH2 2237   2.788   3.350   3.165 -0.1013  0.5671  0.2054
  744TIP3    H1 2238   2.801   3.346   3.070  1.0277  2.2386  0.2584
  744TIP3    H2 2239   2.836   3.274   3.198 -1.0039 -0.3850 -0.5692
  745TIP3   OH2 2240   1.286   1.578   0.810 -0.4446 -0.4571  0.4422
  745TIP3    H1 2241   1.294   1.657   0.863 -1.1879 -0.6067  0.7902
  745TIP3    H2 2242   1.275   1.609   0.721  1.7543 -0.2105  0.2035
  746TIP3   OH2 2243   5.393   0.030   2.433 -0.7950  0.2698 -0.0357
  746TIP3    H1 2244   5.307  -0.006   2.457 -1.5451  1.2579 -1.0749
  746TIP3    H2 2245   5.387   0.123   2.457 -0.5627  0.6644 -1.4301
  747TIP3   OH2 2246   2.604   1.612   2.163 -0.3648 -0.0113 -0.6141
  747TIP3    H1 2247   2.533   1.630   2.224 -1.1319 -1.9541 -0.8404
  747TIP3    H2 2248   2.585   1.665   2.087 -1.4539 -0.3127 -0.5657
  748TIP3   OH2 2249   4.635   2.814   2.570  0.1625 -0.1169  0.1109
  748TIP3    H1 2250   4.615   2.889   2.627  0.8124 -0.6517  1.0702
  748TIP3    H2 2251   4.549   2.777   2.549 -0.2930  1.7426 -1.6172
  749TIP3   OH2 2252   3.754   3.907   3.388 -0.0185 -0.0469 -0.7845
  749TIP3    H1 2253   3.790   3.819   3.376 -0.7069 -0.1615 -2.2775
  749TIP3    H2 2254   3.805   3.963   3.330  0.3130  0.5216  0.0417
  750TIP3   OH2 2255   4.520   2.862   2.207 -0.0688 -0.5303 -0.3561
  750TIP3    H1 2256   4.432   2.863   2.170  0.1779 -1.1305 -0.9858
  750TIP3    H2 2257   4.514   2.800   2.280 -0.6253  0.8636  0.8293
  751TIP3   OH2 2258   1.408   5.914   1.366 -0.0524  0.3847 -0.6645
  751TIP3    H1 2259   1.496   5.880   1.378  0.2402  1.0640 -0.8688
  751TIP3    H2 2260   1.410   5.956   1.280  0.0772  2.3997  0.2755
  752TIP3   OH2 2261   4.282   3.694   3.081  0.8740  0.0348  0.1643
  752TIP3    H1 2262   4.296   3.729   3.169  0.6688  0.3279  0.0799
  752TIP3    H2 2263   4.267   3.771   3.026  0.1919 -0.1945  0.0176
  753TIP3   OH2 2264   2.254   4.734   3.317 -0.1905 -0.4206 -0.1458
  753TIP3    H1 2265   2.261   4.672   3.390 -1.0302 -0.4365 -0.0712
  753TIP3    H2 2266   2.180   4.790   3.340 -0.8138 -0.7709 -1.2337
  754TIP3   OH2 2267   4.747   0.552   1.516  0.2440  0.2284  0.2451
  754TIP3    H1 2268   4.652   0.567   1.524  0.1396 -0.2214 -0.1132
  754TIP3    H2 2269   4.779   0.554   1.606 -0.2818 -0.7057  0.4736
  755TIP3   OH2 2270   3.166   5.003   4.998  0.0103 -0.1485 -0.3682
  755TIP3    H1 2271   3.212   5.043   4.924  1.2679 -1.9057 -0.5775
  755TIP3    H2 2272   3.156   5.075   5.061  1.4066  0.7064 -1.0830
  756TIP3   OH2 2273   3.643   3.333   2.583 -0.1366  0.1587  0.0290
  756TIP3    H1 2274   3.648   3.254   2.528  1.3436  0.1612  0.1114
  756TIP3    H2 2275   3.594   3.396   2.530 -0.5071 -0.4990 -0.4331
  757TIP3   OH2 2276   2.012   3.557   2.624  0.4035  0.4672  0.1994
  757TIP3    H1 2277   2.004   3.515   2.709 -1.3366  0.3041  0.0085
  757TIP3    H2 2278   1.948   3.511   2.569  2.1752 -0.0872 -1.4859
  758TIP3   OH2 2279   0.357   2.536   4.319  0.5304  0.3058 -0.0855
  758TIP3    H1 2280   0.296   2.465   4.336 -0.6587  1.2904 -0.0904
  758TIP3    H2 2281   0.417   2.501   4.253 -1.7615  0.1946 -2.2677
  759TIP3   OH2 2282   2.888   3.945   1.814  0.3367 -0.6266  0.2598
  759TIP3    H1 2283   2.871   3.879   1.747  1.7644 -0.9535  0.1820
  759TIP3    H2 2284   2.939   3.899   1.880 -1.8894 -0.5744  2.1209
  760TIP3   OH2 2285   3.399   2.871   5.175 -0.1960  0.2289 -0.2168
  760TIP3    H1 2286   3.462   2.805   5.205 -0.9372 -0.8382 -0.9037
  760TIP3    H2 2287   3.358   2.831   5.098 -0.3665  1.6945 -0.9208
  761TIP3   OH2 2288   5.869   3.734   3.328  0.1228 -0.2229  0.5462
  761TIP3    H1 2289   5.939   3.689   3.376  1.0499  0.1081 -0.4553
  761TIP3    H2 2290   5.910   3.763   3.247 -0.4705  2.3656  1.0911
  762TIP3   OH2 2291   5.848   2.646   3.788  0.1179  0.0752 -0.1505
  762TIP3    H1 2292   5.844   2.563   3.740  0.2665  0.3739 -0.6900
  762TIP3    H2 2293   5.838   2.713   3.720  0.1734  0.5039  0.2613
  763TIP3   OH2 2294   6.363   2.386   3.831 -0.0769 -0.4807  0.5456
  763TIP3    H1 2295   6.383   2.399   3.923  1.5349  0.1364  0.1375
  763TIP3    H2 2296   6.287   2.442   3.815  0.2377  0.1682  1.2813
  764TIP3   OH2 2297   5.120   0.524   4.739 -0.3651  0.0726 -0.4644
  764TIP3    H1 2298   5.194   0.554   4.792  1.3092 -3.9460 -0.1530
  764TIP3    H2 2299   5.159   0.505   4.653 -1.3713 -0.7240 -0.7543
  765TIP3   OH2 2300   6.096   4.906   1.594  0.1119  0.0245  0.1874
  765TIP3    H1 2301   6.061   4.866   1.674 -0.3329 -1.2197 -0.5922
  765TIP3    H2 2302   6.186   4.873   1.588  0.2977  0.4838  0.4066
  766TIP3   OH2 2303   0.744   4.195   1.506 -0.0087 -0.5457  0.0730
  766TIP3    H1 2304   0.697   4.228   1.583  0.9075 -0.5932  0.6732
  766TIP3    H2 2305   0.693   4.225   1.431  0.1539  1.2064  0.6318
  767TIP3   OH2 2306   4.226   4.040   5.055  0.3222 -0.0068 -0.1301
  767TIP3    H1 2307   4.238   4.117   4.999 -0.6651  0.4862  0.3134
  767TIP3    H2 2308   4.139   4.052   5.093  1.4765  0.3747  2.5808
  768TIP3   OH2 2309   3.999   5.076   4.652  0.2476  0.0910 -0.1108
  768TIP3    H1 2310   3.946   5.083   4.572  0.1174  0.0556 -0.0279
  768TIP3    H2 2311   4.027   5.166   4.669 -0.1066  0.1674  0.0616
  769TIP3   OH2 2312   2.991   2.692   3.707  0.1910 -1.0296 -0.1248
  769TIP3    H1 2313   3.018   2.601   3.720  1.3443 -0.5226  1.2386
  769TIP3    H2 2314   3.041   2.742   3.772 -2.8450  0.2046  1.4417
  770TIP3   OH2 2315   3.263   0.627   5.189  0.8704 -0.2519 -0.2916
  770TIP3    H1 2316   3.268   0.702   5.129  2.3732  0.4027  0.5956
  770TIP3    H2 2317   3.246   0.552   5.132 -0.1098  0.6711 -1.2685
  771TIP3   OH2 2318   2.299   1.203   4.551  0.0964  0.4670  0.2535
  771TIP3    H1 2319   2.217   1.248   4.529 -0.0025 -0.1416 -0.7169
  771TIP3    H2 2320   2.368   1.266   4.528  0.0925 -0.6442 -3.6053
  772TIP3   OH2 2321   4.444   4.230   2.304 -0.5239  0.1828 -0.4719
  772TIP3    H1 2322   4.452   4.135   2.302 -1.8627  0.0483 -0.3937
  772TIP3    H2 2323   4.488   4.260   2.225 -1.2338 -0.6085 -1.1852
  773TIP3   OH2 2324   5.083   0.822   2.118  0.3171 -0.0982 -0.3026
  773TIP3    H1 2325   4.995   0.786   2.128  1.1631 -1.8091  1.6348
  773TIP3    H2 2326   5.112   0.841   2.207  2.6547 -1.5762 -0.6613
  774TIP3   OH2 2327   3.515   1.605   4.570 -0.2266  0.0231 -0.0344
  774TIP3    H1 2328   3.484   1.693   4.549 -1.4449 -0.3375  0.1368
  774TIP3    H2 2329   3.590   1.591   4.513 -1.2361  0.4346 -1.5097
  775TIP3   OH2 2330   2.561   0.143   4.295  0.0894  0.0733  0.0895
  775TIP3    H1 2331   2.506   0.197   4.351 -0.1198  0.9805 -0.9490
  775TIP3    H2 2332   2.562   0.057   4.337 -4.8742 -1.0788 -1.4204
  776TIP3   OH2 2333   4.902   2.314   3.433  0.6092  0.0990  0.2263
  776TIP3    H1 2334   4.831   2.266   3.389  0.7029  0.6370 -0.5370
  776TIP3    H2 2335   4.860   2.354   3.509  0.6976 -1.8387  1.3759
  777TIP3   OH2 2336   2.630   1.615   2.784 -0.2696  0.6327 -0.6201
  777TIP3    H1 2337   2.718   1.590   2.811 -0.7731  0.9601  1.5439
  777TIP3    H2 2338   2.632   1.710   2.778 -0.2059  0.5739 -1.6839
  778TIP3   OH2 2339   4.874   4.795   2.267  0.4203 -0.5019 -0.0047
  778TIP3    H1 2340   4.816   4.724   2.240 -2.3906  0.5464  2.7088
  778TIP3    H2 2341   4.920   4.761   2.344 -0.2735  0.2604  0.7707
  779TIP3   OH2 2342   2.021   5.316   0.290 -0.0073 -0.1537 -0.5304
  779TIP3    H1 2343   2.082   5.390   0.283  0.7404 -0.7547 -0.5072
  779TIP3    H2 2344   2.058   5.261   0.359 -0.6761 -0.4494 -0.4010
  780TIP3   OH2 2345   6.091   1.649   1.204 -0.1702  0.3758  0.0925
  780TIP3    H1 2346   6.020   1.633   1.266 -0.2924 -0.8122 -0.3237
  780TIP3    H2 2347   6.097   1.568   1.154  0.2466  1.1343 -1.1256
  781TIP3   OH2 2348   2.494   2.730   2.864  0.1799  0.2574 -0.0894
  781TIP3    H1 2349   2.491   2.825   2.851 -0.2155  0.3748  0.8065
  781TIP3    H2 2350   2.554   2.718   2.938  0.2368 -0.1916 -0.2073
  782TIP3   OH2 2351   2.906   1.681   0.926  0.7388 -0.5342  0.3117
  782TIP3    H1 2352   2.926   1.588   0.930  1.5218 -0.3399  2.2416
  782TIP3    H2 2353   2.991   1.724   0.932  0.2731  0.2766  1.6277
  783TIP3   OH2 2354   3.631   5.164   3.960  0.3722  0.4827 -0.1264
  783TIP3    H1 2355   3.677   5.214   4.027  1.9912 -0.3238 -0.5750
  783TIP3    H2 2356   3.542   5.153   3.994  1.3012 -0.4802  2.2392
  784TIP3   OH2 2357   2.419   3.725   1.659 -0.1413 -0.0069 -0.2220
  784TIP3    H1 2358   2.359   3.780   1.609 -1.0111 -0.9362 -0.2300
  784TIP3    H2 2359   2.408   3.754   1.749  0.3088  0.6394 -0.3625
  785TIP3   OH2 2360   3.089   3.254   2.539 -0.0646  0.0961  0.0234
  785TIP3    H1 2361   3.183   3.257   2.521  0.2073 -1.2254  1.0141
  785TIP3    H2 2362   3.084   3.223   2.630 -1.4784 -2.6417 -0.8817
  786TIP3   OH2 2363   1.789   0.331   1.479 -0.1680  0.6593 -0.1217
  786TIP3    H1 2364   1.709   0.299   1.521  0.0580  0.6293  0.2849
  786TIP3    H2 2365   1.770   0.327   1.385  0.0595 -1.2143 -0.1219
  787TIP3   OH2 2366   6.136   0.828   1.412 -0.0810  0.0073  0.0877
  787TIP3    H1 2367   6.173   0.894   1.471 -0.9208  0.7323 -0.1704
  787TIP3    H2 2368   6.149   0.865   1.325 -1.4311  0.2947 -0.0034
  788TIP3   OH2 2369   5.707   1.990   1.708  0.3961 -0.9806 -0.4535
  788TIP3    H1 2370   5.638   1.959   1.649 -1.3560  1.5641  0.1250
  788TIP3    H2 2371   5.695   1.938   1.788 -2.6774  1.0477  0.6060
  789TIP3   OH2 2372   2.872   0.689   1.551  0.2135 -0.3433 -0.1299
  789TIP3    H1 2373   2.791   0.706   1.600 -0.8787  3.0565 -2.7092
  789TIP3    H2 2374   2.847   0.624   1.485 -0.5747  0.8228 -1.0330
  790TIP3   OH2 2375   5.199   2.364   2.333 -0.1361 -0.2260 -0.4749
  790TIP3    H1 2376   5.268   2.361   2.399  0.8129 -0.1610 -1.4505
  790TIP3    H2 2377   5.139   2.294   2.359  0.8725 -1.0302 -0.2373
  791TIP3   OH2 2378   2.577   1.195   0.608 -0.3357  0.5570  0.1202
  791TIP3    H1 2379   2.545   1.158   0.691 -2.5085 -0.7188 -1.2028
  791TIP3    H2 2380   2.655   1.143   0.588 -1.0142 -0.5843  0.3293
  792TIP3   OH2 2381   2.422   1.435   2.778  0.1857 -0.3038  0.5053
  792TIP3    H1 2382   2.494   1.497   2.784 -0.9439  0.9990  1.2494
  792TIP3    H2 2383   2.343   1.487   2.796 -1.2654 -1.0950 -2.8323
  793TIP3   OH2 2384   1.706   0.163   5.012  0.7590  0.3734 -0.4381
  793TIP3    H1 2385   1.627   0.168   5.065  2.5051 -0.6588  2.5496
  793TIP3    H2 2386   1.750   0.247   5.026  0.8197  0.4380 -0.9974
  794TIP3   OH2 2387   5.832   2.489   3.275 -0.0202 -0.0949 -0.2666
  794TIP3    H1 2388   5.777   2.487   3.197 -2.0819  0.1762  1.1108
  794TIP3    H2 2389   5.917   2.521   3.244 -0.9294  0.4753 -2.3041
  795TIP3   OH2 2390   1.585   0.114   1.090 -0.2663  0.4168  0.3645
  795TIP3    H1 2391   1.669   0.100   1.135  0.2860  0.4473 -0.6375
  795TIP3    H2 2392   1.608   0.158   1.008 -1.3710  1.3926  0.5488
  796TIP3   OH2 2393   0.461   0.082   0.814  0.5882 -0.0433 -0.4475
  796TIP3    H1 2394   0.461  -0.007   0.851  0.8021 -0.3992 -1.2853
  796TIP3    H2 2395   0.372   0.114   0.830  0.3262 -0.6415 -0.6844
  797TIP3   OH2 2396   4.933   3.362   2.937 -0.6892  0.4866  0.6003
  797TIP3    H1 2397   4.885   3.322   2.864  0.6194  0.7765 -0.4707
  797TIP3    H2 2398   5.019   3.320   2.935  0.6000  2.9287 -0.3094
  798TIP3   OH2 2399   2.471   1.381   4.470 -0.3962  0.9599 -0.0293
  798TIP3    H1 2400   2.466   1.470   4.504  0.8919  0.4697  1.5929
  798TIP3    H2 2401   2.503   1.391   4.381  2.1743  2.0753  0.9213
  799TIP3   OH2 2402   3.409   3.413   1.014 -0.6757  0.2664  0.2851
  799TIP3    H1 2403   3.459   3.476   0.962 -1.4380  1.2028  0.6513
  799TIP3    H2 2404   3.332   3.462   1.043 -1.6587 -1.0584 -0.0139
  800TIP3   OH2 2405   0.007   4.890   4.574 -0.4040 -0.2605  0.7579
  800TIP3    H1 2406  -0.071   4.890   4.520  0.5374  0.0385 -0.6620
  800TIP3    H2 2407   0.073   4.846   4.521  1.2534  2.2552  0.5528
  801TIP3   OH2 2408   5.721   4.365   0.293  0.0457  0.0480  0.0066
  801TIP3    H1 2409   5.728   4.398   0.382 -3.1847  0.9764  0.0543
  801TIP3    H2 2410   5.734   4.270   0.301 -0.7868  0.0427  1.5701
  802TIP3   OH2 2411   2.701   1.685   4.122  0.4934 -0.3493  0.3460
  802TIP3    H1 2412   2.676   1.777   4.110  0.3807 -0.4494 -0.2701
  802TIP3    H2 2413   2.791   1.688   4.154 -0.0598  0.0089  1.9698
  803TIP3   OH2 2414   3.094  -0.028   4.740  0.0410  0.1293 -0.4531
  803TIP3    H1 2415   3.069  -0.023   4.648  1.6019 -0.4708 -0.9404
  803TIP3    H2 2416   3.099   0.064   4.768 -4.0228  0.3361  0.1501
  804TIP3   OH2 2417   0.752   0.253   1.260 -0.1946 -0.0168 -0.7178
  804TIP3    H1 2418   0.726   0.253   1.168  1.2063  1.3591 -1.1576
  804TIP3    H2 2419   0.826   0.192   1.264  0.3650  0.6583 -0.7063
  805TIP3   OH2 2420   6.058   5.148   1.469  0.3229 -0.2870 -0.3058
  805TIP3    H1 2421   6.119   5.142   1.395  3.0108  1.2448  1.6283
  805TIP3    H2 2422   6.079   5.071   1.523 -0.2067 -0.3097 -0.1315
  806TIP3   OH2 2423   5.889   0.676   1.175  0.0763  0.3882 -0.6198
  806TIP3    H1 2424   5.950   0.603   1.167  2.7581  2.3590  0.2621
  806TIP3    H2 2425   5.810   0.647   1.128  2.2310 -1.7092 -3.2901
  807TIP3   OH2 2426   4.702   5.614   0.916 -0.1000  0.4819  0.2298
  807TIP3    H1 2427   4.786   5.660   0.921  0.1899 -0.0047 -0.0609
  807TIP3    H2 2428   4.698   5.582   0.826  0.0647 -0.7210  0.6334
  808TIP3   OH2 2429   4.408   1.593   4.929 -0.1055  1.0240 -0.4525
  808TIP3    H1 2430   4.420   1.688   4.922  1.6469  0.8525 -0.3905
  808TIP3    H2 2431   4.322   1.577   4.891 -1.0146  2.7773  0.7193
  809TIP3   OH2 2432   1.117   1.032   1.409  0.2515 -0.1151  0.0196
  809TIP3    H1 2433   1.133   0.976   1.333  2.4713  0.6730 -0.1536
  809TIP3    H2 2434   1.048   0.986   1.458 -0.9608 -0.8426 -2.2219
  810TIP3   OH2 2435   5.165   0.217   4.602 -0.4555  0.0198 -0.3299
  810TIP3    H1 2436   5.119   0.231   4.685 -1.1546 -0.3539 -0.6406
  810TIP3    H2 2437   5.246   0.174   4.627 -0.6358 -0.0437  0.1685
  811TIP3   OH2 2438   0.097   0.029   2.663  0.3824 -0.2591  0.7964
  811TIP3    H1 2439   0.034   0.046   2.733  0.8651 -1.4266  1.5438
  811TIP3    H2 2440   0.050  -0.026   2.600  0.1450  0.2652  0.5103
  812TIP3   OH2 2441   4.151   1.116   2.950 -0.5088 -0.1108 -0.3461
  812TIP3    H1 2442   4.149   1.181   3.020 -0.2413 -1.3039  0.8047
  812TIP3    H2 2443   4.227   1.062   2.969 -1.7426 -1.9051 -0.1804
  813TIP3   OH2 2444   3.405   1.424   4.379  0.4896 -0.4103  0.1690
  813TIP3    H1 2445   3.448   1.492   4.328 -0.6517  0.6321  0.5374
  813TIP3    H2 2446   3.433   1.439   4.469  3.8760 -3.2959 -0.1957
  814TIP3   OH2 2447   6.054   1.817   0.462 -0.3106 -0.0778  0.7598
  814TIP3    H1 2448   6.086   1.841   0.374 -1.7159  2.0771  0.7758
  814TIP3    H2 2449   6.104   1.738   0.484  1.6281  0.5182 -1.0845
  815TIP3   OH2 2450   1.132   5.480   3.747  0.3779  0.6279 -0.5194
  815TIP3    H1 2451   1.223   5.456   3.732 -0.0199 -0.3935 -1.4841
  815TIP3    H2 2452   1.093   5.482   3.659 -0.6210  0.6449 -0.0914
  816TIP3   OH2 2453   3.145   3.220   2.822 -0.2894 -0.4262  0.2647
  816TIP3    H1 2454   3.103   3.137   2.797 -0.8882  0.5275 -2.2579
  816TIP3    H2 2455   3.073   3.277   2.846 -0.3232  0.5282 -1.8943
  817TIP3   OH2 2456   0.581   3.479   5.112  0.1384  0.2497  0.0127
  817TIP3    H1 2457   0.519   3.537   5.067  0.3136  0.7864  0.4490
  817TIP3    H2 2458   0.534   3.396   5.120 -0.3681  0.5228 -0.0469
  818TIP3   OH2 2459   0.315   4.422   1.037 -0.1201 -0.4481 -0.0357
  818TIP3    H1 2460   0.269   4.462   0.963  0.4148  0.5916  0.1744
  818TIP3    H2 2461   0.254   4.428   1.110  0.6261  1.8199  0.4938
  819TIP3   OH2 2462   1.736   5.904   3.900  0.1215 -0.1109  0.4332
  819TIP3    H1 2463   1.760   5.991   3.868  1.9274 -0.7721 -0.1447
  819TIP3    H2 2464   1.819   5.865   3.927 -0.8439 -1.1281  2.1006
  820TIP3   OH2 2465   5.459   4.823   0.076  0.1705  0.0990 -0.2524
  820TIP3    H1 2466   5.524   4.756   0.055  0.5794  0.4577 -0.1606
  820TIP3    H2 2467   5.505   4.882   0.136 -0.1679  0.4856 -0.3698
  821TIP3   OH2 2468   3.418   2.181   5.028  0.0768 -0.4229  0.0273
  821TIP3    H1 2469   3.346   2.215   4.974  0.4481 -0.7080 -0.6673
  821TIP3    H2 2470   3.496   2.225   4.994  0.3863 -1.0004 -0.0175
  822TIP3   OH2 2471   1.731   3.369   2.070  0.6540 -0.5608 -0.0178
  822TIP3    H1 2472   1.807   3.417   2.104 -0.6646  1.4885  0.2370
  822TIP3    H2 2473   1.762   3.328   1.990  1.9412  0.5569 -0.1332
  823TIP3   OH2 2474   4.285   2.107   3.467 -0.7141 -0.0542  0.1750
  823TIP3    H1 2475   4.215   2.118   3.403 -0.1136  2.1331 -0.1855
  823TIP3    H2 2476   4.323   2.195   3.476  1.3781 -0.9989  1.0437
  824TIP3   OH2 2477   4.478   4.886   4.877 -0.0970  0.4494  0.2019
  824TIP3    H1 2478   4.561   4.858   4.915 -0.3602 -2.1114 -0.9311
  824TIP3    H2 2479   4.494   4.977   4.849  1.5711  0.7569  1.9808
  825TIP3   OH2 2480   4.201   3.184   4.167 -0.0205  0.2381  0.1008
  825TIP3    H1 2481   4.225   3.256   4.107 -0.8283  0.2639 -0.1983
  825TIP3    H2 2482   4.109   3.167   4.148 -0.0176 -0.4176  0.6617
  826TIP3   OH2 2483   0.746   1.562   4.479  0.2938 -0.1885  0.1541
  826TIP3    H1 2484   0.791   1.624   4.537  0.7938 -0.4290  0.0364
  826TIP3    H2 2485   0.654   1.567   4.505  0.3931  0.2794  0.4399
  827TIP3   OH2 2486   1.986   0.134   4.889  0.4613 -0.1534  0.2908
  827TIP3    H1 2487   2.010   0.174   4.806  2.3509  0.3115  1.0238
  827TIP3    H2 2488   1.922   0.194   4.927 -0.9929 -0.7367 -1.0937
  828TIP3   OH2 2489   3.199   2.236   2.420  0.0388 -0.5061  0.5104
  828TIP3    H1 2490   3.178   2.320   2.462  0.7787  0.3379 -0.7115
  828TIP3    H2 2491   3.273   2.202   2.469 -0.4186 -0.5673  1.1660
  829TIP3   OH2 2492   0.497   5.029   1.917 -0.2559 -0.0025  0.0808
  829TIP3    H1 2493   0.593   5.023   1.913 -0.1934  1.4145 -1.5867
  829TIP3    H2 2494   0.470   5.044   1.827 -2.1389 -1.0442  0.4279
  830TIP3   OH2 2495   4.268   5.825   2.472 -0.4983 -0.0108  0.0085
  830TIP3    H1 2496   4.331   5.773   2.523 -0.6989  1.8834  2.3880
  830TIP3    H2 2497   4.200   5.763   2.446  0.0786 -1.2409  1.3168
  831TIP3   OH2 2498   2.856   3.839   1.467 -0.3548  0.3568 -0.7638
  831TIP3    H1 2499   2.869   3.933   1.453  0.6682  0.3058 -0.2799
  831TIP3    H2 2500   2.921   3.797   1.410  1.2816  0.0520  1.1732
  832TIP3   OH2 2501   3.840   0.245   2.514  0.1410  0.4446  0.3378
  832TIP3    H1 2502   3.763   0.202   2.478  0.6802  1.0918 -1.7023
  832TIP3    H2 2503   3.821   0.338   2.509  1.0296  0.6083 -0.1486
  833TIP3   OH2 2504   2.318   4.563   1.819 -0.2457  0.3611 -0.0130
  833TIP3    H1 2505   2.377   4.490   1.839 -0.3840  0.7128  1.8518
  833TIP3    H2 2506   2.360   4.608   1.745  0.0811 -1.2998 -0.8714
  834TIP3   OH2 2507   3.477   1.434   1.361  0.8728 -0.4452 -0.0020
  834TIP3    H1 2508   3.481   1.388   1.278  1.1412 -0.5746  0.0818
  834TIP3    H2 2509   3.508   1.523   1.340  0.9414 -0.4779 -0.0415
  835TIP3   OH2 2510   4.023   2.509   3.956 -0.6684 -0.1548 -0.1893
  835TIP3    H1 2511   4.099   2.538   4.007 -0.7373 -0.7567  0.2678
  835TIP3    H2 2512   4.061   2.473   3.876 -0.3689 -1.5144  0.5317
  836TIP3   OH2 2513   5.945   5.750   2.870 -0.6559  0.4299 -0.0932
  836TIP3    H1 2514   5.993   5.668   2.858 -1.6810 -0.2506  0.2577
  836TIP3    H2 2515   5.949   5.767   2.964 -2.6232 -0.6362  0.2284
  837TIP3   OH2 2516   0.709   2.908   4.506  0.5195 -0.1213 -0.4514
  837TIP3    H1 2517   0.768   2.846   4.463 -0.1118 -1.2532  0.2634
  837TIP3    H2 2518   0.686   2.866   4.589 -0.2605  0.8949 -0.1247
  838TIP3   OH2 2519   3.104   0.585   1.651 -0.2340 -0.4563  0.0805
  838TIP3    H1 2520   3.167   0.623   1.712 -0.6651 -0.5624  0.5978
  838TIP3    H2 2521   3.058   0.660   1.613 -1.3253 -0.4466  1.3570
  839TIP3   OH2 2522   4.186   0.089   3.166 -0.4860  0.2789 -0.5435
  839TIP3    H1 2523   4.281   0.077   3.169 -0.4702  0.5360  0.5430
  839TIP3    H2 2524   4.172   0.178   3.199 -1.0960  0.2806 -0.7988
  840TIP3   OH2 2525   0.102   5.612   3.266  0.1580 -0.3412  0.3117
  840TIP3    H1 2526   0.111   5.702   3.232  1.4545 -0.3259  0.6655
  840TIP3    H2 2527   0.186   5.570   3.247  0.0775 -1.0437  1.4177
  841TIP3   OH2 2528   4.901   2.645   0.093 -0.6543 -0.2432  0.0531
  841TIP3    H1 2529   4.871   2.716   0.036 -1.3404 -0.2269  0.4289
  841TIP3    H2 2530   4.937   2.580   0.033  0.4843  0.6347 -0.2716
  842TIP3   OH2 2531   4.517   5.369   3.098  0.0757  0.2903 -0.5249
  842TIP3    H1 2532   4.495   5.460   3.118  0.5816  0.7480 -1.8922
  842TIP3    H2 2533   4.604   5.356   3.136 -0.5523 -0.0617  0.8360
  843TIP3   OH2 2534   0.301   5.773   4.280 -0.0132 -0.1703 -0.2848
  843TIP3    H1 2535   0.332   5.783   4.370  0.6322 -0.1779 -0.5002
  843TIP3    H2 2536   0.375   5.735   4.234 -0.0281  0.6480 -1.0121
  844TIP3   OH2 2537   2.814   0.145   0.690  0.1524  0.4758  0.5452
  844TIP3    H1 2538   2.825   0.060   0.648 -1.1100  1.2325 -1.4395
  844TIP3    H2 2539   2.740   0.132   0.751  0.8517 -0.1712  1.2805
  845TIP3   OH2 2540   0.572   4.131   4.829  0.2985 -0.2622  0.5816
  845TIP3    H1 2541   0.654   4.140   4.877 -0.4521  0.0566  1.8329
  845TIP3    H2 2542   0.531   4.217   4.835 -1.2210 -1.0339  2.0361
  846TIP3   OH2 2543   2.706   4.939   0.214  0.0477  0.0181  0.5989
  846TIP3    H1 2544   2.708   4.857   0.262  1.4549 -0.3541 -0.0328
  846TIP3    H2 2545   2.663   5.001   0.273 -0.8938 -1.1277  1.1312
  847TIP3   OH2 2546   4.217   2.196   4.846 -0.0084 -0.2471 -0.1784
  847TIP3    H1 2547   4.284   2.199   4.777  0.7798 -0.3728  0.5576
  847TIP3    H2 2548   4.180   2.108   4.839 -1.1429  0.3008 -1.5287
  848TIP3   OH2 2549   5.835   1.701   0.372 -0.2774  0.4453  0.2590
  848TIP3    H1 2550   5.777   1.694   0.448 -0.2756 -0.1413  0.2116
  848TIP3    H2 2551   5.915   1.740   0.407 -0.1387 -0.1582  0.6437
  849TIP3   OH2 2552   5.657   5.421   3.852  0.2868  0.5794  0.0525
  849TIP3    H1 2553   5.712   5.398   3.928 -0.7872 -0.2928  0.5904
  849TIP3    H2 2554   5.673   5.350   3.790 -0.9645 -0.2294  0.6173
  850TIP3   OH2 2555   5.720   5.444   0.013 -0.2763 -0.0651 -0.3785
  850TIP3    H1 2556   5.657   5.390   0.061  1.0421 -2.0372 -0.7261
  850TIP3    H2 2557   5.776   5.380  -0.032  1.6371  1.5972 -0.4842
  851TIP3   OH2 2558   3.511   4.289   2.034 -0.7429  0.0028  0.0885
  851TIP3    H1 2559   3.533   4.258   1.946 -0.5226  1.1764 -0.2906
  851TIP3    H2 2560   3.595   4.299   2.078 -0.7827  0.3323  0.0980
  852TIP3   OH2 2561   3.760   4.381   2.171 -0.2151 -0.1186  0.2145
  852TIP3    H1 2562   3.777   4.469   2.205  1.9631  0.1652 -1.4357
  852TIP3    H2 2563   3.823   4.326   2.216 -0.2665 -0.5026 -0.1799
  853TIP3   OH2 2564   2.393   4.007   4.707  0.1782  0.5452 -0.6552
  853TIP3    H1 2565   2.358   3.922   4.678 -0.4439  1.5154 -3.0168
  853TIP3    H2 2566   2.438   4.041   4.630  2.1126  1.5407  0.8549
  854TIP3   OH2 2567   2.288   3.360   2.916  0.2709  0.2380 -0.3505
  854TIP3    H1 2568   2.242   3.321   2.841 -0.1337 -0.1591  0.1008
  854TIP3    H2 2569   2.346   3.290   2.947 -0.0778  0.1649  0.1402
  855TIP3   OH2 2570   0.935   1.060   1.151  0.2951 -0.2616  0.4952
  855TIP3    H1 2571   0.868   1.081   1.216  1.2520 -0.8383  1.7004
  855TIP3    H2 2572   1.015   1.051   1.201  1.4777  1.2249 -1.0091
  856TIP3   OH2 2573   0.966   4.971   1.774  0.3748  0.3731  0.1667
  856TIP3    H1 2574   1.004   5.016   1.698  1.2693  0.0570  0.4137
  856TIP3    H2 2575   1.019   4.892   1.783 -0.9006 -0.5136  0.0026
  857TIP3   OH2 2576   5.753   5.589   3.563  0.3124  0.3113 -0.0573
  857TIP3    H1 2577   5.828   5.635   3.601  0.1559 -0.9854  1.9128
  857TIP3    H2 2578   5.677   5.632   3.601  0.1626 -1.3514  1.6638
  858TIP3   OH2 2579   2.528   5.087   4.007  0.4486 -0.0748  0.0987
  858TIP3    H1 2580   2.599   5.149   3.994 -0.1646  0.4521 -0.9089
  858TIP3    H2 2581   2.471   5.128   4.072 -0.9336  1.3597 -1.9066
  859TIP3   OH2 2582   3.334   1.629   1.619  0.0903 -0.1679  0.2630
  859TIP3    H1 2583   3.340   1.658   1.710 -1.8268  2.8438 -0.4170
  859TIP3    H2 2584   3.240   1.622   1.602  0.3290  1.0582 -1.8952
  860TIP3   OH2 2585   4.490   2.606   5.139  0.0823  0.4991 -0.0474
  860TIP3    H1 2586   4.526   2.645   5.219  0.0984 -0.2746  0.3262
  860TIP3    H2 2587   4.467   2.517   5.164  1.5768 -0.2915 -1.3247
  861TIP3   OH2 2588   2.348   4.971   1.700 -0.3516  0.1935 -0.4330
  861TIP3    H1 2589   2.268   4.980   1.649 -0.7152 -0.2618  0.0555
  861TIP3    H2 2590   2.359   5.056   1.743 -0.9000  0.0565 -0.0207
  862TIP3   OH2 2591   2.775   1.350   4.092 -0.0517 -0.7151  0.1497
  862TIP3    H1 2592   2.796   1.392   4.175  0.7249 -0.7616 -0.0114
  862TIP3    H2 2593   2.733   1.418   4.040 -0.1527 -0.5652  0.4295
  863TIP3   OH2 2594   1.977   5.623   4.623 -0.3994  0.0581 -0.2835
  863TIP3    H1 2595   1.927   5.615   4.542 -0.2026 -0.6598 -0.3426
  863TIP3    H2 2596   1.915   5.599   4.692 -0.2549 -0.4712 -0.3271
  864TIP3   OH2 2597   4.219   5.466   3.973  0.0390  0.1658 -0.0315
  864TIP3    H1 2598   4.182   5.409   3.906  1.3008 -1.0472  0.2552
  864TIP3    H2 2599   4.283   5.411   4.018 -0.4759  1.0660  1.9112
  865TIP3   OH2 2600   6.181   3.314   4.425 -0.0340 -0.4464  0.2737
  865TIP3    H1 2601   6.163   3.257   4.499  0.2000 -0.3279  0.4215
  865TIP3    H2 2602   6.151   3.264   4.349  0.4616 -0.9039  0.3701
  866TIP3   OH2 2603   6.361   4.385   1.022 -0.2065  0.1435 -0.3031
  866TIP3    H1 2604   6.324   4.462   1.066  3.6492  2.3165 -0.4473
  866TIP3    H2 2605   6.354   4.315   1.087 -1.8195  1.1459  0.6916
  867TIP3   OH2 2606   3.714   2.107   2.052 -0.5270 -0.0060 -0.5708
  867TIP3    H1 2607   3.676   2.193   2.033 -1.0657  0.0645  0.7246
  867TIP3    H2 2608   3.653   2.067   2.114  0.2697 -0.8928 -0.3301
  868TIP3   OH2 2609   0.467   5.736   1.817 -0.3466  0.1737  0.4240
  868TIP3    H1 2610   0.517   5.697   1.888  0.9064 -0.5423 -0.7925
  868TIP3    H2 2611   0.528   5.738   1.743 -1.1426  2.2009 -0.2611
  869TIP3   OH2 2612   5.331   3.216   0.426  0.1286 -0.3117 -0.0230
  869TIP3    H1 2613   5.247   3.223   0.470  1.0723 -0.7034  1.9805
  869TIP3    H2 2614   5.388   3.174   0.491  1.1815 -2.6547 -2.2879
  870TIP3   OH2 2615   0.756   4.771   3.271 -0.2301 -0.6535  0.2010
  870TIP3    H1 2616   0.764   4.818   3.188  0.8133 -0.0855  0.5997
  870TIP3    H2 2617   0.711   4.689   3.248 -0.7009 -0.1377 -0.7652
  871TIP3   OH2 2618   4.848   5.033   4.002  0.3399 -0.0134  0.8772
  871TIP3    H1 2619   4.901   4.959   3.971  0.0689  0.5808 -1.0804
  871TIP3    H2 2620   4.758   5.000   4.002  0.2873  0.1351  0.6131
  872TIP3   OH2 2621   4.978   2.481   2.129 -0.1298  0.5836  0.0929
  872TIP3    H1 2622   4.917   2.407   2.127  0.0240  0.4663 -0.2757
  872TIP3    H2 2623   4.922   2.558   2.130 -0.2895  0.4686  0.1352
  873TIP3   OH2 2624   4.393   2.560   2.748 -0.0407  0.0525  0.4378
  873TIP3    H1 2625   4.425   2.632   2.802  1.7962 -0.3417 -0.0586
  873TIP3    H2 2626   4.318   2.524   2.797  0.7345  0.5453  2.0445
  874TIP3   OH2 2627   3.157   0.085   1.789  0.0537 -0.6495 -0.1118
  874TIP3    H1 2628   3.223   0.068   1.722 -0.8624  1.1685 -1.5613
  874TIP3    H2 2629   3.114   0.166   1.761 -1.0612 -0.3747  2.1557
  875TIP3   OH2 2630   3.468   3.239   3.912 -0.6583  0.2425 -0.0014
  875TIP3    H1 2631   3.415   3.160   3.897  1.1327 -0.4756 -3.6433
  875TIP3    H2 2632   3.546   3.207   3.957 -0.3792  0.0811 -0.5895
  876TIP3   OH2 2633   5.760   3.112   1.096 -0.1994 -0.2510 -0.0917
  876TIP3    H1 2634   5.744   3.087   1.005 -0.7178  0.1733 -0.1143
  876TIP3    H2 2635   5.695   3.063   1.146 -0.7471  0.4925 -0.0682
  877TIP3   OH2 2636   5.251   4.020   3.194  0.7163  0.2351  0.3189
  877TIP3    H1 2637   5.179   3.958   3.179  0.6665  0.7564 -1.7906
  877TIP3    H2 2638   5.210   4.091   3.245  0.4773 -0.8072  1.6582
  878TIP3   OH2 2639   0.330   1.067   3.956 -0.6602 -0.2541 -0.3194
  878TIP3    H1 2640   0.338   0.972   3.944 -0.8935 -0.0701 -2.2704
  878TIP3    H2 2641   0.420   1.099   3.952 -0.7360 -0.1636 -2.3843
  879TIP3   OH2 2642   5.201   0.498   2.937 -0.6352 -0.0748 -0.0703
  879TIP3    H1 2643   5.118   0.538   2.911 -0.8849 -0.8395 -0.4643
  879TIP3    H2 2644   5.181   0.406   2.949 -0.3009  0.0423  1.8299
  880TIP3   OH2 2645   5.045   5.774   3.286  0.8034 -0.4007 -0.8027
  880TIP3    H1 2646   5.090   5.846   3.244  1.0171  0.0511  0.1646
  880TIP3    H2 2647   5.102   5.748   3.359  1.6866 -2.8552 -2.2513
  881TIP3   OH2 2648   0.197   0.337   0.621  0.4562  0.4380  0.1134
  881TIP3    H1 2649   0.192   0.365   0.712 -0.7875  0.9468 -0.0817
  881TIP3    H2 2650   0.277   0.286   0.615  1.3987  1.7344  1.1135
  882TIP3   OH2 2651   0.872   1.277   2.830 -0.0276  0.0581  0.1150
  882TIP3    H1 2652   0.919   1.250   2.751  0.5728  0.8894  0.1775
  882TIP3    H2 2653   0.915   1.230   2.901 -1.4392 -1.7606 -0.1634
  883TIP3   OH2 2654   0.183   0.270   2.608  0.2109 -0.2661  0.1022
  883TIP3    H1 2655   0.104   0.294   2.656 -0.3221 -0.0838 -0.8497
  883TIP3    H2 2656   0.192   0.176   2.622 -0.4412 -0.3733 -0.1657
  884TIP3   OH2 2657   5.089   1.204   3.071 -0.4768 -0.0858  0.2059
  884TIP3    H1 2658   5.043   1.187   3.154  0.8174  0.6778  1.1192
  884TIP3    H2 2659   5.143   1.281   3.089  0.6403 -0.5487 -1.0357
  885TIP3   OH2 2660   3.858   2.462   1.049 -0.4608 -0.4416 -0.0235
  885TIP3    H1 2661   3.893   2.539   1.003 -1.8080 -0.5995 -1.3877
  885TIP3    H2 2662   3.917   2.391   1.024 -1.2532 -0.5631 -1.7404
  886TIP3   OH2 2663   5.658   2.965   4.623 -0.8842  0.5602 -0.5813
  886TIP3    H1 2664   5.664   2.900   4.693 -0.1674 -0.5441 -1.6337
  886TIP3    H2 2665   5.709   3.040   4.654 -0.3865 -0.0051 -0.0312
  887TIP3   OH2 2666   5.381   1.489   3.746 -0.4119  0.0483  0.0372
  887TIP3    H1 2667   5.342   1.571   3.714  2.0211  0.3382 -2.4947
  887TIP3    H2 2668   5.448   1.517   3.808 -0.8805 -0.1981  0.6768
  888TIP3   OH2 2669   5.494   2.121   0.680  0.4344 -0.1315  0.3116
  888TIP3    H1 2670   5.572   2.078   0.646 -1.2363 -1.7602 -1.6990
  888TIP3    H2 2671   5.437   2.132   0.604 -1.0587  1.6166  1.5894
  889TIP3   OH2 2672   1.004   1.672   0.748 -0.4032  0.5785 -0.2101
  889TIP3    H1 2673   1.011   1.618   0.827  0.8229  1.3522  0.2416
  889TIP3    H2 2674   1.088   1.660   0.703 -0.3257  1.6678 -0.3853
  890TIP3   OH2 2675   0.497   4.552   2.557  0.3095 -0.6207 -0.1525
  890TIP3    H1 2676   0.465   4.584   2.472 -0.2090 -1.4900 -0.3046
  890TIP3    H2 2677   0.458   4.612   2.621 -1.1120 -1.2328 -0.3888
  891TIP3   OH2 2678   3.497   1.319   1.098 -0.0160  0.4523 -0.0824
  891TIP3    H1 2679   3.427   1.297   1.037  0.3632  0.0162 -0.3678
  891TIP3    H2 2680   3.572   1.267   1.068  0.5576  1.2306 -0.0458
  892TIP3   OH2 2681   1.080   4.610   3.211 -0.4013  0.0447  0.1168
  892TIP3    H1 2682   1.166   4.652   3.208  0.6558 -1.9640  0.4691
  892TIP3    H2 2683   1.082   4.557   3.291 -1.1360 -1.6409 -0.9167
  893TIP3   OH2 2684   2.592   2.533   4.042  0.2686  0.0296 -0.5604
  893TIP3    H1 2685   2.569   2.559   3.953  0.9435 -1.1058 -1.0907
  893TIP3    H2 2686   2.634   2.448   4.032  2.2404  0.8081  0.6264
  894TIP3   OH2 2687   2.819   1.700   1.180 -0.9181  1.3059  0.5266
  894TIP3    H1 2688   2.725   1.712   1.194 -0.8709  2.4750  0.0196
  894TIP3    H2 2689   2.830   1.705   1.085 -0.5805 -0.9629  0.3928
  895TIP3   OH2 2690   0.515   4.626   2.834 -0.0550  0.2428  0.6357
  895TIP3    H1 2691   0.503   4.557   2.899  1.4078  0.0884  0.7644
  895TIP3    H2 2692   0.607   4.650   2.841 -0.0726  0.8057 -0.8031
  896TIP3   OH2 2693   3.614   1.907   0.569 -0.0369  0.5169 -0.3130
  896TIP3    H1 2694   3.667   1.965   0.624 -1.1300  1.1517  0.1001
  896TIP3    H2 2695   3.662   1.902   0.486  0.5399  1.2929 -0.0337
  897TIP3   OH2 2696   1.471   4.969   3.197 -0.0375  0.3012  0.4199
  897TIP3    H1 2697   1.427   4.974   3.112 -0.0504 -0.2529  0.3896
  897TIP3    H2 2698   1.564   4.978   3.175  0.0202 -0.5742  0.2580
  898TIP3   OH2 2699   5.045   5.612   2.839 -0.3894 -0.3225  0.4727
  898TIP3    H1 2700   5.100   5.581   2.767 -1.8290 -2.3712  0.1725
  898TIP3    H2 2701   5.035   5.706   2.823 -0.6360 -0.7052 -1.9879
  899TIP3   OH2 2702   3.233   0.478   1.943 -0.1962 -0.2794 -0.4318
  899TIP3    H1 2703   3.296   0.417   1.982  0.1810  0.5794  0.3489
  899TIP3    H2 2704   3.239   0.463   1.849 -0.1634 -1.4851 -0.2520
  900TIP3   OH2 2705   3.616   3.308   3.657 -0.7259 -0.0876  0.0511
  900TIP3    H1 2706   3.562   3.291   3.579  0.4068 -0.5826 -0.6508
  900TIP3    H2 2707   3.558   3.290   3.731 -1.8842  0.5669 -0.6661
  901TIP3   OH2 2708   2.081   5.185   0.523  0.3257  0.0378 -0.3811
  901TIP3    H1 2709   2.176   5.177   0.524  0.2707 -2.5073  2.7348
  901TIP3    H2 2710   2.060   5.229   0.606 -1.2062 -0.6093 -0.3869
  902TIP3   OH2 2711   1.711   1.873   1.331 -0.0707 -0.1546  0.2774
  902TIP3    H1 2712   1.654   1.911   1.264  1.0987 -0.6500 -1.0601
  902TIP3    H2 2713   1.757   1.948   1.369 -0.1372  0.0678 -0.0756
  903TIP3   OH2 2714   3.031   1.368   5.107 -0.6824 -0.0190  0.0995
  903TIP3    H1 2715   3.004   1.419   5.183 -0.0176 -1.2612  1.2256
  903TIP3    H2 2716   3.124   1.349   5.122 -0.4625 -0.0438 -1.1731
  904TIP3   OH2 2717   0.362   2.464   1.255  0.2229 -0.1148  0.4802
  904TIP3    H1 2718   0.270   2.457   1.278  0.7318  2.0862  3.9554
  904TIP3    H2 2719   0.363   2.485   1.162 -2.6942 -0.7649  0.2244
  905TIP3   OH2 2720   4.942   1.389   2.154 -0.6982  0.3225  0.1588
  905TIP3    H1 2721   4.878   1.353   2.215  0.4439  0.4581  1.4851
  905TIP3    H2 2722   5.026   1.354   2.183  0.0687  1.6316 -0.3841
  906TIP3   OH2 2723   4.450   2.175   2.228  0.3353  0.6956 -0.1863
  906TIP3    H1 2724   4.448   2.085   2.260 -2.0573  0.8906  0.4073
  906TIP3    H2 2725   4.472   2.227   2.306 -2.4822  0.9035  0.6001
  907TIP3   OH2 2726   5.786   4.039   4.010 -0.5922 -0.1412 -0.1375
  907TIP3    H1 2727   5.809   4.039   3.917  1.1778 -2.8563  0.1734
  907TIP3    H2 2728   5.868   4.019   4.055 -1.7207 -0.4770  1.8792
  908TIP3   OH2 2729   3.327   5.023   0.383 -0.1252  0.3261 -0.5322
  908TIP3    H1 2730   3.334   4.929   0.364 -2.1094  0.1105 -0.3777
  908TIP3    H2 2731   3.412   5.059   0.356  0.3929 -1.3762 -1.3285
  909TIP3   OH2 2732   4.305   1.153   4.833 -0.0089  0.4986  0.2396
  909TIP3    H1 2733   4.359   1.219   4.877  0.7427 -0.2413  0.4430
  909TIP3    H2 2734   4.231   1.203   4.798 -0.9268  1.0833  2.7569
  910TIP3   OH2 2735   2.224   4.716   0.952  0.2052  0.5095  0.4249
  910TIP3    H1 2736   2.140   4.674   0.968 -0.5163  1.2767 -1.1702
  910TIP3    H2 2737   2.256   4.740   1.039 -0.9215 -0.3242  1.0935
  911TIP3   OH2 2738   4.143   5.250   2.324 -0.2665  0.1475 -0.1694
  911TIP3    H1 2739   4.208   5.240   2.255 -1.2033 -0.6775 -0.9779
  911TIP3    H2 2740   4.190   5.233   2.405  0.2123 -2.0964 -0.8525
  912TIP3   OH2 2741   4.074   5.310   3.794  0.1718  0.5277  0.6771
  912TIP3    H1 2742   3.983   5.290   3.774  0.7710 -1.7129 -0.1087
  912TIP3    H2 2743   4.122   5.289   3.713  1.3677  2.0427  0.9330
  913TIP3   OH2 2744   3.898   0.404   0.740 -0.4911  0.8959 -0.6400
  913TIP3    H1 2745   3.809   0.426   0.767 -0.4040  1.0799 -0.4964
  913TIP3    H2 2746   3.953   0.466   0.788 -0.2261  0.2811 -0.1409
  914TIP3   OH2 2747   5.036   2.641   2.854  0.6434  0.1611  0.1918
  914TIP3    H1 2748   5.059   2.681   2.937  0.9317 -0.3038  0.3428
  914TIP3    H2 2749   5.012   2.551   2.876  1.6354 -0.2544 -0.3166
  915TIP3   OH2 2750   4.200   2.850   4.790 -0.3234  0.0082  0.3004
  915TIP3    H1 2751   4.205   2.786   4.719  0.0890 -0.4847  0.7588
  915TIP3    H2 2752   4.175   2.798   4.867  0.6081  0.2777  0.8057
  916TIP3   OH2 2753   1.724   4.221   4.204 -0.1327  0.4527 -0.6249
  916TIP3    H1 2754   1.632   4.219   4.179  0.0756  2.5546 -1.7356
  916TIP3    H2 2755   1.743   4.313   4.222  2.0965  0.3002 -1.8051
  917TIP3   OH2 2756   1.712   4.061   2.066 -0.2249 -0.2618 -0.4199
  917TIP3    H1 2757   1.753   4.137   2.107 -0.6906  0.3202 -1.0154
  917TIP3    H2 2758   1.773   4.036   1.996  0.8415 -1.5888  0.9047
  918TIP3   OH2 2759   1.670   2.132   3.668  0.5640 -0.5286  0.4278
  918TIP3    H1 2760   1.624   2.103   3.589  1.1240 -0.4472  0.0695
  918TIP3    H2 2761   1.643   2.069   3.735 -3.9467  2.1654  1.5692
  919TIP3   OH2 2762   5.475   4.483   0.915  0.5728  0.6263  0.3350
  919TIP3    H1 2763   5.506   4.411   0.860 -2.1881 -0.7464  0.4073
  919TIP3    H2 2764   5.534   4.483   0.990  0.9799 -1.2447  0.0646
  920TIP3   OH2 2765   1.485   2.170   3.935 -0.8673 -0.4332 -0.0249
  920TIP3    H1 2766   1.519   2.081   3.943  0.2746 -0.0152 -0.1746
  920TIP3    H2 2767   1.499   2.194   3.844  1.5496  0.9531  0.6252
  921TIP3   OH2 2768   1.041   3.226   4.773  0.1568 -0.0872 -0.0229
  921TIP3    H1 2769   1.054   3.306   4.722 -2.0398  0.8408  0.7369
  921TIP3    H2 2770   1.076   3.156   4.717  0.0716  1.1643 -1.7206
  922TIP3   OH2 2771   3.202   2.461   2.570  0.0922  0.3871  0.4154
  922TIP3    H1 2772   3.241   2.545   2.545  1.0994  0.0442  0.7670
  922TIP3    H2 2773   3.237   2.443   2.657  2.9018 -2.1052 -1.0236
  923TIP3   OH2 2774   4.063   2.385   2.644  0.5443 -0.5289 -0.1834
  923TIP3    H1 2775   4.072   2.449   2.573  0.7510 -1.6740 -1.2254
  923TIP3    H2 2776   4.130   2.319   2.625 -0.0574 -1.3637  0.5353
  924TIP3   OH2 2777   5.389   3.565   2.683  0.3837  0.0288 -1.3348
  924TIP3    H1 2778   5.298   3.540   2.665  0.3368 -0.9356  0.0616
  924TIP3    H2 2779   5.400   3.650   2.641 -1.7355  1.0563  0.0100
  925TIP3   OH2 2780   4.237   0.083   0.185 -0.1765  0.1167  0.5492
  925TIP3    H1 2781   4.247   0.115   0.096  0.4612 -2.0967 -0.2302
  925TIP3    H2 2782   4.157   0.125   0.217 -0.3996  0.9573 -1.0416
  926TIP3   OH2 2783   5.304   2.686   0.345 -0.0620 -0.0441  0.3167
  926TIP3    H1 2784   5.307   2.782   0.341  0.7268 -0.0581  0.3769
  926TIP3    H2 2785   5.233   2.667   0.406 -0.6364  0.4864 -0.1681
  927TIP3   OH2 2786   4.266   5.349   0.747  0.8024  0.5205 -0.2926
  927TIP3    H1 2787   4.221   5.423   0.788 -0.7882 -1.0026  0.8460
  927TIP3    H2 2788   4.339   5.329   0.806  0.2856  0.1959  0.2414
  928TIP3   OH2 2789   1.943   5.700   1.500  0.1375  0.3060 -0.1680
  928TIP3    H1 2790   1.933   5.795   1.500  2.0271  0.5361 -0.7262
  928TIP3    H2 2791   1.862   5.668   1.458 -0.5745  1.6327  0.1431
  929TIP3   OH2 2792   1.346   0.218   3.079  0.4707  0.4149 -0.4221
  929TIP3    H1 2793   1.359   0.306   3.115 -0.8833  1.1636 -1.6270
  929TIP3    H2 2794   1.332   0.233   2.985 -2.0236 -0.8146 -0.3447
  930TIP3   OH2 2795   0.112   4.555   2.714  0.0142 -0.1089 -0.0511
  930TIP3    H1 2796   0.060   4.633   2.731 -0.6800 -0.6358  0.2522
  930TIP3    H2 2797   0.126   4.516   2.800  0.3973 -0.2972 -0.1956
  931TIP3   OH2 2798   0.604   1.241   3.152 -0.3716  0.2867  0.2558
  931TIP3    H1 2799   0.687   1.266   3.192 -0.2926 -0.1701  0.3819
  931TIP3    H2 2800   0.609   1.276   3.063 -0.2178  0.6201  0.3964
  932TIP3   OH2 2801   2.359   3.860   0.929  0.4669 -0.2095  0.3369
  932TIP3    H1 2802   2.377   3.954   0.933  1.0900 -0.3306  0.4832
  932TIP3    H2 2803   2.327   3.846   0.840  2.5012 -0.2003 -0.4638
  933TIP3   OH2 2804   5.270   3.847   2.156 -0.3546 -0.6495  0.2781
  933TIP3    H1 2805   5.318   3.839   2.074 -0.5402 -2.2214  0.2996
  933TIP3    H2 2806   5.179   3.834   2.133 -0.5120 -0.1863  0.6131
  934TIP3   OH2 2807   2.812   3.029   3.740  0.4412  0.0330 -0.2950
  934TIP3    H1 2808   2.837   3.086   3.813 -2.6017  1.4057 -0.1683
  934TIP3    H2 2809   2.782   2.948   3.782  3.6611 -1.3623 -0.4192
  935TIP3   OH2 2810   0.093   1.384   4.886  0.1269  0.3873  0.0931
  935TIP3    H1 2811   0.035   1.396   4.811  1.0237 -1.8248 -1.0560
  935TIP3    H2 2812   0.068   1.299   4.923  1.8307 -0.1066  0.2363
  936TIP3   OH2 2813   4.157   4.321   2.405  0.3249  0.2196 -0.2288
  936TIP3    H1 2814   4.249   4.298   2.391  0.1432 -0.1237 -0.9190
  936TIP3    H2 2815   4.143   4.310   2.499 -0.2396 -4.5206 -0.5885
  937TIP3   OH2 2816   1.826   5.024   4.839  0.3996  0.3378  0.7744
  937TIP3    H1 2817   1.762   4.980   4.896  0.6786  0.0399  0.8621
  937TIP3    H2 2818   1.798   5.115   4.839 -2.6699 -0.3524 -2.6509
  938TIP3   OH2 2819   1.079   0.288   2.228 -0.0668 -0.1549 -0.0152
  938TIP3    H1 2820   1.048   0.306   2.139 -1.4042 -0.0806  0.4467
  938TIP3    H2 2821   1.098   0.375   2.265  0.9062 -0.2088 -0.3508
  939TIP3   OH2 2822   6.199   5.051   4.231  0.5237  0.0602 -0.4150
  939TIP3    H1 2823   6.218   5.121   4.168 -0.0327 -1.9600 -2.9963
  939TIP3    H2 2824   6.117   5.013   4.200  0.0186 -0.8310  1.8118
  940TIP3   OH2 2825   2.689   4.748   3.533  0.5855  0.0815  0.3950
  940TIP3    H1 2826   2.688   4.843   3.544  0.6490  0.1797 -0.3851
  940TIP3    H2 2827   2.776   4.722   3.562  0.0461  0.0540  2.1078
  941TIP3   OH2 2828   0.403   2.184   2.627 -0.1427  0.0977 -0.2280
  941TIP3    H1 2829   0.360   2.156   2.708 -0.8537  2.0514  0.0998
  941TIP3    H2 2830   0.486   2.221   2.656 -0.5501  1.1193 -0.3433
  942TIP3   OH2 2831   4.524   5.620   4.932 -0.1712  0.3368  0.3162
  942TIP3    H1 2832   4.607   5.627   4.979 -0.4912  1.6355  0.7312
  942TIP3    H2 2833   4.546   5.641   4.841 -0.2060  1.8158  0.6221
  943TIP3   OH2 2834   4.443   4.251   0.689  0.0055 -0.5482 -0.0650
  943TIP3    H1 2835   4.360   4.245   0.642  0.1922  1.3526 -0.7252
  943TIP3    H2 2836   4.433   4.326   0.747  1.0718 -0.6090  0.2263
  944TIP3   OH2 2837   3.831   2.656   4.699 -0.5342  0.0791 -0.0153
  944TIP3    H1 2838   3.898   2.664   4.632 -1.0132  1.2595 -0.3902
  944TIP3    H2 2839   3.874   2.613   4.773  0.6212  0.8122 -0.2505
  945TIP3   OH2 2840   2.632   1.532   0.771 -0.2049  0.4275 -0.6675
  945TIP3    H1 2841   2.582   1.480   0.834  0.3673  0.5441 -0.1113
  945TIP3    H2 2842   2.714   1.483   0.760  0.3242  1.1844 -0.1680
  946TIP3   OH2 2843   0.712   1.423   1.252 -0.3847  0.2787  0.6356
  946TIP3    H1 2844   0.617   1.436   1.251 -0.1926  2.0851  1.5760
  946TIP3    H2 2845   0.743   1.474   1.327  1.2280 -1.2288  1.0742
  947TIP3   OH2 2846   4.218   5.208   5.023  0.5586 -0.4052 -0.1204
  947TIP3    H1 2847   4.134   5.237   4.987  0.7752  1.8956  1.0420
  947TIP3    H2 2848   4.201   5.120   5.055 -1.9406  0.5950  1.6208
  948TIP3   OH2 2849   0.164   2.969   1.035 -0.5479  0.1087 -0.3424
  948TIP3    H1 2850   0.083   3.000   1.075  0.1201  0.0112  1.1607
  948TIP3    H2 2851   0.152   2.875   1.024 -0.4853  0.0185  0.3045
  949TIP3   OH2 2852   2.538   2.855   1.845 -0.2599  0.5665  0.2113
  949TIP3    H1 2853   2.481   2.791   1.887 -0.9125  1.2376  0.3689
  949TIP3    H2 2854   2.482   2.931   1.829  0.2887  0.8005 -0.7246
  950TIP3   OH2 2855   5.120   1.368   3.382  0.5030 -0.4816  0.6707
  950TIP3    H1 2856   5.171   1.375   3.463  2.4879  0.1878 -0.5572
  950TIP3    H2 2857   5.165   1.301   3.331  2.0601  2.0828 -1.6381
  951TIP3   OH2 2858   2.644   5.887   3.768  0.2040  0.4592 -0.5406
  951TIP3    H1 2859   2.663   5.977   3.794 -0.4583  0.2564  0.7296
  951TIP3    H2 2860   2.679   5.834   3.840 -1.0034 -0.1860 -0.4138
  952TIP3   OH2 2861   5.470   3.712   0.893 -0.3988 -0.0104  0.3200
  952TIP3    H1 2862   5.387   3.668   0.875  0.9459 -4.2953  3.1191
  952TIP3    H2 2863   5.446   3.782   0.954 -2.1055 -0.1742 -0.1037
  953TIP3   OH2 2864   2.264   2.853   2.154  0.3363 -0.6564 -0.1285
  953TIP3    H1 2865   2.251   2.947   2.144 -0.9730 -0.7031  0.8985
  953TIP3    H2 2866   2.285   2.822   2.066 -3.9103 -0.0824 -1.5705
  954TIP3   OH2 2867   1.849   3.743   4.912  0.5895  0.0342  0.0198
  954TIP3    H1 2868   1.931   3.787   4.890  0.7065 -0.3614 -0.3348
  954TIP3    H2 2869   1.781   3.809   4.895  0.8314  0.3624  0.3175
  955TIP3   OH2 2870   3.096   3.934   3.058 -0.0733 -0.2541  0.7759
  955TIP3    H1 2871   3.001   3.930   3.074 -0.6588 -4.0421 -2.0835
  955TIP3    H2 2872   3.135   3.897   3.136 -1.3054 -1.6844  0.7767
  956TIP3   OH2 2873   0.551   0.112   2.329  0.0773  0.0765  0.0464
  956TIP3    H1 2874   0.545   0.022   2.362 -1.7526 -0.0193 -0.4235
  956TIP3    H2 2875   0.620   0.152   2.382  0.4640 -1.4029  0.7321
  957TIP3   OH2 2876   6.032   0.824   3.983 -0.0017  0.3724 -0.3208
  957TIP3    H1 2877   5.993   0.738   3.967  0.8557 -0.1153  0.1471
  957TIP3    H2 2878   6.061   0.854   3.897 -1.1127  0.6097 -0.6276
  958TIP3   OH2 2879   0.848   5.646   2.776  0.0593 -0.4656 -0.0147
  958TIP3    H1 2880   0.927   5.700   2.766 -1.6540  2.0480 -0.8956
  958TIP3    H2 2881   0.804   5.681   2.853  0.5328 -2.9692  1.5062
  959TIP3   OH2 2882   2.156   4.408   0.216 -0.4486 -0.2923 -0.3612
  959TIP3    H1 2883   2.115   4.427   0.131 -2.1741  0.8281  0.6684
  959TIP3    H2 2884   2.144   4.489   0.267  0.4470 -0.9854  0.9979
  960TIP3   OH2 2885   4.420   5.468   1.401 -0.1713  0.2245 -0.4286
  960TIP3    H1 2886   4.353   5.507   1.345 -0.8607 -0.3320 -0.0011
  960TIP3    H2 2887   4.485   5.433   1.339 -0.7948 -0.1511 -0.8860
  961TIP3   OH2 2888   3.594   4.016   3.067 -0.4029 -0.4101  0.6816
  961TIP3    H1 2889   3.503   4.042   3.057  0.0362  0.3692 -2.3481
  961TIP3    H2 2890   3.604   3.937   3.013  0.6306 -0.6680  1.2123
  962TIP3   OH2 2891   3.009   4.912   2.546  0.3609  0.0616 -0.3460
  962TIP3    H1 2892   3.049   4.834   2.584  0.0869  0.1366  0.1107
  962TIP3    H2 2893   2.915   4.897   2.554  0.3015  0.7523  0.4323
  963TIP3   OH2 2894   2.333   0.844   3.192  0.0482  0.2962  0.0644
  963TIP3    H1 2895   2.251   0.797   3.201  0.0160  0.2366 -0.5268
  963TIP3    H2 2896   2.335   0.872   3.101 -0.0413  1.6434  0.4562
  964TIP3   OH2 2897   4.117   5.995   5.033  0.2635  0.2463 -0.5054
  964TIP3    H1 2898   4.128   5.989   5.128  1.0125  0.5767 -0.5592
  964TIP3    H2 2899   4.098   5.906   5.004 -1.6429  0.4012  0.1349
  965TIP3   OH2 2900   3.786   4.584   5.064  0.1829 -0.0185 -0.7011
  965TIP3    H1 2901   3.847   4.609   5.133  0.6620  0.4918 -1.2962
  965TIP3    H2 2902   3.729   4.660   5.053 -1.2153 -0.8453  0.5184
  966TIP3   OH2 2903   0.148   0.098   4.519  0.1569  0.3835  0.3972
  966TIP3    H1 2904   0.099   0.019   4.539 -2.8993  1.9752 -0.1512
  966TIP3    H2 2905   0.119   0.162   4.584  1.6575  1.3979  0.1225
  967TIP3   OH2 2906   4.569   2.268   4.070  0.2740  0.8588 -0.2896
  967TIP3    H1 2907   4.612   2.301   4.148  0.1215 -0.3807  0.3438
  967TIP3    H2 2908   4.478   2.255   4.096 -0.4765  3.0311 -1.4861
  968TIP3   OH2 2909   5.623   4.662   0.330  0.2554 -0.4316  0.2717
  968TIP3    H1 2910   5.673   4.719   0.272 -0.8417  1.8362  1.4363
  968TIP3    H2 2911   5.674   4.581   0.334  1.0465 -0.2176 -2.7339
  969TIP3   OH2 2912   4.454   0.882   0.909 -0.4695  1.1280  0.3532
  969TIP3    H1 2913   4.501   0.848   0.985  0.5862  2.3934  0.3105
  969TIP3    H2 2914   4.518   0.938   0.865 -1.3882  1.2451 -0.8922
  970TIP3   OH2 2915   0.574   1.844   4.461 -0.1307 -0.5509  0.0667
  970TIP3    H1 2916   0.564   1.762   4.509  0.4529 -0.4305  0.4047
  970TIP3    H2 2917   0.495   1.894   4.482 -0.1233 -0.7117  0.4867
  971TIP3   OH2 2918   2.913   2.473   2.694  0.3215 -0.6104 -0.3363
  971TIP3    H1 2919   2.852   2.535   2.653 -1.0787 -0.8817  1.2231
  971TIP3    H2 2920   2.980   2.458   2.628 -1.1221 -0.0238 -2.0132
  972TIP3   OH2 2921   5.573   3.894   2.033  0.3320 -0.4811 -0.0815
  972TIP3    H1 2922   5.639   3.914   1.967  0.5613  2.0942  0.8130
  972TIP3    H2 2923   5.503   3.958   2.017  0.2216 -0.0468  1.8625
  973TIP3   OH2 2924   3.975   2.891   5.174  0.0690  0.0898 -0.1600
  973TIP3    H1 2925   4.037   2.931   5.112  1.2081 -0.8368  0.3317
  973TIP3    H2 2926   3.889   2.917   5.142  0.5306 -1.0947 -2.7288
  974TIP3   OH2 2927   1.570   1.587   2.729  0.4988 -0.9254 -0.7189
  974TIP3    H1 2928   1.550   1.584   2.636 -0.7746  0.1221 -0.5043
  974TIP3    H2 2929   1.654   1.541   2.737  0.3066 -1.6044 -2.2759
  975TIP3   OH2 2930   3.658   0.557   2.163 -0.2840 -0.0571 -0.6868
  975TIP3    H1 2931   3.588   0.623   2.160 -0.5012 -0.2974 -2.5206
  975TIP3    H2 2932   3.625   0.489   2.221  0.2238  1.6702  1.8039
  976TIP3   OH2 2933   0.802   3.268   0.185 -0.2119  0.0315 -0.0192
  976TIP3    H1 2934   0.759   3.321   0.118 -1.9202 -0.9702  0.2203
  976TIP3    H2 2935   0.835   3.192   0.137 -2.0337 -1.0219  0.3204
  977TIP3   OH2 2936   0.988   3.231   1.605 -0.5974  0.2469  0.0881
  977TIP3    H1 2937   0.913   3.286   1.628 -1.3141 -0.9767  0.7752
  977TIP3    H2 2938   1.004   3.249   1.513 -0.5066  1.9382  0.3877
  978TIP3   OH2 2939   1.858   5.268   0.097 -0.2013  0.3925 -0.0678
  978TIP3    H1 2940   1.896   5.190   0.057 -0.7973  0.9167 -1.7348
  978TIP3    H2 2941   1.911   5.283   0.175  1.9867  0.1728 -1.4195
  979TIP3   OH2 2942   1.838   4.563   1.876  0.6893  0.4227 -0.3686
  979TIP3    H1 2943   1.855   4.472   1.898  1.0156  0.7930  1.0718
  979TIP3    H2 2944   1.902   4.612   1.928  0.7168  1.4562 -1.3502
  980TIP3   OH2 2945   4.769   4.646   1.455  0.2870  0.0105  0.2288
  980TIP3    H1 2946   4.837   4.704   1.421  0.2143 -0.1114 -0.1254
  980TIP3    H2 2947   4.687   4.691   1.435  0.2529  0.0911  0.5328
  981TIP3   OH2 2948   0.923   1.544   3.890 -0.1891 -0.1469 -0.1839
  981TIP3    H1 2949   0.933   1.586   3.805  0.1253 -3.0479 -1.7020
  981TIP3    H2 2950   0.930   1.451   3.872 -1.0595 -0.9416  2.9214
  982TIP3   OH2 2951   1.760   3.993   2.839 -0.1522  0.1969 -0.5577
  982TIP3    H1 2952   1.802   3.921   2.886 -0.8945 -0.0353 -0.2392
  982TIP3    H2 2953   1.824   4.064   2.843 -0.2863  0.2690  1.0458
  983TIP3   OH2 2954   2.587   4.132   0.182 -0.3873  0.4712  0.0233
  983TIP3    H1 2955   2.601   4.225   0.162 -2.1792  0.4640 -1.5596
  983TIP3    H2 2956   2.675   4.098   0.201  0.2530  2.5654  1.1415
  984TIP3   OH2 2957   0.737   0.853   4.860 -0.0579  0.3580 -0.7950
  984TIP3    H1 2958   0.782   0.881   4.939 -0.8228 -0.4262 -0.0545
  984TIP3    H2 2959   0.801   0.864   4.790  1.3333 -0.8829  0.2373
  985TIP3   OH2 2960   1.483   3.025   3.065 -0.0808 -0.2080 -0.0975
  985TIP3    H1 2961   1.419   2.979   3.010  0.3373 -0.4544 -0.3889
  985TIP3    H2 2962   1.556   2.963   3.073  0.3427  0.2684 -0.2054
  986TIP3   OH2 2963   4.067   2.243   3.351  0.4746  0.3123  0.1288
  986TIP3    H1 2964   4.080   2.328   3.307  1.2257  1.0261  1.6522
  986TIP3    H2 2965   3.971   2.234   3.356  0.3584  1.5455  0.7609
  987TIP3   OH2 2966   0.990   4.704   0.924  0.3776  0.2683 -0.4033
  987TIP3    H1 2967   0.962   4.614   0.911 -0.8535  0.4979  0.4306
  987TIP3    H2 2968   1.027   4.731   0.840  0.4861 -0.9065 -0.7455
  988TIP3   OH2 2969   6.054   4.930   2.527 -0.2762  0.0299  0.4227
  988TIP3    H1 2970   6.010   4.977   2.598  0.5537 -1.6305  2.1379
  988TIP3    H2 2971   6.034   4.838   2.544  3.9138 -0.8910  1.4925
  989TIP3   OH2 2972   4.722   5.772   4.395  0.1257  0.3384  0.3144
  989TIP3    H1 2973   4.760   5.697   4.441  0.1589 -0.0272 -0.2866
  989TIP3    H2 2974   4.677   5.822   4.462  2.1426  1.1004  1.1730
  990TIP3   OH2 2975   4.796   2.753   4.183 -0.2543 -0.5216 -0.3227
  990TIP3    H1 2976   4.785   2.734   4.276  1.3319  1.1573  0.2772
  990TIP3    H2 2977   4.885   2.787   4.176 -0.2894 -0.7340 -2.5015
  991TIP3   OH2 2978   2.719   1.433   3.654 -0.7762  0.0749 -0.0058
  991TIP3    H1 2979   2.713   1.345   3.691  0.4481  0.0046  0.0658
  991TIP3    H2 2980   2.812   1.448   3.642 -0.9926  1.1895 -0.4628
  992TIP3   OH2 2981   4.825   4.274   4.182 -0.2889  0.1512 -0.3053
  992TIP3    H1 2982   4.793   4.304   4.267  1.3543 -0.3543  0.5154
  992TIP3    H2 2983   4.920   4.274   4.190 -0.0452  1.0968 -2.5020
  993TIP3   OH2 2984   5.216   2.053   0.833  0.5718  0.2577  0.2365
  993TIP3    H1 2985   5.285   2.071   0.769  1.2149 -0.1053  0.8154
  993TIP3    H2 2986   5.165   1.982   0.794  1.0168 -0.0240  0.1636
  994TIP3   OH2 2987   4.793   0.394   2.113  0.5958 -0.1900  0.2225
  994TIP3    H1 2988   4.722   0.454   2.092  1.8046  1.2667  0.1304
  994TIP3    H2 2989   4.834   0.432   2.190  2.0556 -0.2669 -0.4844
  995TIP3   OH2 2990   4.960   3.329   3.683 -0.0242 -0.3122 -0.2494
  995TIP3    H1 2991   5.030   3.270   3.654 -0.2830 -0.7461  0.0137
  995TIP3    H2 2992   5.001   3.382   3.752  0.8294  1.2418 -1.8459
  996TIP3   OH2 2993   3.832   0.416   0.304 -0.1339 -0.1230  0.5244
  996TIP3    H1 2994   3.830   0.511   0.292  0.3898 -0.0221  1.1513
  996TIP3    H2 2995   3.752   0.397   0.352  0.4225  0.1979  1.6143
  997TIP3   OH2 2996   4.972   1.360   4.423 -0.3605 -0.4790  0.3909
  997TIP3    H1 2997   5.001   1.450   4.409 -0.2436 -0.2130  2.1024
  997TIP3    H2 2998   5.010   1.335   4.507 -2.1469 -1.3553  1.0121
  998TIP3   OH2 2999   1.313   0.660   4.762 -0.1245  0.5999 -0.1214
  998TIP3    H1 3000   1.374   0.733   4.752  0.9692 -0.2604  0.1966
  998TIP3    H2 3001   1.343   0.595   4.699 -0.3711 -0.0638  0.4451
  999TIP3   OH2 3002   6.006   1.237   5.113 -0.4297 -0.3466  0.0926
  999TIP3    H1 3003   5.935   1.275   5.061  1.0639  0.7452 -1.2557
  999TIP3    H2 3004   6.034   1.308   5.170  0.8948 -0.1123 -0.8247
 1000TIP3   OH2 3005   4.873   2.963   0.526  0.0483 -0.4517  0.1187
 1000TIP3    H1 3006   4.907   2.935   0.441  0.2080 -0.5753  0.2213
 1000TIP3    H2 3007   4.823   2.887   0.557 -2.2951  0.5095 -1.0513
 1001TIP3   OH2 3008   4.724   3.395   4.959 -0.3065 -0.5538 -0.1342
 1001TIP3    H1 3009   4.643   3.349   4.938  0.3078 -0.9913 -1.7152
 1001TIP3    H2 3010   4.792   3.345   4.914  0.8686 -0.2720  1.2664
 1002TIP3   OH2 3011   1.250   2.138   5.190  0.1842  0.3492  0.0806
 1002TIP3    H1 3012   1.222   2.052   5.220 -1.2636  0.4069 -1.0015
 1002TIP3    H2 3013   1.302   2.120   5.111 -1.4138  0.5100 -1.0473
 1003TIP3   OH2 3014   6.020   5.889   0.274  0.4838  0.4084  0.5567
 1003TIP3    H1 3015   6.067   5.880   0.191 -0.2823  0.3574  0.1192
 1003TIP3    H2 3016   6.003   5.982   0.283 -0.8200  0.2603 -0.1435
 1004TIP3   OH2 3017   6.253   0.952   4.209 -0.1836 -0.0792  0.2633
 1004TIP3    H1 3018   6.176   0.915   4.251 -1.5182  1.1777 -0.9403
 1004TIP3    H2 3019   6.224   0.973   4.120  1.8440 -0.4595 -0.5344
 1005TIP3   OH2 3020   5.145   5.951   0.044 -0.0740 -0.6997 -0.4026
 1005TIP3    H1 3021   5.114   5.933  -0.045  0.5678  3.5639 -1.7203
 1005TIP3    H2 3022   5.214   6.016   0.032  0.7807 -0.7672  3.2258
 1006TIP3   OH2 3023   2.385   5.892   0.751  0.1940  0.1646 -0.3347
 1006TIP3    H1 3024   2.363   5.891   0.657  1.7220 -0.4251 -0.7141
 1006TIP3    H2 3025   2.379   5.801   0.778 -0.7836  0.4007  0.3045
 1007TIP3   OH2 3026   5.069   0.427   0.985  0.1275  0.1667 -0.3208
 1007TIP3    H1 3027   5.088   0.334   0.989 -0.3701  0.1129  0.9350
 1007TIP3    H2 3028   5.058   0.455   1.076  1.1851  1.6470 -0.6014
 1008TIP3   OH2 3029   4.843   3.635   2.899 -0.1856  0.3978 -0.9147
 1008TIP3    H1 3030   4.752   3.608   2.915  0.0311  0.8417  1.4076
 1008TIP3    H2 3031   4.895   3.558   2.923  0.3198  1.9103  3.9268
 1009TIP3   OH2 3032   4.983   0.644   2.717 -0.8747 -0.0740  0.4248
 1009TIP3    H1 3033   5.078   0.658   2.719 -1.0449  1.1648  0.3884
 1009TIP3    H2 3034   4.951   0.684   2.797 -1.5098  0.7277 -0.2118
 1010TIP3   OH2 3035   3.747   4.162   2.723  0.6338 -0.3229 -0.0771
 1010TIP3    H1 3036   3.676   4.105   2.695  0.9308 -0.4391 -0.6115
 1010TIP3    H2 3037   3.815   4.103   2.754 -0.0244 -0.1656  1.7317
 1011TIP3   OH2 3038   5.518   0.534   3.879 -0.0341 -0.2499  0.5914
 1011TIP3    H1 3039   5.534   0.545   3.785 -0.2689 -0.2760  0.5482
 1011TIP3    H2 3040   5.437   0.484   3.884  0.1957 -0.6128  0.8053
 1012TIP3   OH2 3041   2.305   2.603   3.645  0.2400 -0.5953  0.0131
 1012TIP3    H1 3042   2.211   2.623   3.643 -0.1900 -2.3379  0.3403
 1012TIP3    H2 3043   2.321   2.556   3.563  0.5867 -1.2248  0.4329
 1013TIP3   OH2 3044   2.727   4.950   4.185 -0.1501 -0.2913 -0.3815
 1013TIP3    H1 3045   2.665   4.955   4.112 -0.8849  1.1415  0.3018
 1013TIP3    H2 3046   2.748   5.041   4.205  0.6340 -0.6879  0.7106
 1014TIP3   OH2 3047   3.232   1.590   3.935 -0.3525 -0.4266 -0.1910
 1014TIP3    H1 3048   3.182   1.669   3.951  0.1598 -0.5819  2.7425
 1014TIP3    H2 3049   3.181   1.542   3.869 -0.9422  2.0240 -1.6184
 1015TIP3   OH2 3050   2.618   0.303   4.594  0.6286 -0.0546  0.2191
 1015TIP3    H1 3051   2.698   0.257   4.619  0.2686 -1.2615 -0.7517
 1015TIP3    H2 3052   2.576   0.324   4.677  0.6587 -1.7726  0.7033
 1016TIP3   OH2 3053   5.819   1.409   4.545 -0.1624 -0.0762  0.1534
 1016TIP3    H1 3054   5.866   1.330   4.518  0.9310  0.6133 -0.0267
 1016TIP3    H2 3055   5.879   1.454   4.604 -2.4130 -1.4364  3.7659
 1017TIP3   OH2 3056   2.943   2.795   1.145  0.1958  0.0480 -0.3654
 1017TIP3    H1 3057   2.958   2.777   1.052 -0.0302  0.1214 -0.4154
 1017TIP3    H2 3058   2.850   2.776   1.159  0.0621  0.7208 -0.3127
 1018TIP3   OH2 3059   0.270   4.905   3.876  0.1382  0.3427  0.2629
 1018TIP3    H1 3060   0.309   4.911   3.789  0.2261  0.1251  0.2869
 1018TIP3    H2 3061   0.178   4.928   3.862  0.1117  0.1318  0.0794
 1019TIP3   OH2 3062   0.544   5.366  -0.002  0.2109  0.0275 -0.1209
 1019TIP3    H1 3063   0.639   5.372   0.010  0.1722  0.2163  0.0827
 1019TIP3    H2 3064   0.507   5.393   0.081 -0.0238 -0.0906 -0.1843
 1020TIP3   OH2 3065   1.768   4.425   3.520  1.1444 -0.0229 -0.0815
 1020TIP3    H1 3066   1.788   4.513   3.552  0.0467  0.3427 -0.3392
 1020TIP3    H2 3067   1.706   4.439   3.449  0.0638 -1.0430  0.6195
 1021TIP3   OH2 3068   5.761   5.105   1.437 -0.1195  0.0194  0.0770
 1021TIP3    H1 3069   5.798   5.134   1.521  0.4441 -0.5773  0.0364
 1021TIP3    H2 3070   5.689   5.048   1.461 -0.4402  0.4463  0.1511
 1022TIP3   OH2 3071   0.319   4.306   4.657  0.2727  0.4724  0.1914
 1022TIP3    H1 3072   0.320   4.401   4.667  0.8687  0.4468  0.4630
 1022TIP3    H2 3073   0.290   4.273   4.742 -2.8859  0.4659 -0.7569
 1023TIP3   OH2 3074   0.295   1.039   4.363 -0.7459 -0.5976 -0.7209
 1023TIP3    H1 3075   0.323   0.966   4.308 -1.7066 -1.4133 -0.1571
 1023TIP3    H2 3076   0.377   1.080   4.391 -0.1710 -1.6571 -0.7760
 1024TIP3   OH2 3077   1.704   0.262   2.596  0.8006 -0.1632 -0.2312
 1024TIP3    H1 3078   1.763   0.229   2.529  2.2719 -0.0486  0.9542
 1024TIP3    H2 3079   1.692   0.189   2.656  0.5022  0.1064  0.0423
 1025TIP3   OH2 3080   3.393   4.160   4.278 -0.0365  0.1793  0.0660
 1025TIP3    H1 3081   3.356   4.137   4.193 -1.3418  0.9607  0.3881
 1025TIP3    H2 3082   3.333   4.121   4.342  1.6929 -1.6183  0.6894
 1026TIP3   OH2 3083   6.147   0.036   1.527 -0.1496  0.1619 -0.2471
 1026TIP3    H1 3084   6.070  -0.012   1.560 -1.1115  1.7488 -0.0545
 1026TIP3    H2 3085   6.110   0.114   1.486  1.3535  0.7133 -0.6078
 1027TIP3   OH2 3086   5.544   3.142   3.017 -0.2954 -0.2708  0.7580
 1027TIP3    H1 3087   5.579   3.214   2.964  0.9176 -1.1332  0.3370
 1027TIP3    H2 3088   5.477   3.183   3.072 -1.2332  0.7368 -1.0630
 1028TIP3   OH2 3089   2.103   2.832   0.732 -0.3852 -0.4203  0.9468
 1028TIP3    H1 3090   2.024   2.785   0.705  0.0675 -0.9737  0.5710
 1028TIP3    H2 3091   2.080   2.925   0.722 -0.6983 -0.5853 -0.0361
 1029TIP3   OH2 3092   0.028   5.702   3.531 -0.3923 -0.5105 -0.0730
 1029TIP3    H1 3093   0.044   5.638   3.461  0.1069 -0.4030 -0.0620
 1029TIP3    H2 3094   0.115   5.739   3.550 -0.5476 -0.4263  0.4932
 1030TIP3   OH2 3095   4.663   2.801   0.972  0.2018 -0.2205 -0.0805
 1030TIP3    H1 3096   4.571   2.811   0.999 -0.1340  0.6368 -1.4265
 1030TIP3    H2 3097   4.670   2.710   0.944 -0.7313  0.1354 -1.5907
 1031TIP3   OH2 3098   4.626   3.213   1.917 -0.5300 -0.4157  0.2073
 1031TIP3    H1 3099   4.530   3.220   1.910 -0.7012 -1.2094  1.3828
 1031TIP3    H2 3100   4.641   3.121   1.940  0.5605 -0.4196 -0.4772
 1032TIP3   OH2 3101   6.180   2.871   1.973  0.3891 -0.2893 -0.6952
 1032TIP3    H1 3102   6.246   2.878   1.904  0.3460 -0.4561 -0.7548
 1032TIP3    H2 3103   6.194   2.948   2.028  0.0471  0.1543 -1.2158
 1033TIP3   OH2 3104   1.912   4.020   1.875  0.0627  0.0692 -0.1337
 1033TIP3    H1 3105   1.975   3.956   1.909  0.5361  0.5608 -0.0704
 1033TIP3    H2 3106   1.895   3.991   1.786  0.8308  0.2562 -0.3512
 1034TIP3   OH2 3107   5.104   4.514   1.577  0.4311 -0.1190 -0.1708
 1034TIP3    H1 3108   5.111   4.536   1.484  1.0855  0.8163  0.0877
 1034TIP3    H2 3109   5.144   4.427   1.585  0.1424 -0.3154 -0.7937
 1035TIP3   OH2 3110   1.779   1.102   4.130  0.2764  0.6625  0.1192
 1035TIP3    H1 3111   1.815   1.016   4.108 -1.2092 -0.1399  0.7032
 1035TIP3    H2 3112   1.805   1.116   4.221 -1.7264 -0.4252  0.9132
 1036TIP3   OH2 3113   0.218   0.033   0.102 -0.0884  0.2512  0.0448
 1036TIP3    H1 3114   0.245   0.107   0.156  0.2195  0.4255 -0.3418
 1036TIP3    H2 3115   0.214   0.069   0.013 -0.2319 -0.1242 -0.1023
 1037TIP3   OH2 3116   2.457   1.746   0.346 -0.0369 -0.5914 -0.2232
 1037TIP3    H1 3117   2.428   1.693   0.420 -1.7799 -1.0301 -1.1653
 1037TIP3    H2 3118   2.484   1.683   0.280 -1.4127 -0.3245 -1.0711
 1038TIP3   OH2 3119   2.490   3.835   1.900 -0.7693 -0.2873  0.0896
 1038TIP3    H1 3120   2.483   3.925   1.868 -1.3916 -0.5790 -0.6345
 1038TIP3    H2 3121   2.536   3.842   1.984 -1.2449  0.7524  0.2722
 1039TIP3   OH2 3122   2.118   4.948   3.058  0.1285  0.2928  0.3115
 1039TIP3    H1 3123   2.128   4.853   3.057 -1.3904  0.1162 -0.7475
 1039TIP3    H2 3124   2.098   4.970   3.149  2.0591 -0.1775  0.9003
 1040TIP3   OH2 3125   1.759   2.996   3.536 -0.5313 -0.3653  0.1487
 1040TIP3    H1 3126   1.817   3.071   3.544  1.0527 -1.5751  0.6161
 1040TIP3    H2 3127   1.684   3.017   3.592 -0.7776  1.4026 -0.7758
 1041TIP3   OH2 3128   5.001   0.729   1.867  0.4367 -0.5276  0.5140
 1041TIP3    H1 3129   5.056   0.741   1.944  0.9080  2.1512 -0.1372
 1041TIP3    H2 3130   4.952   0.811   1.859 -1.8011 -1.8552 -0.3906
 1042TIP3   OH2 3131   0.520   2.443   0.617  0.5646  0.1942 -0.2517
 1042TIP3    H1 3132   0.558   2.524   0.648 -1.0820  1.6370 -1.7872
 1042TIP3    H2 3133   0.446   2.427   0.676 -0.3116  0.9375 -1.1027
 1043TIP3   OH2 3134   4.832   3.871   2.763  0.0354 -0.0768 -0.6473
 1043TIP3    H1 3135   4.911   3.922   2.785  0.1463 -0.0370 -1.1320
 1043TIP3    H2 3136   4.846   3.786   2.806  1.4207 -0.8984 -2.5944
 1044TIP3   OH2 3137   5.934   3.378   0.938  0.2431 -0.4182  0.3793
 1044TIP3    H1 3138   5.881   3.445   0.982  0.9053  1.5891 -1.6630
 1044TIP3    H2 3139   5.872   3.308   0.919 -1.1410  0.7885  0.2024
 1045TIP3   OH2 3140   3.092   0.609   2.503  0.2257  0.3034  0.1430
 1045TIP3    H1 3141   3.037   0.674   2.459  0.7610  1.0532  0.5643
 1045TIP3    H2 3142   3.032   0.564   2.563 -0.5411 -0.8180 -1.4010
 1046TIP3   OH2 3143   3.394   1.460   3.009  0.5154 -0.3437  0.0798
 1046TIP3    H1 3144   3.354   1.466   2.922  0.4595 -1.0668  0.0525
 1046TIP3    H2 3145   3.347   1.389   3.052 -1.2439  1.6363  1.6416
 1047TIP3   OH2 3146   3.315   2.285   1.437 -0.4102 -0.4139  0.5986
 1047TIP3    H1 3147   3.313   2.343   1.361 -0.1089 -1.4514 -0.2368
 1047TIP3    H2 3148   3.281   2.202   1.404  2.5679 -1.8342  0.7358
 1048TIP3   OH2 3149   4.228   5.126   1.400  0.5595  0.2902 -0.6408
 1048TIP3    H1 3150   4.141   5.122   1.439  2.0695  0.1893  3.1158
 1048TIP3    H2 3151   4.212   5.129   1.306 -3.4727  0.9680 -0.0970
 1049TIP3   OH2 3152   2.479   4.106   2.041  0.1995 -0.3745 -0.2247
 1049TIP3    H1 3153   2.573   4.110   2.027  0.3496  1.0588  0.9150
 1049TIP3    H2 3154   2.468   4.038   2.108  0.6520  0.7386  1.0243
 1050TIP3   OH2 3155   3.397   4.796   2.713  0.1931 -0.8393 -0.1461
 1050TIP3    H1 3156   3.433   4.767   2.628 -1.2527  1.7110 -1.7576
 1050TIP3    H2 3157   3.384   4.715   2.762  0.0313 -2.5625 -2.8024
 1051TIP3   OH2 3158   0.466   1.557   2.170  0.5676  0.3847 -0.0110
 1051TIP3    H1 3159   0.456   1.623   2.101  0.8096  0.4239 -0.0080
 1051TIP3    H2 3160   0.515   1.601   2.239 -1.1728  0.9115  0.9483
 1052TIP3   OH2 3161   1.025   2.294   0.921 -0.0008  0.0876 -0.3567
 1052TIP3    H1 3162   1.065   2.322   0.838  0.8953 -0.8523 -0.2721
 1052TIP3    H2 3163   1.097   2.298   0.984 -0.4640 -0.0358  0.1841
 1053TIP3   OH2 3164   2.650   0.728   2.457  0.2609  0.2865 -0.4469
 1053TIP3    H1 3165   2.566   0.763   2.486  1.3423  2.6657 -0.0064
 1053TIP3    H2 3166   2.701   0.719   2.537  0.7815 -0.2090 -0.8276
 1054TIP3   OH2 3167   3.947   2.152   1.650 -0.1982 -0.1001  0.0916
 1054TIP3    H1 3168   3.984   2.066   1.669 -0.2095 -0.1212  0.0155
 1054TIP3    H2 3169   3.997   2.185   1.576 -1.4738 -0.8736 -1.1676
 1055TIP3   OH2 3170   5.007   3.175   1.760  0.2046  0.1752 -0.3732
 1055TIP3    H1 3171   4.936   3.231   1.728  1.1921  2.2486  0.8879
 1055TIP3    H2 3172   5.087   3.220   1.732  1.0446 -0.0642  1.5308
 1056TIP3   OH2 3173   3.771   4.136   0.435  0.1343  0.1414  0.0632
 1056TIP3    H1 3174   3.677   4.151   0.427  0.2309  1.7683  1.2974
 1056TIP3    H2 3175   3.792   4.070   0.369 -1.9620 -0.6676  0.1562
 1057TIP3   OH2 3176   3.984   0.653   2.449 -0.0542 -0.1103  0.1707
 1057TIP3    H1 3177   4.057   0.625   2.394 -0.2254  0.0454 -0.1382
 1057TIP3    H2 3178   3.963   0.741   2.419 -0.3117 -0.1176  0.3187
 1058TIP3   OH2 3179   4.605   3.655   0.717 -0.6316 -0.7201  0.6745
 1058TIP3    H1 3180   4.676   3.597   0.745 -2.0627 -1.8492  2.1788
 1058TIP3    H2 3181   4.539   3.597   0.679 -0.5208  0.3782 -1.3534
 1059TIP3   OH2 3182   5.453   0.585   0.139 -0.4531  0.5546 -0.5910
 1059TIP3    H1 3183   5.459   0.571   0.045 -0.5130 -1.3650 -0.3423
 1059TIP3    H2 3184   5.360   0.570   0.159 -0.5114  1.3091 -0.2669
 1060TIP3   OH2 3185   2.756   1.352   0.441 -0.4536  0.0196 -0.4617
 1060TIP3    H1 3186   2.680   1.411   0.443 -0.6773 -0.2667  1.0170
 1060TIP3    H2 3187   2.735   1.287   0.374 -1.3715  0.1317 -0.2902
 1061TIP3   OH2 3188   5.634   3.409   4.200 -0.4126  0.0552 -0.4642
 1061TIP3    H1 3189   5.611   3.474   4.267  0.3978 -0.0485 -0.0764
 1061TIP3    H2 3190   5.726   3.425   4.183 -0.9929  1.2345 -2.8349
 1062TIP3   OH2 3191   4.849   0.173   3.307 -0.2523 -0.0316  0.2053
 1062TIP3    H1 3192   4.827   0.203   3.219  0.4734  1.0907  0.3748
 1062TIP3    H2 3193   4.791   0.223   3.364  2.1544  2.5503  0.6179
 1063TIP3   OH2 3194   2.052   1.790   1.515  0.5632  0.5686 -0.4522
 1063TIP3    H1 3195   2.011   1.803   1.601  2.3785 -1.6891  0.8696
 1063TIP3    H2 3196   2.106   1.868   1.502 -1.5631  2.0689 -0.7454
 1064TIP3   OH2 3197   6.044   3.482   2.721 -0.4205 -0.3513 -0.2221
 1064TIP3    H1 3198   6.107   3.434   2.667  0.8812 -1.7752  2.3645
 1064TIP3    H2 3199   5.992   3.415   2.764 -1.1613  0.7038  0.5965
 1065TIP3   OH2 3200   3.883   1.195   2.910 -0.1094 -0.0138 -0.0439
 1065TIP3    H1 3201   3.875   1.281   2.868 -0.4549 -0.4437 -0.8884
 1065TIP3    H2 3202   3.974   1.191   2.938  0.2691  0.1008 -1.1967
 1066TIP3   OH2 3203   3.402   5.150   0.732  0.0549 -0.1381  0.5870
 1066TIP3    H1 3204   3.452   5.191   0.662 -2.7245  1.2153 -0.7535
 1066TIP3    H2 3205   3.454   5.164   0.811  1.6383  1.3986 -0.6697
 1067TIP3   OH2 3206   5.319  -0.012   0.293  0.2147 -0.3434 -0.5489
 1067TIP3    H1 3207   5.414  -0.004   0.306  0.5289 -2.4574 -1.2223
 1067TIP3    H2 3208   5.303   0.032   0.210  0.4576  0.6862 -0.0694
 1068TIP3   OH2 3209   0.241   0.290   4.772  0.2932  0.0236 -0.0826
 1068TIP3    H1 3210   0.279   0.304   4.685  0.5163  0.6993  0.1178
 1068TIP3    H2 3211   0.306   0.326   4.832 -0.2406  0.3293  0.3197
 1069TIP3   OH2 3212   5.479   2.921   2.275 -0.4059 -0.6491 -0.1583
 1069TIP3    H1 3213   5.457   2.856   2.342 -4.3511 -0.4098 -0.9876
 1069TIP3    H2 3214   5.436   2.890   2.196 -1.2727  2.2099 -0.9263
 1070TIP3   OH2 3215   3.465   3.691   3.021 -0.2585  0.3585 -0.3200
 1070TIP3    H1 3216   3.530   3.700   3.091  1.0910 -0.2450 -1.4511
 1070TIP3    H2 3217   3.507   3.730   2.944 -0.6469 -1.3059 -1.4265
 1071TIP3   OH2 3218   4.391   1.245   0.990  0.4167 -0.4327 -0.5808
 1071TIP3    H1 3219   4.410   1.241   0.897 -3.2158  3.5876 -1.8578
 1071TIP3    H2 3220   4.307   1.200   1.000  0.4995 -0.3609  0.6776
 1072TIP3   OH2 3221   3.878   5.667   1.822  0.6554  0.1598 -0.1535
 1072TIP3    H1 3222   3.899   5.760   1.824 -1.0833  0.6483 -1.7443
 1072TIP3    H2 3223   3.869   5.646   1.729 -1.0447 -1.0718  0.2264
 1073TIP3   OH2 3224   5.837   0.107   0.156 -0.1071  0.8877 -0.2943
 1073TIP3    H1 3225   5.871   0.037   0.211 -0.8339 -0.4223 -1.4493
 1073TIP3    H2 3226   5.899   0.112   0.083 -1.9627 -1.1630 -2.1449
 1074TIP3   OH2 3227   3.104   4.650   0.301 -0.0369  0.4022  0.2777
 1074TIP3    H1 3228   3.191   4.667   0.336  0.0278  1.9793 -0.5529
 1074TIP3    H2 3229   3.097   4.708   0.225 -1.3841 -0.5382 -0.3522
 1075TIP3   OH2 3230   0.240   2.058   4.920 -0.5545 -0.5934 -0.6069
 1075TIP3    H1 3231   0.246   1.964   4.903 -1.5619 -0.7474 -0.1843
 1075TIP3    H2 3232   0.220   2.096   4.835 -0.6889 -0.8208 -0.6780
 1076TIP3   OH2 3233   6.241   4.227   2.468 -0.5014  0.5261  0.2480
 1076TIP3    H1 3234   6.235   4.261   2.558 -1.5420 -1.1733  0.8732
 1076TIP3    H2 3235   6.305   4.156   2.473  0.3666  1.2264 -0.6508
 1077TIP3   OH2 3236   3.525   1.928   2.676  0.1159  0.0565 -0.2525
 1077TIP3    H1 3237   3.501   1.841   2.645 -1.2800  0.2364  0.2588
 1077TIP3    H2 3238   3.503   1.987   2.604  0.0190  0.1121 -0.1769
 1078TIP3   OH2 3239   3.313   1.911   4.786  0.1391  0.2175  0.1075
 1078TIP3    H1 3240   3.280   1.992   4.825  1.5760  0.2457  1.3636
 1078TIP3    H2 3241   3.268   1.841   4.832 -0.4941  0.2744 -0.4084
 1079TIP3   OH2 3242   5.969   0.645   2.683  0.2585 -0.5501 -0.1723
 1079TIP3    H1 3243   5.922   0.694   2.750 -0.9410  0.3697 -1.6386
 1079TIP3    H2 3244   6.060   0.644   2.713 -0.0241  0.9827  0.8021
 1080TIP3   OH2 3245   5.146   3.322   2.192  0.8754  0.5022 -0.0320
 1080TIP3    H1 3246   5.111   3.255   2.134  0.3813 -0.3322  1.1844
 1080TIP3    H2 3247   5.218   3.279   2.238  0.5380  0.7650  0.7762
 1081TIP3   OH2 3248   2.144   3.390   0.270  0.7930  0.2382 -0.6565
 1081TIP3    H1 3249   2.081   3.340   0.320 -0.5800  1.3476 -1.2175
 1081TIP3    H2 3250   2.173   3.331   0.201  1.3349 -0.6914  0.3342
 1082TIP3   OH2 3251   1.985   0.946   2.014 -0.1554 -0.3607 -0.0506
 1082TIP3    H1 3252   2.013   0.948   1.922 -0.0349 -1.9321 -0.0815
 1082TIP3    H2 3253   2.014   1.030   2.049  1.9951 -0.6893 -0.8529
 1083TIP3   OH2 3254   0.749   4.759   0.675  0.0462  0.2180  0.0152
 1083TIP3    H1 3255   0.721   4.668   0.665  1.9228 -0.3576 -0.3264
 1083TIP3    H2 3256   0.820   4.770   0.612  0.0190  1.8532  0.2217
 1084TIP3   OH2 3257   3.951   5.949   3.584 -0.4427  0.8295  0.7392
 1084TIP3    H1 3258   4.014   6.012   3.619  0.1933  0.0437  1.0436
 1084TIP3    H2 3259   3.935   5.888   3.656  1.3523 -1.1782 -0.4430
 1085TIP3   OH2 3260   1.118   4.986   2.956  0.0806 -0.0327  0.3115
 1085TIP3    H1 3261   1.211   4.962   2.956  0.4814  1.3991  0.1939
 1085TIP3    H2 3262   1.094   4.989   3.048  0.2573 -0.0628  0.3587
 1086TIP3   OH2 3263   2.002   5.363   0.722  0.0259  0.1110 -0.2534
 1086TIP3    H1 3264   1.908   5.343   0.715 -0.1753  0.4353  1.1471
 1086TIP3    H2 3265   2.005   5.458   0.731  0.6328  0.2810 -2.0395
 1087TIP3   OH2 3266   1.593   1.098   3.249 -0.1313  0.0075 -0.0437
 1087TIP3    H1 3267   1.617   1.050   3.170 -1.0898 -0.0607 -0.3161
 1087TIP3    H2 3268   1.521   1.155   3.221 -0.2102  0.2832  0.6844
 1088TIP3   OH2 3269   1.448   5.348   2.583 -0.0573 -0.3228  0.2285
 1088TIP3    H1 3270   1.479   5.388   2.664  0.0765 -0.1353  0.0841
 1088TIP3    H2 3271   1.433   5.421   2.523  0.4919 -0.5075 -0.1403
 1089TIP3   OH2 3272   4.623   2.290   1.202 -0.3855 -0.0563  0.3818
 1089TIP3    H1 3273   4.618   2.260   1.111 -2.1823  0.3855  0.2894
 1089TIP3    H2 3274   4.546   2.346   1.213  0.9848  1.6862  1.5581
 1090TIP3   OH2 3275   0.235   4.324   0.432 -0.8404 -0.8000 -0.5450
 1090TIP3    H1 3276   0.222   4.360   0.345  0.2384  0.1903 -0.3193
 1090TIP3    H2 3277   0.188   4.384   0.490 -0.2669 -0.5736 -0.3056
 1091TIP3   OH2 3278   4.466   5.368   5.086  1.1510 -0.5006 -0.8939
 1091TIP3    H1 3279   4.487   5.461   5.080 -1.0641  0.2449  1.5506
 1091TIP3    H2 3280   4.371   5.365   5.098  1.1944 -3.0797 -0.6501
 1092TIP3   OH2 3281   0.469   2.385   0.343  0.1815  0.4566  0.0609
 1092TIP3    H1 3282   0.492   2.432   0.423  0.3483  0.4781  0.0010
 1092TIP3    H2 3283   0.551   2.379   0.294  0.0871  0.4168 -0.0943
 1093TIP3   OH2 3284   1.063   5.795   0.277  0.2434 -0.2228  0.3345
 1093TIP3    H1 3285   1.145   5.759   0.244 -0.0628 -1.6318  1.0455
 1093TIP3    H2 3286   1.064   5.887   0.248  1.6724 -0.4298 -0.3667
 1094TIP3   OH2 3287   6.311   3.336   1.976  0.2558 -0.0743 -0.1428
 1094TIP3    H1 3288   6.297   3.327   1.882 -0.4549  1.5791 -0.2201
 1094TIP3    H2 3289   6.237   3.290   2.016  0.7427 -1.0818 -0.3531
 1095TIP3   OH2 3290   2.922   2.935   2.122 -0.1063  0.1929  0.4749
 1095TIP3    H1 3291   2.890   2.941   2.031  2.1066 -0.1663 -0.3940
 1095TIP3    H2 3292   3.010   2.973   2.118  0.1008 -0.0191  2.4525
 1096TIP3   OH2 3293   6.115   2.679   0.605  0.3015  0.1375 -0.5723
 1096TIP3    H1 3294   6.171   2.620   0.555  0.8888 -0.4790  0.7681
 1096TIP3    H2 3295   6.145   2.669   0.696 -1.1131  0.7817 -0.0123
 1097TIP3   OH2 3296   1.358   4.368   2.160 -0.4670 -0.5071 -0.1857
 1097TIP3    H1 3297   1.373   4.280   2.126  1.3367  0.0813 -0.9982
 1097TIP3    H2 3298   1.263   4.373   2.172 -0.6561 -2.3400 -0.7087
 1098TIP3   OH2 3299   4.785   1.258   1.350 -0.0008  0.1836 -0.3436
 1098TIP3    H1 3300   4.777   1.213   1.434  0.9447  1.9920  0.7872
 1098TIP3    H2 3301   4.716   1.220   1.296  0.3684 -2.1753  0.6809
 1099TIP3   OH2 3302   3.199   1.603   4.252 -0.5268 -0.5473 -0.5321
 1099TIP3    H1 3303   3.247   1.615   4.169  2.8797 -1.8792  1.0359
 1099TIP3    H2 3304   3.265   1.570   4.313 -3.1994 -0.9783  2.3903
 1100TIP3   OH2 3305   2.972   4.886   1.477 -0.4692 -0.5522 -0.3174
 1100TIP3    H1 3306   2.952   4.966   1.429  1.0125 -0.0738 -0.1870
 1100TIP3    H2 3307   3.064   4.868   1.458 -0.7851 -2.3043 -0.4318
 1101TIP3   OH2 3308   5.595   0.121   4.253 -0.1106  0.0111 -0.0399
 1101TIP3    H1 3309   5.608   0.215   4.239 -1.7960  0.1803 -0.7553
 1101TIP3    H2 3310   5.615   0.107   4.346 -0.4381  1.2010  0.2251
 1102TIP3   OH2 3311   4.351   3.172   3.339 -0.7871 -0.0018  0.0302
 1102TIP3    H1 3312   4.324   3.166   3.431 -1.3650 -2.4101 -0.2323
 1102TIP3    H2 3313   4.303   3.247   3.304 -0.0327  1.3993  1.8126
 1103TIP3   OH2 3314   4.809   5.657   3.195  0.0153  0.6474  0.0175
 1103TIP3    H1 3315   4.863   5.726   3.235 -0.7313  0.3474  1.6009
 1103TIP3    H2 3316   4.743   5.637   3.260 -1.2942  0.1363 -1.4068
 1104TIP3   OH2 3317   4.646   0.540   0.737 -0.3222  0.7826  0.4864
 1104TIP3    H1 3318   4.626   0.463   0.683 -0.7354  0.9348  0.4182
 1104TIP3    H2 3319   4.627   0.513   0.827 -1.9642  1.2711  0.3222
 1105TIP3   OH2 3320   2.605   4.168   1.784 -0.2777  0.0066  0.3229
 1105TIP3    H1 3321   2.684   4.160   1.730 -0.4654  0.6618 -0.0585
 1105TIP3    H2 3322   2.619   4.249   1.834  0.4373 -1.1936  2.1797
 1106TIP3   OH2 3323   3.796   2.992   3.569 -0.1984 -0.1837  0.1705
 1106TIP3    H1 3324   3.811   3.014   3.477  0.6929  0.0264  0.3531
 1106TIP3    H2 3325   3.808   3.075   3.616  0.5007 -0.5160  0.5902
 1107TIP3   OH2 3326   5.804   3.432   0.023  0.1623  0.2993 -0.0900
 1107TIP3    H1 3327   5.773   3.345   0.002  3.0630 -1.0805  0.7780
 1107TIP3    H2 3328   5.787   3.443   0.117  2.4483 -0.6911  0.5239
 1108TIP3   OH2 3329   2.962   3.922   0.465  0.6054 -0.0722  0.6502
 1108TIP3    H1 3330   3.009   3.876   0.534 -1.0904  0.7598  2.4714
 1108TIP3    H2 3331   2.872   3.892   0.473  0.7164 -1.8602 -2.9347
 1109TIP3   OH2 3332   4.779   2.919   4.999 -0.0239  0.1193 -0.3030
 1109TIP3    H1 3333   4.712   2.943   5.062  1.3008  0.1370  1.1501
 1109TIP3    H2 3334   4.763   2.826   4.981 -2.5237  0.8611 -2.6869
 1110TIP3   OH2 3335   3.830   2.025   4.360 -0.9172  0.2711  0.5118
 1110TIP3    H1 3336   3.776   2.028   4.440 -1.1145  0.4024  0.3745
 1110TIP3    H2 3337   3.780   2.076   4.296  0.0583  1.6463  0.7933
 1111TIP3   OH2 3338   1.608   4.170   4.989  0.2051 -0.1928 -0.1522
 1111TIP3    H1 3339   1.595   4.190   4.896 -0.9827  0.3741  0.1083
 1111TIP3    H2 3340   1.520   4.150   5.022  0.6079 -0.3958  0.8429
 1112TIP3   OH2 3341   1.797   1.929   2.762  0.8245 -0.3285 -0.1982
 1112TIP3    H1 3342   1.724   1.982   2.731  0.4964 -0.7702 -0.2015
 1112TIP3    H2 3343   1.788   1.846   2.714  0.0530 -1.1860  1.3542
 1113TIP3   OH2 3344   3.449   5.372   2.421  0.0983 -0.1656  0.5260
 1113TIP3    H1 3345   3.430   5.412   2.506  0.5997  1.3244 -0.0402
 1113TIP3    H2 3346   3.544   5.373   2.415  0.0367  2.2243 -1.1479
 1114TIP3   OH2 3347   1.142   4.973   0.057  0.1121 -0.1099  0.1018
 1114TIP3    H1 3348   1.219   4.950   0.110  0.1170 -1.3532 -0.4000
 1114TIP3    H2 3349   1.069   4.972   0.119  0.4243  0.5300  0.4777
 1115TIP3   OH2 3350   0.222   1.945   1.887  0.4988 -0.1578  0.3688
 1115TIP3    H1 3351   0.208   1.852   1.904  2.8024 -0.1684  2.9174
 1115TIP3    H2 3352   0.145   1.989   1.922 -0.2430 -1.0106 -0.1445
 1116TIP3   OH2 3353   0.869   1.511   2.549 -0.4772  0.2602  0.0146
 1116TIP3    H1 3354   0.822   1.591   2.573  0.4263  0.3625  1.5907
 1116TIP3    H2 3355   0.839   1.492   2.460 -2.5188  1.0142  0.4665
 1117TIP3   OH2 3356   3.611   4.111   1.425  0.4915  0.3762  0.1566
 1117TIP3    H1 3357   3.575   4.184   1.376 -0.2996 -0.0520  0.0905
 1117TIP3    H2 3358   3.536   4.070   1.467  0.9125 -0.4409  0.1381
 1118TIP3   OH2 3359   4.547   4.592   3.594  0.4001  0.0833 -0.3546
 1118TIP3    H1 3360   4.593   4.670   3.626  1.4164 -0.9759  0.8885
 1118TIP3    H2 3361   4.467   4.590   3.646  1.0510 -0.4650  0.6598
 1119TIP3   OH2 3362   5.457   0.294   0.320 -0.3353 -0.0029  0.3900
 1119TIP3    H1 3363   5.512   0.216   0.332  0.6468  0.4961 -0.6691
 1119TIP3    H2 3364   5.399   0.271   0.248  1.3924  0.9408 -1.3938
 1120TIP3   OH2 3365   3.536   3.710   1.457 -0.2102  0.0592  0.1130
 1120TIP3    H1 3366   3.484   3.762   1.396 -0.2259  0.2778  0.3111
 1120TIP3    H2 3367   3.566   3.635   1.406 -2.2584 -1.0532  0.4443
 1121TIP3   OH2 3368   4.781   0.614   4.843 -0.0111 -0.8903  0.3565
 1121TIP3    H1 3369   4.818   0.526   4.853  0.9825 -0.3315  1.9594
 1121TIP3    H2 3370   4.856   0.668   4.817 -0.2586 -0.2409  0.9708
 1122TIP3   OH2 3371   5.265   4.258   0.637  0.5413 -0.0565 -0.1868
 1122TIP3    H1 3372   5.185   4.222   0.598 -0.1181  0.0553  1.0240
 1122TIP3    H2 3373   5.272   4.216   0.722  1.7957 -0.0677 -0.2733
 1123TIP3   OH2 3374   0.515   0.643   3.597 -0.1043 -0.4037  0.3563
 1123TIP3    H1 3375   0.438   0.590   3.579 -0.0267 -0.0017 -1.2225
 1123TIP3    H2 3376   0.481   0.732   3.610  0.0159 -0.3785  0.5040
 1124TIP3   OH2 3377   2.608   5.342   3.513  0.3091 -0.4830 -0.3416
 1124TIP3    H1 3378   2.565   5.325   3.596 -0.0385  0.5471 -0.2970
 1124TIP3    H2 3379   2.584   5.268   3.457  1.7843 -1.9927  0.9083
 1125TIP3   OH2 3380   4.678   0.662   5.123  0.2600  0.0315 -0.4945
 1125TIP3    H1 3381   4.765   0.626   5.105 -0.4736 -2.6927  0.8468
 1125TIP3    H2 3382   4.623   0.585   5.140 -1.5533  1.7610  2.3798
 1126TIP3   OH2 3383   2.442   6.001   3.951 -0.3195 -0.1291  0.4507
 1126TIP3    H1 3384   2.353   6.009   3.985 -0.6026  3.5844 -0.7356
 1126TIP3    H2 3385   2.432   5.953   3.869 -0.9043 -1.4506  1.2746
 1127TIP3   OH2 3386   1.281   4.859   4.171  0.0896  0.7404 -0.1638
 1127TIP3    H1 3387   1.196   4.900   4.160  1.0378  2.7405 -0.5777
 1127TIP3    H2 3388   1.310   4.840   4.081 -0.2055 -0.6062  0.0090
 1128TIP3   OH2 3389   6.279   3.301   4.868 -0.0994  0.1228  0.5415
 1128TIP3    H1 3390   6.364   3.324   4.829  0.4533 -1.8731  0.4438
 1128TIP3    H2 3391   6.215   3.342   4.811  0.7688 -0.1528 -0.6781
 1129TIP3   OH2 3392   0.057   4.205   1.742 -0.4886  0.3470  0.3597
 1129TIP3    H1 3393   0.150   4.183   1.747 -0.1174  1.1790 -1.6365
 1129TIP3    H2 3394   0.012   4.131   1.783  1.0074 -0.5850  0.3975
 1130TIP3   OH2 3395   2.037   1.709   4.244  0.0025 -0.6283  0.0227
 1130TIP3    H1 3396   1.978   1.634   4.252 -1.1451  0.0894 -1.3372
 1130TIP3    H2 3397   2.003   1.774   4.306 -1.1040  0.0525 -1.2602
 1131TIP3   OH2 3398   0.293   0.868   3.384  0.2242  0.1471 -0.0648
 1131TIP3    H1 3399   0.300   0.958   3.354 -0.1673  0.1889 -0.0347
 1131TIP3    H2 3400   0.379   0.830   3.367  0.1868  0.3348 -0.6939
 1132TIP3   OH2 3401   0.327   1.253   0.204 -0.0687  0.1639 -0.6782
 1132TIP3    H1 3402   0.321   1.179   0.142 -1.4489 -0.3069 -0.0290
 1132TIP3    H2 3403   0.385   1.222   0.273  0.0199  0.0099 -0.8199
 1133TIP3   OH2 3404   5.187   3.347   2.476  0.6273  0.0414  0.3638
 1133TIP3    H1 3405   5.117   3.288   2.450  0.5925 -0.5140  1.6632
 1133TIP3    H2 3406   5.253   3.290   2.516  0.9299  0.7774  0.9393
 1134TIP3   OH2 3407   0.637   2.457   0.987 -0.1582 -0.4311  0.1337
 1134TIP3    H1 3408   0.543   2.470   0.990  0.0738  1.3193  1.9906
 1134TIP3    H2 3409   0.673   2.544   0.966  1.0924 -0.7311  0.9021
 1135TIP3   OH2 3410   3.616   3.489   1.350 -0.1253 -0.2741 -0.0978
 1135TIP3    H1 3411   3.548   3.425   1.328 -0.6219  0.4521 -0.7431
 1135TIP3    H2 3412   3.666   3.498   1.269 -0.8864  1.1353 -0.4305
 1136TIP3   OH2 3413   5.977   0.814   2.016 -0.0898 -0.6215 -0.5110
 1136TIP3    H1 3414   5.884   0.794   2.020  0.0806 -1.3236  0.1538
 1136TIP3    H2 3415   6.021   0.731   2.035  0.6651 -0.0784  0.2055
 1137TIP3   OH2 3416   4.785   5.105   3.093  0.1050 -0.3395  0.7782
 1137TIP3    H1 3417   4.763   5.123   3.001  1.3068  1.2094  0.7456
 1137TIP3    H2 3418   4.785   5.191   3.134  1.1965 -0.8368  1.8629
 1138TIP3   OH2 3419   6.210   4.834   3.006 -0.1181 -0.3359  0.0943
 1138TIP3    H1 3420   6.122   4.797   3.016 -0.0347 -0.0286  2.2258
 1138TIP3    H2 3421   6.195   4.923   2.973 -0.4641 -0.9529 -1.5565
 1139TIP3   OH2 3422   2.420   3.442   4.890  0.0666 -0.1141  0.9107
 1139TIP3    H1 3423   2.488   3.411   4.950  0.3048 -0.5315  0.4308
 1139TIP3    H2 3424   2.442   3.403   4.806 -1.3982 -1.2137  0.9844
 1140TIP3   OH2 3425   0.694   3.962   3.792  0.2510  0.2171  0.0254
 1140TIP3    H1 3426   0.769   4.012   3.825  2.0942 -2.2600 -0.0863
 1140TIP3    H2 3427   0.667   4.010   3.714  2.5200  0.5826 -0.6216
 1141TIP3   OH2 3428   1.685   1.586   1.395  0.0046 -0.3899 -0.7214
 1141TIP3    H1 3429   1.767   1.636   1.390  0.1002 -0.4780 -0.0613
 1141TIP3    H2 3430   1.623   1.645   1.438  0.0732 -0.7709 -0.0855
 1142TIP3   OH2 3431   2.589   4.841   1.116  0.5420 -0.2063 -0.6130
 1142TIP3    H1 3432   2.654   4.895   1.072 -1.6494  1.2905 -2.2127
 1142TIP3    H2 3433   2.522   4.902   1.146  0.4110 -1.5353  2.1545
 1143TIP3   OH2 3434   4.561   0.645   2.605 -0.1581  0.3154 -0.7217
 1143TIP3    H1 3435   4.517   0.571   2.646  0.5367 -0.3132 -1.0893
 1143TIP3    H2 3436   4.578   0.706   2.676  1.0615 -0.7674 -0.0559
 1144TIP3   OH2 3437   1.751   3.658   2.705  0.4302 -0.2139  0.2290
 1144TIP3    H1 3438   1.753   3.563   2.691 -1.2535 -0.2395 -0.0987
 1144TIP3    H2 3439   1.797   3.671   2.788  0.2866 -1.3755  0.5139
 1145TIP3   OH2 3440   1.762   3.138   1.407 -0.0324 -0.3794 -0.3915
 1145TIP3    H1 3441   1.755   3.045   1.387  1.7022 -0.5618 -0.3556
 1145TIP3    H2 3442   1.701   3.152   1.479 -0.9073 -1.3043 -0.9234
 1146TIP3   OH2 3443   2.228   0.706   2.749  0.0579 -0.0135 -0.2422
 1146TIP3    H1 3444   2.138   0.725   2.723  0.2173  0.2649 -0.5967
 1146TIP3    H2 3445   2.235   0.611   2.746 -0.6128 -0.1309  1.0873
 1147TIP3   OH2 3446   0.349   3.043   3.120  0.0940 -0.0270  0.3673
 1147TIP3    H1 3447   0.391   3.072   3.039 -0.9287  0.4649  0.0006
 1147TIP3    H2 3448   0.266   3.089   3.122  0.0113 -0.1939  1.6027
 1148TIP3   OH2 3449   2.351   2.027   1.274  0.4981  0.6097 -0.3602
 1148TIP3    H1 3450   2.426   2.061   1.322  0.8894  1.1452 -1.3167
 1148TIP3    H2 3451   2.294   1.990   1.341  1.9107 -0.3963  0.3360
 1149TIP3   OH2 3452   3.751   4.252   3.546 -0.6324 -0.2146 -0.4635
 1149TIP3    H1 3453   3.740   4.297   3.462 -1.1579 -2.8272 -1.9148
 1149TIP3    H2 3454   3.665   4.215   3.565  0.1306 -2.0100 -0.2660
 1150TIP3   OH2 3455   4.979   0.670   0.070 -0.2771  0.0592 -0.0826
 1150TIP3    H1 3456   4.920   0.741   0.092 -2.7983 -1.9134 -0.0189
 1150TIP3    H2 3457   4.928   0.612   0.013  1.3710 -2.0489  0.4359
 1151TIP3   OH2 3458   0.268   4.886   1.672  0.1770 -0.3934  0.0557
 1151TIP3    H1 3459   0.326   4.811   1.689 -1.0013 -1.3347  0.0434
 1151TIP3    H2 3460   0.324   4.962   1.684  0.9027 -1.1805  2.3309
 1152TIP3   OH2 3461   1.581   3.610   4.178 -0.5146 -0.6988  0.0104
 1152TIP3    H1 3462   1.598   3.599   4.272 -0.3142  1.0141  0.2187
 1152TIP3    H2 3463   1.658   3.656   4.145 -0.7095 -1.0340 -0.9459
 1153TIP3   OH2 3464   4.383   4.678   1.713  0.3469 -0.5292 -0.1383
 1153TIP3    H1 3465   4.366   4.602   1.769  2.9662 -0.5095  0.8350
 1153TIP3    H2 3466   4.413   4.746   1.773  1.8869 -0.0450 -1.3784
 1154TIP3   OH2 3467   4.634   1.490   3.714  0.4337 -0.2755 -0.2551
 1154TIP3    H1 3468   4.600   1.558   3.656 -0.1443 -0.9742 -0.7619
 1154TIP3    H2 3469   4.729   1.501   3.712  0.3247  0.8062  0.0468
 1155TIP3   OH2 3470   2.341   1.850   2.570 -0.2961  0.2734  0.1445
 1155TIP3    H1 3471   2.311   1.876   2.657 -0.6110  1.1836 -0.2271
 1155TIP3    H2 3472   2.333   1.929   2.517  1.4268  0.1740 -0.3261
 1156TIP3   OH2 3473   4.005   0.801   4.005  0.3343  0.2545  0.1333
 1156TIP3    H1 3474   4.024   0.891   4.031 -0.4957 -0.4495  3.6660
 1156TIP3    H2 3475   3.992   0.754   4.087  0.2518 -3.0252 -1.5823
 1157TIP3   OH2 3476   0.500   2.163   4.574  0.6519  0.1092 -0.3472
 1157TIP3    H1 3477   0.434   2.222   4.610  1.1202  1.3885 -1.5240
 1157TIP3    H2 3478   0.470   2.143   4.486  1.2136 -0.3064 -0.4531
 1158TIP3   OH2 3479   1.536   5.596   4.218 -0.4868  0.9974  0.0267
 1158TIP3    H1 3480   1.460   5.595   4.160 -0.9193  1.5783  0.5719
 1158TIP3    H2 3481   1.586   5.673   4.190  1.4325 -0.9324 -2.2291
 1159TIP3   OH2 3482   3.400   4.736   1.977  0.5530  0.1970  0.6590
 1159TIP3    H1 3483   3.463   4.780   2.034  0.4810  0.7045  0.3557
 1159TIP3    H2 3484   3.374   4.658   2.025  1.6218 -0.1737  0.6674
 1160TIP3   OH2 3485   5.234   0.791   2.752 -0.4559  0.2267  0.2195
 1160TIP3    H1 3486   5.193   0.806   2.837  1.4726  0.5741  1.1428
 1160TIP3    H2 3487   5.262   0.877   2.723 -3.4910  0.5956 -2.1855
 1161TIP3   OH2 3488   3.619   0.500   1.632 -0.1005 -0.6928  0.0806
 1161TIP3    H1 3489   3.664   0.420   1.604 -0.0560 -0.9684  0.8912
 1161TIP3    H2 3490   3.609   0.489   1.727 -1.5557 -0.4826 -0.0196
 1162TIP3   OH2 3491   6.206   0.044   3.211 -0.0413  0.3613  0.7573
 1162TIP3    H1 3492   6.196   0.016   3.120  1.1329  1.2249  0.3455
 1162TIP3    H2 3493   6.223  -0.038   3.259  0.9056  0.0547 -0.0522
 1163TIP3   OH2 3494   0.120   2.373   0.534  0.3639  0.2428  0.2873
 1163TIP3    H1 3495   0.109   2.460   0.495  0.9518 -0.0995 -0.6914
 1163TIP3    H2 3496   0.155   2.320   0.463  0.5853 -0.6475  1.0458
 1164TIP3   OH2 3497   0.701   1.217   4.997  0.2709 -0.4264  0.4410
 1164TIP3    H1 3498   0.653   1.285   4.949  1.1372 -0.5716 -0.6914
 1164TIP3    H2 3499   0.723   1.258   5.081  1.2095  0.8963 -0.4044
 1165TIP3   OH2 3500   6.352   4.927   0.543  0.0228 -0.0857 -0.3351
 1165TIP3    H1 3501   6.327   4.850   0.595 -1.6806 -0.1392 -1.1703
 1165TIP3    H2 3502   6.367   4.995   0.609  1.7873 -1.1493  0.4324
 1166TIP3   OH2 3503   3.051   2.326   4.134  0.0525 -0.3838  0.3028
 1166TIP3    H1 3504   3.142   2.357   4.142  0.1192 -0.6296  0.5226
 1166TIP3    H2 3505   3.012   2.346   4.219 -0.8526  2.0683 -0.6195
 1167TIP3   OH2 3506   3.813   0.801   2.737 -0.5210 -0.1665 -0.0184
 1167TIP3    H1 3507   3.738   0.772   2.684 -0.8570  0.1923  0.2570
 1167TIP3    H2 3508   3.792   0.772   2.826 -0.8371  0.8494  0.2554
 1168TIP3   OH2 3509   5.756   3.460   3.697 -0.4978  0.0877 -0.3284
 1168TIP3    H1 3510   5.672   3.476   3.739  0.0805 -1.3048  1.5115
 1168TIP3    H2 3511   5.821   3.489   3.761  0.4386  0.9293 -1.6230
 1169TIP3   OH2 3512   6.208   3.271   2.603  0.4631 -0.4853  0.1092
 1169TIP3    H1 3513   6.281   3.331   2.591 -0.3313  0.6501  0.8527
 1169TIP3    H2 3514   6.224   3.230   2.688  1.5731 -2.1926 -0.8513
 1170TIP3   OH2 3515   2.535   0.106   2.661  0.0702 -0.2945  0.1152
 1170TIP3    H1 3516   2.597   0.079   2.593  0.0134  1.4255 -0.6687
 1170TIP3    H2 3517   2.573   0.074   2.742  1.5720  0.0173 -0.4374
 1171TIP3   OH2 3518   4.833   5.370   2.302 -0.0428  0.1253  0.5266
 1171TIP3    H1 3519   4.738   5.382   2.297  0.0439  0.4570 -0.7307
 1171TIP3    H2 3520   4.846   5.275   2.309 -0.4894  0.1507  1.8358
 1172TIP3   OH2 3521   2.217   0.168   0.835 -0.0213  0.1652  0.2349
 1172TIP3    H1 3522   2.238   0.249   0.789 -1.5165  1.6281  1.9423
 1172TIP3    H2 3523   2.172   0.114   0.770  3.1629 -0.4604 -1.6594
 1173TIP3   OH2 3524   3.950   2.750   1.563 -0.5761  0.4527  0.6258
 1173TIP3    H1 3525   3.975   2.697   1.639 -0.5486  0.1860  0.4327
 1173TIP3    H2 3526   3.903   2.825   1.600 -0.0309  0.6407  0.9512
 1174TIP3   OH2 3527   3.897   3.732   2.408 -0.2883 -0.3552 -0.2065
 1174TIP3    H1 3528   3.834   3.774   2.466  0.1391  0.7728 -0.5362
 1174TIP3    H2 3529   3.919   3.799   2.343  0.6926 -0.9666 -0.5351
 1175TIP3   OH2 3530   3.361   3.124   1.190  0.0360 -0.2388  0.1438
 1175TIP3    H1 3531   3.393   3.214   1.197 -0.0322 -0.2995  1.3289
 1175TIP3    H2 3532   3.440   3.073   1.174  0.1334 -0.0267 -0.0689
 1176TIP3   OH2 3533   3.502   0.960   2.807 -0.1481 -0.1755 -0.5713
 1176TIP3    H1 3534   3.574   1.002   2.760  1.0980  0.8260  2.0501
 1176TIP3    H2 3535   3.475   1.025   2.872 -1.0162 -1.8690  0.8521
 1177TIP3   OH2 3536   1.533   3.495   3.572  0.4892  0.4444 -0.2121
 1177TIP3    H1 3537   1.513   3.416   3.622  0.4233  1.4278  1.3841
 1177TIP3    H2 3538   1.604   3.537   3.620  0.5885  1.3213 -1.0892
 1178TIP3   OH2 3539   5.452   3.929   0.032  0.0617  0.2685 -0.4728
 1178TIP3    H1 3540   5.462   3.851   0.087  1.7619  1.5636  1.1869
 1178TIP3    H2 3541   5.357   3.937   0.020 -0.1392 -2.8683 -2.0476
 1179TIP3   OH2 3542   4.032   5.111   4.269 -0.0633 -0.4771  0.6393
 1179TIP3    H1 3543   4.062   5.199   4.292 -0.0896 -0.3282  0.1087
 1179TIP3    H2 3544   4.059   5.099   4.178 -0.8139 -0.6855  0.4364
 1180TIP3   OH2 3545   0.704   3.043   0.770  0.3572  0.0754  0.5005
 1180TIP3    H1 3546   0.681   3.042   0.677 -2.3912  1.4522  1.0768
 1180TIP3    H2 3547   0.779   2.983   0.776  0.2838 -0.4935 -2.4820
 1181TIP3   OH2 3548   1.685   4.356   2.449 -0.2113 -0.2840 -0.2401
 1181TIP3    H1 3549   1.591   4.338   2.446 -0.0690 -1.1511 -3.4038
 1181TIP3    H2 3550   1.698   4.426   2.384  1.2604  0.3665  0.7024
 1182TIP3   OH2 3551   3.184   1.771   0.039  0.3314 -0.3078  0.7896
 1182TIP3    H1 3552   3.140   1.726   0.110 -0.4295  1.9528  1.8532
 1182TIP3    H2 3553   3.123   1.840   0.013  1.9736  0.9957  0.2202
 1183TIP3   OH2 3554   6.303   4.613   3.405 -0.3646 -0.0296  0.1003
 1183TIP3    H1 3555   6.355   4.539   3.438  0.9042  0.2371 -1.1892
 1183TIP3    H2 3556   6.240   4.573   3.345  1.6643  0.0022 -2.2389
 1184TIP3   OH2 3557   5.988   4.487   4.720 -0.0338 -0.6010 -0.7517
 1184TIP3    H1 3558   5.946   4.505   4.804  0.2451 -0.1026 -0.7141
 1184TIP3    H2 3559   6.055   4.554   4.712  0.3375 -1.0064 -1.1014
 1185TIP3   OH2 3560   2.494   3.649   1.046 -0.4738  0.0111 -0.0674
 1185TIP3    H1 3561   2.459   3.674   1.132 -1.7931  2.1894 -1.1698
 1185TIP3    H2 3562   2.465   3.718   0.987  3.3267  0.4347 -1.6941
 1186TIP3   OH2 3563   1.626   2.143   2.747 -0.2551 -0.2873 -0.1505
 1186TIP3    H1 3564   1.565   2.207   2.784  0.1388  0.0288 -0.0349
 1186TIP3    H2 3565   1.578   2.102   2.675 -0.9723 -0.7905  0.6013
 1187TIP3   OH2 3566   6.093   4.550   2.056  0.7025 -0.4969 -0.0347
 1187TIP3    H1 3567   6.162   4.616   2.056  0.8205 -0.5809  1.9229
 1187TIP3    H2 3568   6.140   4.466   2.055  0.5601 -0.5922 -1.5518
 1188TIP3   OH2 3569   2.257   1.868   3.195 -0.9837 -0.0585 -0.0781
 1188TIP3    H1 3570   2.351   1.860   3.181 -0.7586  1.9957  0.0324
 1188TIP3    H2 3571   2.243   1.833   3.283 -0.2277  0.1460  0.1322
 1189TIP3   OH2 3572   1.292   2.814   1.753 -0.2492  0.1254 -0.6307
 1189TIP3    H1 3573   1.221   2.778   1.807 -0.8049  1.2914 -0.5488
 1189TIP3    H2 3574   1.350   2.858   1.816  1.3479 -2.0091 -0.5202
 1190TIP3   OH2 3575   6.241   2.312   4.354 -0.4326 -0.3291 -0.2498
 1190TIP3    H1 3576   6.202   2.229   4.381  1.5767 -1.7462 -1.4564
 1190TIP3    H2 3577   6.173   2.356   4.304 -1.3406 -1.4852 -0.0623
 1191TIP3   OH2 3578   5.761   5.316   4.282  0.2341  0.2222 -0.7954
 1191TIP3    H1 3579   5.699   5.386   4.260 -0.7484 -0.2706  0.2720
 1191TIP3    H2 3580   5.837   5.362   4.318 -0.0713  0.7847 -0.8580
 1192TIP3   OH2 3581   0.097   4.711   3.015  0.1101  0.2815  0.7121
 1192TIP3    H1 3582   0.031   4.779   3.027  2.1688  2.0220  3.3173
 1192TIP3    H2 3583   0.156   4.746   2.948  1.6732  1.6608  2.6773
 1193TIP3   OH2 3584   6.175   5.549   1.940  0.3950  0.1688  0.5127
 1193TIP3    H1 3585   6.150   5.472   1.889 -0.6034  0.1820  0.9577
 1193TIP3    H2 3586   6.268   5.562   1.920  0.6861 -1.3730  0.7185
 1194TIP3   OH2 3587   5.441   3.495   3.434 -0.3054 -0.2862 -0.5893
 1194TIP3    H1 3588   5.356   3.529   3.462 -0.5458  0.1089 -1.7206
 1194TIP3    H2 3589   5.496   3.573   3.425  0.3291 -0.5805  0.5701
 1195TIP3   OH2 3590   3.700   5.096   2.246 -0.1154 -0.2904 -0.4618
 1195TIP3    H1 3591   3.701   5.107   2.341 -0.8483 -0.3190 -0.4398
 1195TIP3    H2 3592   3.628   5.151   2.216 -0.7413 -1.2837 -0.8546
 1196TIP3   OH2 3593   5.413   5.018   2.720 -0.1991 -0.1858 -0.5420
 1196TIP3    H1 3594   5.492   4.969   2.745  0.3660  0.2230 -1.4557
 1196TIP3    H2 3595   5.353   4.952   2.686 -1.5067 -0.9687  2.9008
 1197TIP3   OH2 3596   1.441   2.045   3.200 -0.5587  0.2229 -0.3066
 1197TIP3    H1 3597   1.454   1.968   3.145  1.2566 -1.2226  1.9570
 1197TIP3    H2 3598   1.476   2.118   3.149  1.3254 -1.0830 -0.9875
 1198TIP3   OH2 3599   2.689   1.960   4.160  0.0882 -0.3984 -0.2209
 1198TIP3    H1 3600   2.769   1.989   4.204  0.6350 -1.1391 -0.6889
 1198TIP3    H2 3601   2.619   2.011   4.201  0.8366  0.5347 -0.0490
 1199TIP3   OH2 3602   2.616   2.048   2.572  0.2061 -0.3753 -0.4282
 1199TIP3    H1 3603   2.676   2.100   2.625 -2.2307  0.3996  1.8009
 1199TIP3    H2 3604   2.536   2.101   2.567 -1.2549 -2.4843 -0.8681
 1200TIP3   OH2 3605   1.329   0.288   2.365 -0.1339 -0.4446  0.3257
 1200TIP3    H1 3606   1.254   0.332   2.323  0.4024  0.7426  0.5629
 1200TIP3    H2 3607   1.322   0.313   2.457 -0.4970 -1.8838  0.7190
 1201TIP3   OH2 3608   4.460   4.629   3.870 -0.0863  0.0623  0.2493
 1201TIP3    H1 3609   4.384   4.681   3.897 -0.4963 -0.2185 -0.3340
 1201TIP3    H2 3610   4.535   4.686   3.887 -0.5625  1.0573 -0.8047
 1202TIP3   OH2 3611   4.177   4.459   4.705 -0.2674 -0.6042  0.2705
 1202TIP3    H1 3612   4.122   4.490   4.777  0.2240 -0.4103  0.5636
 1202TIP3    H2 3613   4.145   4.506   4.628 -0.4066 -0.3740  0.4686
 1203TIP3   OH2 3614   6.187   3.315   3.798 -0.0688  0.5655 -0.1160
 1203TIP3    H1 3615   6.139   3.253   3.743  2.9522 -0.3939 -1.9198
 1203TIP3    H2 3616   6.260   3.344   3.743  1.1024  2.3910  2.2139
 1204TIP3   OH2 3617   3.281   1.315   4.605  0.2351  0.1617 -0.1685
 1204TIP3    H1 3618   3.192   1.323   4.640  0.2600 -1.1847  0.2672
 1204TIP3    H2 3619   3.270   1.326   4.510 -0.1657  1.4468  0.0017
 1205TIP3   OH2 3620   5.911   3.767   2.840  0.0586 -0.2113 -0.0374
 1205TIP3    H1 3621   5.852   3.769   2.764  0.8936 -2.7944 -0.8743
 1205TIP3    H2 3622   5.877   3.834   2.899 -2.6180 -0.3478 -1.2808
 1206TIP3   OH2 3623   0.203   5.512   2.642 -0.1179  0.1338 -0.3516
 1206TIP3    H1 3624   0.169   5.492   2.729 -0.1296  0.8101 -0.1950
 1206TIP3    H2 3625   0.263   5.440   2.623  0.4273  0.3509  0.5123
 1207TIP3   OH2 3626   0.624   5.689   4.307 -0.8599 -0.1821 -0.5740
 1207TIP3    H1 3627   0.643   5.715   4.397 -1.8520  1.4523 -0.7953
 1207TIP3    H2 3628   0.706   5.708   4.260 -0.6151 -0.2261 -0.1722
 1208TIP3   OH2 3629   3.135   2.024   0.257 -0.4561  0.3839  1.0168
 1208TIP3    H1 3630   3.094   2.105   0.287 -2.7479  0.2613 -1.4631
 1208TIP3    H2 3631   3.070   1.956   0.275 -0.1498 -0.3060 -0.3953
 1209TIP3   OH2 3632   1.040   0.960   3.111 -0.3751  0.1305 -0.1359
 1209TIP3    H1 3633   1.050   0.963   3.206  2.1540 -0.4007 -0.3191
 1209TIP3    H2 3634   1.030   0.867   3.091 -1.4208  0.2821 -0.3784
 1210TIP3   OH2 3635   6.070   1.729   3.691  0.0944 -0.9321  0.0226
 1210TIP3    H1 3636   5.987   1.684   3.676 -0.6069 -0.8585  2.9667
 1210TIP3    H2 3637   6.047   1.807   3.741  1.8593 -0.5839  0.3865
 1211TIP3   OH2 3638   5.509   0.524   3.017 -0.0585  0.3325 -0.1905
 1211TIP3    H1 3639   5.514   0.617   2.993 -1.0156  0.2796 -0.6595
 1211TIP3    H2 3640   5.425   0.495   2.981 -0.3541 -0.4006  1.0372
 1212TIP3   OH2 3641   5.818   4.591   3.288  0.0690  0.0837 -0.1084
 1212TIP3    H1 3642   5.790   4.631   3.371  1.9977  2.2032 -0.3912
 1212TIP3    H2 3643   5.743   4.603   3.230 -0.7804 -0.1424  0.9086
 1213TIP3   OH2 3644   4.111   1.175   1.671 -0.4373  0.2067 -0.5963
 1213TIP3    H1 3645   4.023   1.208   1.653 -0.0125  0.9871 -1.3645
 1213TIP3    H2 3646   4.140   1.138   1.588  0.1499  0.4416 -0.5076
 1214TIP3   OH2 3647   2.288   4.848   4.554  0.4024  0.2747 -0.2680
 1214TIP3    H1 3648   2.291   4.943   4.558  2.0522  0.2349  0.2093
 1214TIP3    H2 3649   2.371   4.823   4.513 -0.4245 -0.9237 -1.2855
 1215TIP3   OH2 3650   1.964   1.938   2.464  0.2928 -0.3609  0.0257
 1215TIP3    H1 3651   1.968   1.987   2.546  2.1535  0.0579 -0.2574
 1215TIP3    H2 3652   1.924   1.854   2.487  0.8403 -0.2685  1.3802
 1216TIP3   OH2 3653   2.759   3.010   4.417  0.4532  0.7040 -0.0121
 1216TIP3    H1 3654   2.776   2.925   4.375  1.0472  1.1322 -0.6567
 1216TIP3    H2 3655   2.702   3.056   4.355  0.3505  0.8773  0.2133
 1217TIP3   OH2 3656   0.199   5.314   1.775 -0.3470  0.4262  0.0286
 1217TIP3    H1 3657   0.244   5.333   1.692 -0.3648 -0.5148 -0.2050
 1217TIP3    H2 3658   0.191   5.399   1.818 -0.7435  0.9947 -1.1412
 1218TIP3   OH2 3659   5.661   2.045   1.160 -0.3380 -0.1287 -0.2750
 1218TIP3    H1 3660   5.671   1.983   1.232 -0.2972  0.3260  0.1093
 1218TIP3    H2 3661   5.621   1.993   1.090  0.1895 -0.7253 -0.1405
 1219TIP3   OH2 3662   1.293   5.541   4.439  0.3615  0.3674 -0.1784
 1219TIP3    H1 3663   1.221   5.569   4.383  1.2124  0.7147 -1.1286
 1219TIP3    H2 3664   1.251   5.495   4.512 -0.8472  1.1018 -0.3935
 1220TIP3   OH2 3665   0.505   0.787   3.270  0.4578 -0.5038  0.3665
 1220TIP3    H1 3666   0.585   0.838   3.259  0.4328 -0.4889  0.2447
 1220TIP3    H2 3667   0.499   0.734   3.190  0.0263 -0.0623  0.0989
 1221TIP3   OH2 3668   6.255   2.538   1.487  0.1572 -0.3671  0.3208
 1221TIP3    H1 3669   6.168   2.548   1.449 -0.9038 -1.6778  2.2533
 1221TIP3    H2 3670   6.269   2.619   1.536 -0.6999 -0.8186  1.3356
 1222TIP3   OH2 3671   2.579   0.116   0.833  0.8413 -0.3681  0.1201
 1222TIP3    H1 3672   2.520   0.053   0.790  1.2172 -0.4524 -0.2844
 1222TIP3    H2 3673   2.538   0.201   0.819 -0.3136 -0.6197  1.7368
 1223TIP3   OH2 3674   5.046   2.879   1.994 -0.1449  0.1420 -0.0214
 1223TIP3    H1 3675   4.989   2.819   2.042  1.2348 -0.8771  0.4102
 1223TIP3    H2 3676   5.078   2.940   2.060 -1.8731  1.6920 -0.5311
 1224TIP3   OH2 3677   1.228   1.210   1.815  0.3180 -0.2728  0.2446
 1224TIP3    H1 3678   1.277   1.129   1.801 -0.6439 -0.8259  0.0364
 1224TIP3    H2 3679   1.137   1.183   1.824  0.1255  0.6585  1.4724
 1225TIP3   OH2 3680   0.134   3.181   0.280  0.3353 -0.8350 -0.1587
 1225TIP3    H1 3681   0.191   3.119   0.234  1.1703  0.1502 -0.4888
 1225TIP3    H2 3682   0.092   3.230   0.210  0.2139 -0.5555  0.1110
 1226TIP3   OH2 3683   3.191   0.964   1.594 -0.0074 -0.1694 -0.6934
 1226TIP3    H1 3684   3.182   1.002   1.506 -0.2813  1.4738  0.0126
 1226TIP3    H2 3685   3.143   1.023   1.651  1.6980 -0.1843  0.8357
 1227TIP3   OH2 3686   5.049   1.240   3.739  0.3435 -0.6355 -0.6975
 1227TIP3    H1 3687   5.046   1.336   3.737  1.0918 -0.6108 -1.0070
 1227TIP3    H2 3688   5.028   1.218   3.830  1.6265 -0.0988 -0.2373
 1228TIP3   OH2 3689   0.152   4.480   1.260  0.3388  0.2593  0.0801
 1228TIP3    H1 3690   0.183   4.429   1.336 -1.3891 -1.7826 -0.5121
 1228TIP3    H2 3691   0.059   4.494   1.277  0.0356  0.1865 -1.4609
 1229TIP3   OH2 3692   0.661   2.240   2.564 -0.1017 -0.0373  0.0553
 1229TIP3    H1 3693   0.717   2.178   2.517 -1.2999 -1.4120  0.3689
 1229TIP3    H2 3694   0.703   2.325   2.551  0.1823 -0.4986 -2.5817
 1230TIP3   OH2 3695   5.938   1.724   1.403  0.3011  0.0278 -0.7424
 1230TIP3    H1 3696   5.904   1.702   1.490  1.5558  0.8898  0.0103
 1230TIP3    H2 3697   5.878   1.790   1.369 -0.7997 -1.0813 -1.0024
 1231TIP3   OH2 3698   1.947   4.949   0.823 -0.1818  0.1099 -0.3881
 1231TIP3    H1 3699   1.995   5.019   0.866  0.5404 -0.3802 -0.3665
 1231TIP3    H2 3700   1.928   4.982   0.735  0.8122  0.0524 -0.6303
 1232TIP3   OH2 3701   1.070   5.189   2.164 -0.2131 -0.1561 -0.3996
 1232TIP3    H1 3702   1.110   5.273   2.186  1.9689 -1.1583 -0.2896
 1232TIP3    H2 3703   1.037   5.156   2.248 -0.5530  0.3263 -0.3404
 1233TIP3   OH2 3704   2.311   2.689   2.470  0.9648 -0.4496  0.2047
 1233TIP3    H1 3705   2.243   2.687   2.403 -0.7461 -0.4158  1.8609
 1233TIP3    H2 3706   2.379   2.630   2.437 -0.3699 -1.4055 -0.9771
 1234TIP3   OH2 3707   2.867   4.951   2.123 -0.6069  0.0315 -0.5717
 1234TIP3    H1 3708   2.917   5.032   2.111 -2.4703  1.1660 -1.1496
 1234TIP3    H2 3709   2.931   4.886   2.152  1.2378  1.3050 -1.6442
 1235TIP3   OH2 3710   4.881   5.828   2.377  0.4208  0.3582 -0.0728
 1235TIP3    H1 3711   4.858   5.745   2.337 -1.1838  0.1816  1.0930
 1235TIP3    H2 3712   4.890   5.808   2.471  1.6973  1.1889  0.0125
 1236TIP3   OH2 3713   1.029   0.833   0.500 -0.3450 -0.0404  0.2723
 1236TIP3    H1 3714   1.057   0.901   0.438 -2.0060 -0.8365 -1.4573
 1236TIP3    H2 3715   0.936   0.850   0.514 -0.4656 -1.1276  0.9001
 1237TIP3   OH2 3716   4.343   3.309   0.864  0.3942 -0.4237  0.0677
 1237TIP3    H1 3717   4.367   3.308   0.956 -0.4858 -2.0546  0.3092
 1237TIP3    H2 3718   4.353   3.219   0.835 -0.8063 -0.2425 -1.0238
 1238TIP3   OH2 3719   3.598   2.259   1.195  0.1844  0.2803  0.2573
 1238TIP3    H1 3720   3.576   2.326   1.131  0.5176  1.0660  0.9422
 1238TIP3    H2 3721   3.693   2.266   1.206  0.5501 -1.6596 -1.1273
 1239TIP3   OH2 3722   2.833   2.792   3.177  0.7045 -0.2411 -0.2905
 1239TIP3    H1 3723   2.773   2.739   3.124 -0.9997 -0.9980  2.2122
 1239TIP3    H2 3724   2.783   2.814   3.255  2.0603  3.4343 -0.2768
 1240TIP3   OH2 3725   4.703   2.354   0.016 -0.1031  0.2993  0.0472
 1240TIP3    H1 3726   4.608   2.341   0.009  0.1710 -3.1524  0.9230
 1240TIP3    H2 3727   4.717   2.380   0.107 -0.1537  0.2171  0.0783
 1241TIP3   OH2 3728   0.580   5.922   1.486  0.1287  0.1428  0.6673
 1241TIP3    H1 3729   0.620   5.874   1.559 -0.4816  1.3056  1.8189
 1241TIP3    H2 3730   0.642   5.991   1.466  0.9369 -0.9815 -0.8905
 1242TIP3   OH2 3731   5.218   1.507   4.794  0.0629 -0.0425 -0.1704
 1242TIP3    H1 3732   5.274   1.512   4.871  2.3379 -1.4308 -1.6242
 1242TIP3    H2 3733   5.187   1.417   4.793 -0.4295  0.1265 -0.5841
 1243TIP3   OH2 3734   1.953   1.839   1.762  0.8334  0.5076  0.4276
 1243TIP3    H1 3735   1.870   1.851   1.807  0.6850  0.9756  0.0444
 1243TIP3    H2 3736   2.017   1.826   1.832  0.1978 -1.5977  0.6871
 1244TIP3   OH2 3737   0.877   3.848   2.609  0.5513 -0.1886 -0.1406
 1244TIP3    H1 3738   0.942   3.787   2.578 -0.0941 -0.0381 -1.8814
 1244TIP3    H2 3739   0.926   3.928   2.628  1.0505 -0.4848 -0.1746
 1245TIP3   OH2 3740   1.419   1.104   1.408  0.0861 -0.3370  0.0863
 1245TIP3    H1 3741   1.328   1.075   1.418  0.2628 -1.2896 -0.9162
 1245TIP3    H2 3742   1.468   1.048   1.469 -0.0349  0.5036  0.9867
 1246TIP3   OH2 3743   2.499   5.528   2.212 -0.6470 -0.3372 -0.4279
 1246TIP3    H1 3744   2.436   5.561   2.276 -1.9717  0.7437 -2.1696
 1246TIP3    H2 3745   2.445   5.504   2.136  0.3781 -5.1905  0.0631
 1247TIP3   OH2 3746   2.253   4.486   1.452 -0.1803 -0.2412  0.1961
 1247TIP3    H1 3747   2.320   4.498   1.385 -0.4881  2.5104  0.2798
 1247TIP3    H2 3748   2.288   4.531   1.529 -1.6380  0.3308  0.5625
 1248TIP3   OH2 3749   1.610   5.730   1.681  0.0130 -0.5578  0.1537
 1248TIP3    H1 3750   1.540   5.758   1.739 -0.2033  0.9451 -0.7912
 1248TIP3    H2 3751   1.567   5.709   1.599  0.3608 -2.3533  0.3924
 1249TIP3   OH2 3752   0.231   4.550   3.165 -0.6349  0.3436 -0.3799
 1249TIP3    H1 3753   0.182   4.612   3.111  0.0704  0.7367 -0.5797
 1249TIP3    H2 3754   0.225   4.585   3.254 -0.1511  0.7651 -0.5073
 1250TIP3   OH2 3755   5.896   5.152   3.646 -0.0132 -0.3559 -0.2096
 1250TIP3    H1 3756   5.856   5.231   3.609  0.6226  0.1864  0.2189
 1250TIP3    H2 3757   5.947   5.115   3.574  0.9363  0.5004 -0.0196
 1251TIP3   OH2 3758   0.775   0.987   0.908  0.1288 -0.1755  0.0770
 1251TIP3    H1 3759   0.849   0.993   0.967  1.2468 -0.6183 -1.2388
 1251TIP3    H2 3760   0.706   0.944   0.959  1.1024 -0.6836  0.9845
 1252TIP3   OH2 3761   3.603  -0.006   3.341  0.1145  0.1216  0.1963
 1252TIP3    H1 3762   3.536   0.040   3.392 -0.4470  0.2088 -0.6078
 1252TIP3    H2 3763   3.671   0.060   3.325 -0.8758  0.8333 -1.3060
 1253TIP3   OH2 3764   5.060   4.337   4.526  0.0395 -0.4305  0.0753
 1253TIP3    H1 3765   5.141   4.355   4.574  0.8623 -0.3024 -1.3165
 1253TIP3    H2 3766   5.035   4.249   4.554  0.5412 -0.3946  0.6714
 1254TIP3   OH2 3767   1.767   5.554   4.795 -0.5623  0.1660  0.0842
 1254TIP3    H1 3768   1.713   5.540   4.872  0.8430 -1.2803  0.8653
 1254TIP3    H2 3769   1.712   5.606   4.735 -2.5432 -0.7379  1.0503
 1255TIP3   OH2 3770   2.362   3.355   4.247 -0.1543  0.0266 -0.4257
 1255TIP3    H1 3771   2.452   3.384   4.229  0.8938 -1.3315  2.0705
 1255TIP3    H2 3772   2.336   3.404   4.324 -1.2454 -0.1971 -0.6435
 1256TIP3   OH2 3773   1.106   2.987   1.551  0.5222 -0.0146 -0.2341
 1256TIP3    H1 3774   1.085   3.068   1.599  1.6150 -0.3639  0.8874
 1256TIP3    H2 3775   1.196   2.999   1.521  0.7440 -0.8622  0.0646
 1257TIP3   OH2 3776   6.164   5.487   3.930  0.4339 -0.3053  0.0407
 1257TIP3    H1 3777   6.164   5.499   3.835 -0.6608  2.0139  0.2757
 1257TIP3    H2 3778   6.073   5.462   3.951  0.1614  1.1186  0.6474
 1258TIP3   OH2 3779   5.178   4.962   3.744 -0.1339  0.4177  0.1333
 1258TIP3    H1 3780   5.155   4.870   3.760 -1.3726  0.3052 -1.8803
 1258TIP3    H2 3781   5.100   4.998   3.701 -0.3905  2.9356  2.4511
 1259TIP3   OH2 3782   2.417   0.291   2.828 -0.3155 -0.0757 -0.6680
 1259TIP3    H1 3783   2.431   0.334   2.743  0.4022  1.1215  0.0385
 1259TIP3    H2 3784   2.500   0.303   2.874 -0.9246 -0.1490  0.4557
 1260TIP3   OH2 3785   2.704   1.527   4.891  0.4535  0.4226  0.4037
 1260TIP3    H1 3786   2.714   1.598   4.827 -0.0407  0.6529  0.5747
 1260TIP3    H2 3787   2.616   1.540   4.927  0.5216 -0.0303  0.7388
 1261TIP3   OH2 3788   0.326   3.855   1.003 -0.2596 -0.0463 -0.2184
 1261TIP3    H1 3789   0.335   3.890   0.915 -1.6567  0.2855 -0.2640
 1261TIP3    H2 3790   0.260   3.911   1.044 -0.9251 -1.2535  0.4367
 1262TIP3   OH2 3791   4.516   1.545   2.912 -0.4354 -0.0928 -0.2266
 1262TIP3    H1 3792   4.549   1.512   2.828 -1.1998  0.5285 -0.7750
 1262TIP3    H2 3793   4.421   1.537   2.906 -0.6341  1.8397 -0.2396
 1263TIP3   OH2 3794   2.761   3.594   0.444  0.1713  0.1324 -0.6877
 1263TIP3    H1 3795   2.735   3.528   0.509 -1.4644  0.1935 -1.2374
 1263TIP3    H2 3796   2.716   3.674   0.473 -0.8546  0.0784 -2.0361
 1264TIP3   OH2 3797   5.872   1.519   2.436  0.4099 -0.0069 -0.1974
 1264TIP3    H1 3798   5.858   1.449   2.500  0.1609  0.0626 -0.1741
 1264TIP3    H2 3799   5.898   1.595   2.488 -0.9687  0.3963 -0.0403
 1265TIP3   OH2 3800   0.418   3.850   2.659 -0.2605  0.5684 -0.1064
 1265TIP3    H1 3801   0.442   3.775   2.605  0.4257  0.1785  0.7213
 1265TIP3    H2 3802   0.336   3.825   2.701  0.4009 -0.1033  0.8419
 1266TIP3   OH2 3803   6.142   3.843   4.680 -0.7751 -0.2051 -0.1307
 1266TIP3    H1 3804   6.170   3.755   4.654 -1.3184 -0.2106 -0.7270
 1266TIP3    H2 3805   6.208   3.901   4.642 -1.3102 -0.2485 -1.1662
 1267TIP3   OH2 3806   0.834   4.473   1.123  0.4438 -0.3495 -0.0862
 1267TIP3    H1 3807   0.807   4.557   1.158  0.7060 -0.0099 -0.6778
 1267TIP3    H2 3808   0.758   4.440   1.075  0.2858 -0.5311  0.2865
 1268TIP3   OH2 3809   6.232   0.543   3.908  0.1712 -0.3686 -0.1612
 1268TIP3    H1 3810   6.199   0.453   3.905 -0.1700 -0.2439 -0.1681
 1268TIP3    H2 3811   6.200   0.584   3.828 -0.7544  0.1265  0.4432
 1269TIP3   OH2 3812   5.546   2.518   2.081  0.9734 -0.0128  0.4268
 1269TIP3    H1 3813   5.569   2.545   2.170  1.6638  0.9509 -0.0259
 1269TIP3    H2 3814   5.470   2.461   2.092  0.0557  1.3437  1.5261
 1270TIP3   OH2 3815   4.362   0.915   0.144  0.1820  0.0046 -0.1177
 1270TIP3    H1 3816   4.268   0.900   0.139  0.2546 -0.5367  0.1152
 1270TIP3    H2 3817   4.382   0.915   0.237  0.2834  0.9754 -0.1277
 1271TIP3   OH2 3818   2.740   0.135   4.983  0.1680 -0.1865  0.2450
 1271TIP3    H1 3819   2.646   0.115   4.977  0.2697 -0.3183 -1.3062
 1271TIP3    H2 3820   2.761   0.174   4.898  1.9503 -2.0842 -0.2713
 1272TIP3   OH2 3821   6.317   5.771   0.081  0.2449  0.0905 -0.1449
 1272TIP3    H1 3822   6.236   5.794   0.036  0.5021  0.1553 -0.5910
 1272TIP3    H2 3823   6.367   5.853   0.083  1.3401 -0.4507 -2.1140
 1273TIP3   OH2 3824   4.349   4.015   4.733  0.1936 -0.3396  0.4378
 1273TIP3    H1 3825   4.290   4.026   4.658  0.0691 -0.8562  0.4604
 1273TIP3    H2 3826   4.331   4.090   4.789 -0.7305 -0.7044  0.6430
 1274TIP3   OH2 3827   0.678   2.659   3.135  0.2274 -0.5797  0.3112
 1274TIP3    H1 3828   0.771   2.637   3.135  0.0538 -1.8882  3.6941
 1274TIP3    H2 3829   0.674   2.748   3.171  0.1683 -0.1908 -0.6195
 1275TIP3   OH2 3830   1.688   1.239   3.914 -0.3975  0.1304 -0.4528
 1275TIP3    H1 3831   1.695   1.182   3.990  1.2687 -0.5924 -1.0890
 1275TIP3    H2 3832   1.773   1.231   3.870 -1.7915 -0.7037 -3.2405
 1276TIP3   OH2 3833   3.404   0.150   3.048 -0.0722 -0.3203  0.2329
 1276TIP3    H1 3834   3.349   0.135   3.125 -0.0332 -1.2625  0.0813
 1276TIP3    H2 3835   3.469   0.080   3.050  1.4811  1.0605  0.7005
 1277TIP3   OH2 3836   3.880   1.843   3.291  0.2940 -0.3866  0.2212
 1277TIP3    H1 3837   3.879   1.869   3.383 -1.7767 -0.8602  0.3853
 1277TIP3    H2 3838   3.792   1.864   3.259  0.7877 -0.7624 -1.5146
 1278TIP3   OH2 3839   4.623   2.433   1.785  0.1684  0.4531 -0.3117
 1278TIP3    H1 3840   4.701   2.378   1.781  0.2673  0.5912 -0.2861
 1278TIP3    H2 3841   4.572   2.396   1.858  0.0334  0.1347 -0.5634
 1279TIP3   OH2 3842   5.501   3.904   1.123 -0.2841  0.8485  0.6877
 1279TIP3    H1 3843   5.469   3.839   1.185 -0.4584 -0.9868 -1.2280
 1279TIP3    H2 3844   5.587   3.872   1.096 -0.0835  1.7649  0.1898
 1280TIP3   OH2 3845   1.017   5.069   1.524  0.6853  0.3539 -0.3004
 1280TIP3    H1 3846   1.060   5.110   1.449 -1.3828  0.3801 -1.5457
 1280TIP3    H2 3847   0.930   5.045   1.492 -0.0501 -0.2066  1.9252
 1281TIP3   OH2 3848   5.836   5.922   1.439 -0.1460 -0.4311 -0.3492
 1281TIP3    H1 3849   5.784   5.845   1.414 -2.5752  1.0496 -0.1493
 1281TIP3    H2 3850   5.912   5.885   1.485 -0.7958 -2.7313 -0.9618
 1282TIP3   OH2 3851   0.115   5.720   1.167  0.7617  0.9197 -0.1131
 1282TIP3    H1 3852   0.072   5.787   1.114  0.8520 -0.3714 -1.8902
 1282TIP3    H2 3853   0.052   5.700   1.236  0.1685  1.8343 -0.3708
 1283TIP3   OH2 3854   0.166   3.691   1.344 -0.2947  0.4319  0.5299
 1283TIP3    H1 3855   0.187   3.679   1.251 -0.4367 -0.7392  0.6352
 1283TIP3    H2 3856   0.104   3.764   1.346 -1.2914 -0.3643 -0.4261
 1284TIP3   OH2 3857   5.623   2.959   0.267  0.1302 -1.0160 -0.4098
 1284TIP3    H1 3858   5.652   3.049   0.280  1.6191 -1.7430  1.8826
 1284TIP3    H2 3859   5.528   2.962   0.282  0.0711  0.2344 -0.9375
 1285TIP3   OH2 3860   4.389   1.782   1.904  0.6321  1.0170  0.7808
 1285TIP3    H1 3861   4.302   1.791   1.943 -0.3826  1.2353 -1.3538
 1285TIP3    H2 3862   4.432   1.866   1.923  0.0198  1.2822  1.0473
 1286TIP3   OH2 3863   6.203   0.320   2.428 -0.3157 -0.5978 -0.3964
 1286TIP3    H1 3864   6.248   0.400   2.458  1.0028 -1.3413 -0.3259
 1286TIP3    H2 3865   6.246   0.297   2.346 -1.1995 -0.8397 -0.8075
 1287TIP3   OH2 3866   3.391   0.621   3.847 -0.0363  0.4041 -0.3995
 1287TIP3    H1 3867   3.320   0.560   3.867  1.6326 -0.6375  3.1590
 1287TIP3    H2 3868   3.372   0.699   3.898  0.7627  0.5484 -0.2996
 1288TIP3   OH2 3869   0.874   1.275   3.840 -0.3580  0.0771 -0.1532
 1288TIP3    H1 3870   0.789   1.299   3.803 -0.0818  0.3855 -0.6062
 1288TIP3    H2 3871   0.865   1.182   3.862 -0.9622  0.2250  0.2492
 1289TIP3   OH2 3872   0.250   0.896   0.840  0.1480  0.1657 -0.4124
 1289TIP3    H1 3873   0.233   0.889   0.934  1.5041  0.6063 -0.1133
 1289TIP3    H2 3874   0.267   0.989   0.826 -0.5722  0.1897 -1.2102
 1290TIP3   OH2 3875   3.772   0.425   3.585  0.0818 -0.2326  0.1595
 1290TIP3    H1 3876   3.709   0.433   3.513  1.1724  1.7380 -0.6632
 1290TIP3    H2 3877   3.724   0.458   3.662 -0.1443  0.5285 -0.2969
 1291TIP3   OH2 3878   3.233   3.847   4.311  0.1882 -0.2740 -0.3481
 1291TIP3    H1 3879   3.185   3.902   4.249  1.2252  0.3241 -0.6638
 1291TIP3    H2 3880   3.201   3.759   4.296  1.3409 -0.3613 -2.6932
 1292TIP3   OH2 3881   5.828   4.903   2.811  0.1130  0.6666  0.1276
 1292TIP3    H1 3882   5.862   4.976   2.759  1.4138 -0.8607 -1.2404
 1292TIP3    H2 3883   5.838   4.933   2.902  2.5204  1.4440 -0.3136
 1293TIP3   OH2 3884   2.910   4.331   4.914 -0.3755  0.2834  0.2278
 1293TIP3    H1 3885   2.878   4.327   4.824 -0.4242  1.0896  0.2003
 1293TIP3    H2 3886   2.997   4.370   4.906 -0.6210  0.9074  0.5825
 1294TIP3   OH2 3887   5.082   0.819   2.405 -0.5044  0.7186  0.1529
 1294TIP3    H1 3888   5.114   0.730   2.391  1.6191  1.3634  0.4954
 1294TIP3    H2 3889   4.997   0.808   2.448  0.4068 -1.1330  1.5963
 1295TIP3   OH2 3890   0.226   5.700   0.925  0.1282  0.3807  0.3075
 1295TIP3    H1 3891   0.207   5.709   1.019  0.6492 -0.9586  0.5613
 1295TIP3    H2 3892   0.298   5.637   0.921  0.1132  0.4242 -0.9960
 1296TIP3   OH2 3893   1.512   1.507   0.559  0.3051 -0.2025 -0.9176
 1296TIP3    H1 3894   1.500   1.438   0.624  1.7964  1.2873  1.0988
 1296TIP3    H2 3895   1.533   1.585   0.611 -0.2265  1.5198 -3.1314
 1297TIP3   OH2 3896   2.788   5.912   3.393 -0.4726 -0.2462  0.0353
 1297TIP3    H1 3897   2.772   6.002   3.365 -0.4002  0.5142  2.2251
 1297TIP3    H2 3898   2.841   5.874   3.323 -0.4447  1.4135 -0.9088
 1298TIP3   OH2 3899   2.013   4.417   3.789  0.5862  0.2786  0.1768
 1298TIP3    H1 3900   1.923   4.440   3.811  0.0590 -2.6851  1.6358
 1298TIP3    H2 3901   2.012   4.406   3.693  0.0037  2.3898 -0.0963
 1299TIP3   OH2 3902   6.317   2.586   4.282 -0.2324 -0.0290 -0.2858
 1299TIP3    H1 3903   6.244   2.534   4.249 -0.3457  1.0134 -1.7411
 1299TIP3    H2 3904   6.296   2.676   4.257  1.4838  0.3081 -0.6382
 1300TIP3   OH2 3905   4.251   2.958   1.238 -0.1068 -0.3500  0.4408
 1300TIP3    H1 3906   4.168   2.957   1.286 -0.1068  0.5388  0.4693
 1300TIP3    H2 3907   4.316   2.929   1.303 -0.3508 -0.7896  0.4929
 1301TIP3   OH2 3908   1.335   4.927   2.001 -0.2555 -0.0988  0.2707
 1301TIP3    H1 3909   1.346   5.018   1.971  0.7207 -0.2482  0.1211
 1301TIP3    H2 3910   1.385   4.923   2.083  1.9805 -1.1376 -1.0387
 1302TIP3   OH2 3911   0.512   4.130   2.876  0.1850 -0.6316  0.4157
 1302TIP3    H1 3912   0.528   4.217   2.839 -1.1790 -0.0816  1.0568
 1302TIP3    H2 3913   0.581   4.075   2.838  0.6154  0.5495 -0.5927
 1303TIP3   OH2 3914   3.619   4.797   0.510  0.0705 -0.2345 -0.1091
 1303TIP3    H1 3915   3.689   4.789   0.445  1.0976  0.5263  0.8453
 1303TIP3    H2 3916   3.611   4.892   0.525 -1.2805 -0.3008 -0.3019
 1304TIP3   OH2 3917   1.986   3.077   1.631 -0.0843  0.3622  0.2134
 1304TIP3    H1 3918   1.936   3.078   1.550 -0.1952  2.1246  0.2831
 1304TIP3    H2 3919   1.970   2.989   1.667 -0.5942 -0.1980 -1.2971
 1305TIP3   OH2 3920   2.694   4.553   2.912 -0.1341 -0.0497  0.4178
 1305TIP3    H1 3921   2.607   4.542   2.874 -0.1825  2.0323 -0.2241
 1305TIP3    H2 3922   2.750   4.496   2.860 -0.9809 -0.7812  0.2870
 1306TIP3   OH2 3923   1.967   4.112   4.677 -0.2219 -0.3727  0.0075
 1306TIP3    H1 3924   1.981   4.206   4.679 -0.1049 -0.3908  0.0621
 1306TIP3    H2 3925   1.961   4.086   4.769 -1.2438 -0.2757 -0.0166
 1307TIP3   OH2 3926   4.816   4.138   0.260  0.1066  0.3781  0.6299
 1307TIP3    H1 3927   4.900   4.098   0.279  0.5493  0.8486 -0.2644
 1307TIP3    H2 3928   4.766   4.132   0.342  0.1396 -1.9896  0.5285
 1308TIP3   OH2 3929   0.881   3.594   4.194  0.6671  0.7344 -0.4914
 1308TIP3    H1 3930   0.887   3.500   4.182  0.0320  0.4169  1.3739
 1308TIP3    H2 3931   0.808   3.621   4.138 -1.9326 -0.5880  1.9935
 1309TIP3   OH2 3932   0.940   3.866   1.798 -0.1304 -0.2480 -0.0310
 1309TIP3    H1 3933   1.009   3.819   1.751  1.3586  1.2376  0.5846
 1309TIP3    H2 3934   0.888   3.907   1.730  1.5428  1.2444 -0.4633
 1310TIP3   OH2 3935   5.623   3.715   3.394  0.3658 -0.1347 -0.6511
 1310TIP3    H1 3936   5.577   3.795   3.370 -1.3009 -1.2782 -1.4782
 1310TIP3    H2 3937   5.711   3.726   3.358  0.6446  1.8987  0.5048
 1311TIP3   OH2 3938   5.643   2.853   0.010 -0.3009  0.0857  0.0191
 1311TIP3    H1 3939   5.569   2.791   0.013 -0.8271  0.7218  0.6094
 1311TIP3    H2 3940   5.636   2.901   0.092  0.1390  0.8881 -0.4078
 1312TIP3   OH2 3941   1.067   2.579   1.608  0.6588  0.4824  0.1403
 1312TIP3    H1 3942   1.014   2.651   1.644  1.9119  0.6404  1.7295
 1312TIP3    H2 3943   1.006   2.532   1.550 -0.9204  1.2750  1.0824
 1313TIP3   OH2 3944   4.628   4.166   0.060  0.3233 -0.3509 -0.0570
 1313TIP3    H1 3945   4.690   4.160   0.132 -0.6440  1.3436  0.9786
 1313TIP3    H2 3946   4.545   4.188   0.101 -0.6666 -1.1087 -1.5505
 1314TIP3   OH2 3947   0.860   1.863   4.017  0.2849  0.2473  0.1889
 1314TIP3    H1 3948   0.955   1.851   4.008  1.0567  3.3284  2.4899
 1314TIP3    H2 3949   0.828   1.779   4.049  2.1970 -0.8964 -0.7357
 1315TIP3   OH2 3950   1.405   0.390   2.610 -0.4878  0.2773 -0.3815
 1315TIP3    H1 3951   1.498   0.377   2.588 -0.1269  1.0104  0.6327
 1315TIP3    H2 3952   1.386   0.479   2.580 -1.2234 -0.2900 -1.6859
 1316TIP3   OH2 3953   5.650   0.338   0.918 -0.6028 -0.3601  0.2430
 1316TIP3    H1 3954   5.590   0.267   0.898  0.7449 -1.4817 -0.0340
 1316TIP3    H2 3955   5.632   0.405   0.852 -1.0358 -0.9852 -0.2846
 1317TIP3   OH2 3956   1.852   0.081   3.854 -0.0059 -0.2337 -0.1026
 1317TIP3    H1 3957   1.817   0.122   3.933  0.5925 -1.7162  0.9749
 1317TIP3    H2 3958   1.915   0.144   3.821 -2.0380  1.5368 -0.8848
 1318TIP3   OH2 3959   6.177   0.232   4.015 -0.0222  0.1759 -0.3607
 1318TIP3    H1 3960   6.134   0.160   4.061  0.1210 -0.7046 -1.5466
 1318TIP3    H2 3961   6.253   0.253   4.069 -0.6861  0.2089  0.5816
 1319TIP3   OH2 3962   0.530   5.126   1.137  0.2512 -0.0554 -0.0687
 1319TIP3    H1 3963   0.623   5.111   1.123  0.1770  0.6441 -1.4559
 1319TIP3    H2 3964   0.497   5.155   1.052 -1.4001 -1.1084  0.1529
 1320TIP3   OH2 3965   2.183   1.079   3.762 -0.2020 -0.6330  0.3274
 1320TIP3    H1 3966   2.119   1.089   3.833  2.1306  2.7478  2.2416
 1320TIP3    H2 3967   2.153   1.002   3.713 -3.2760 -1.7501  3.5536
 1321TIP3   OH2 3968   2.041   3.715   3.408 -0.4508  0.4303  0.5042
 1321TIP3    H1 3969   2.007   3.779   3.346  0.8553  0.0298 -0.6670
 1321TIP3    H2 3970   2.115   3.758   3.449 -0.0025 -0.0634  0.2237
 1322TIP3   OH2 3971   3.773   0.114   2.119 -0.8646  0.1895 -1.0408
 1322TIP3    H1 3972   3.768   0.104   2.024 -0.7921  0.5407 -1.0824
 1322TIP3    H2 3973   3.804   0.029   2.151 -0.6103  0.1654 -1.3572
 1323TIP3   OH2 3974   1.572   4.677   2.558  0.2075  0.1746 -0.5082
 1323TIP3    H1 3975   1.622   4.641   2.485  0.4712 -0.1618 -0.1693
 1323TIP3    H2 3976   1.621   4.649   2.636 -0.6280 -0.3521 -0.1588
 1324TIP3   OH2 3977   4.213   3.003   4.537 -0.4433 -0.3886 -0.4480
 1324TIP3    H1 3978   4.142   3.064   4.519 -0.9537 -1.3596 -1.8955
 1324TIP3    H2 3979   4.175   2.938   4.597 -0.1796  0.1704  0.3370
 1325TIP3   OH2 3980   3.889   1.018   4.782  0.3938  0.4166  0.5080
 1325TIP3    H1 3981   3.793   1.016   4.784  0.3819 -0.3125 -0.1677
 1325TIP3    H2 3982   3.916   0.956   4.850  0.3596 -0.5890 -0.3804
 1326TIP3   OH2 3983   5.038   4.660   0.753  0.2473 -0.3909 -0.2205
 1326TIP3    H1 3984   5.102   4.666   0.824 -1.6662 -3.4332  2.0006
 1326TIP3    H2 3985   5.082   4.608   0.685  0.8871 -0.4944  0.2670
 1327TIP3   OH2 3986   3.863   5.389   0.640  0.1403  0.6178  0.0307
 1327TIP3    H1 3987   3.889   5.362   0.552 -0.3569 -0.4206  0.1884
 1327TIP3    H2 3988   3.856   5.308   0.689 -2.0534  0.9317  0.3468
 1328TIP3   OH2 3989   5.853   2.667   4.197 -0.4682 -0.1247 -0.4235
 1328TIP3    H1 3990   5.892   2.599   4.143  2.6151  2.1043 -1.2917
 1328TIP3    H2 3991   5.826   2.735   4.135 -0.8896  0.6269  0.5521
 1329TIP3   OH2 3992   2.067   1.065   1.758  0.0737 -0.5756 -0.4024
 1329TIP3    H1 3993   2.012   1.143   1.750  0.5342 -0.2062 -0.0577
 1329TIP3    H2 3994   2.017   0.996   1.716 -1.9057 -0.8890  2.1720
 1330TIP3   OH2 3995   5.243   3.250   3.618  0.3051  0.2003  0.1817
 1330TIP3    H1 3996   5.303   3.239   3.544 -0.0550  0.9714 -0.2338
 1330TIP3    H2 3997   5.274   3.329   3.662 -0.0950  0.3128  0.2635
 1331TIP3   OH2 3998   5.387   2.676   5.111  0.3419 -0.3000 -0.3671
 1331TIP3    H1 3999   5.325   2.618   5.069  0.2121 -0.3783 -0.0702
 1331TIP3    H2 4000   5.353   2.764   5.095 -0.2771 -0.3797  0.4749
 1332TIP3   OH2 4001   1.101   3.652   1.975 -0.1970  0.5142 -0.5705
 1332TIP3    H1 4002   1.159   3.606   1.914  0.7604 -0.6812  1.1540
 1332TIP3    H2 4003   1.014   3.615   1.958 -0.0643  0.6437 -1.5956
 1333TIP3   OH2 4004   4.529   5.896   1.697 -0.1537 -0.1036  0.2978
 1333TIP3    H1 4005   4.495   5.893   1.786 -0.2170  0.2078  0.2885
 1333TIP3    H2 4006   4.453   5.917   1.643 -0.5863 -2.5365 -0.1174
 1334TIP3   OH2 4007   2.075   5.638   5.189  0.4433 -0.6493  0.0036
 1334TIP3    H1 4008   1.983   5.645   5.214  0.3781  3.4564 -0.6516
 1334TIP3    H2 4009   2.072   5.621   5.095  0.1009  2.4023 -0.6550
 1335TIP3   OH2 4010   0.937   2.185   1.692  0.2242 -0.3332  0.2143
 1335TIP3    H1 4011   0.991   2.131   1.749  1.5241  0.1887 -0.4732
 1335TIP3    H2 4012   0.911   2.260   1.747 -0.2360 -0.8375  0.6948
 1336TIP3   OH2 4013   4.409   1.331   3.372  0.2576 -0.5849 -0.0092
 1336TIP3    H1 4014   4.398   1.321   3.466 -1.3173 -0.2087 -0.1192
 1336TIP3    H2 4015   4.407   1.426   3.357  1.2956 -0.6026 -0.3569
 1337TIP3   OH2 4016   4.221   2.383   0.902 -0.2790  0.0042 -0.4062
 1337TIP3    H1 4017   4.145   2.330   0.929  1.5392 -2.8376 -0.4553
 1337TIP3    H2 4018   4.244   2.348   0.816 -0.8366  3.1266 -1.9681
 1338TIP3   OH2 4019   1.115   0.704   3.333  0.5829  0.4062 -0.2078
 1338TIP3    H1 4020   1.208   0.711   3.356  1.0732  0.5029 -2.0601
 1338TIP3    H2 4021   1.069   0.720   3.415  2.2042 -0.6576  0.9785
 1339TIP3   OH2 4022   1.366   1.480   2.886  0.0348 -0.3743 -0.3178
 1339TIP3    H1 4023   1.333   1.450   2.802  0.1461  0.0989 -0.5274
 1339TIP3    H2 4024   1.452   1.516   2.867 -0.0496 -0.0254 -0.0414
 1340TIP3   OH2 4025   5.396   5.575   4.585 -0.2538 -0.6791 -0.2531
 1340TIP3    H1 4026   5.349   5.497   4.614  0.0222  0.4660  3.7944
 1340TIP3    H2 4027   5.483   5.543   4.560 -0.2111 -1.7205  1.1383
 1341TIP3   OH2 4028   5.695   3.218   0.761 -0.1352 -0.3140  0.6590
 1341TIP3    H1 4029   5.667   3.254   0.678 -0.4675 -1.7935  0.0968
 1341TIP3    H2 4030   5.631   3.250   0.825  0.3558  1.1542  0.4396
 1342TIP3   OH2 4031   4.472   5.815   3.179  0.2680 -0.1263  0.6199
 1342TIP3    H1 4032   4.418   5.742   3.151  1.3091 -0.3263 -1.0217
 1342TIP3    H2 4033   4.496   5.794   3.269  1.1306 -2.1873 -0.0323
 1343TIP3   OH2 4034   4.705   4.120   1.049 -0.5743 -0.7655 -0.4837
 1343TIP3    H1 4035   4.640   4.181   1.083  0.2957  0.5822 -1.1412
 1343TIP3    H2 4036   4.713   4.143   0.957  0.0467 -1.6488 -0.6648
 1344TIP3   OH2 4037   1.668   1.427   3.113 -0.4526 -0.6635 -0.0131
 1344TIP3    H1 4038   1.662   1.512   3.069 -2.1082 -0.1939  1.0119
 1344TIP3    H2 4039   1.737   1.437   3.178  2.4185 -1.5292 -2.6740
 1345TIP3   OH2 4040   2.974   1.429   3.609  0.3337  0.4827  0.1542
 1345TIP3    H1 4041   2.977   1.409   3.515 -0.5555  0.5181  0.1085
 1345TIP3    H2 4042   3.029   1.362   3.650  1.3309  0.9099 -0.4543
 1346TIP3   OH2 4043   2.597   0.765   0.299 -0.0959  0.1896  0.3369
 1346TIP3    H1 4044   2.539   0.836   0.324 -1.1450 -1.5201  3.1522
 1346TIP3    H2 4045   2.660   0.758   0.371  2.7239  0.8984 -1.8348
 1347TIP3   OH2 4046   1.916   2.883   1.859 -0.3327  0.3721 -0.6419
 1347TIP3    H1 4047   1.972   2.956   1.884  0.1631 -0.4269  0.7127
 1347TIP3    H2 4048   1.962   2.806   1.892 -1.3035 -0.4695 -1.2034
 1348TIP3   OH2 4049   3.635   0.977   4.489 -0.2475 -0.1084 -0.1310
 1348TIP3    H1 4050   3.638   0.981   4.584  0.5740  1.0749 -0.1890
 1348TIP3    H2 4051   3.578   1.050   4.463 -0.6972 -0.5935 -0.5475
 1349TIP3   OH2 4052   0.897   3.438   0.798  0.0465 -0.2055 -0.2073
 1349TIP3    H1 4053   0.981   3.457   0.840  0.3665 -0.3144 -0.7808
 1349TIP3    H2 4054   0.889   3.504   0.729 -1.5504  1.4256  1.4280
 1350TIP3   OH2 4055   3.473   5.302   0.180  0.5833 -0.3625 -0.4711
 1350TIP3    H1 4056   3.402   5.360   0.207  0.9036 -0.5844  0.9509
 1350TIP3    H2 4057   3.430   5.230   0.134 -0.0668 -0.2098 -0.1139
 1351TIP3   OH2 4058   6.296   5.230   4.055 -0.3353 -0.9113 -0.5298
 1351TIP3    H1 4059   6.284   5.321   4.026  0.2939 -0.4978  0.4860
 1351TIP3    H2 4060   6.384   5.227   4.091 -0.1610 -2.0590 -0.9957
 1352TIP3   OH2 4061   2.344   4.910   0.296  0.5735 -0.5138 -0.0870
 1352TIP3    H1 4062   2.419   4.959   0.262 -0.7502  1.3669 -0.4615
 1352TIP3    H2 4063   2.360   4.904   0.390  1.3868 -0.5007 -0.2175
 1353TIP3   OH2 4064   1.976   5.115   2.481  0.2870 -0.1438  0.6939
 1353TIP3    H1 4065   1.898   5.164   2.506 -0.4222  0.5554 -2.4379
 1353TIP3    H2 4066   1.954   5.077   2.396  3.0917 -0.4937  0.0187
 1354TIP3   OH2 4067   2.797   3.411   0.924  0.2367  0.2132  0.2103
 1354TIP3    H1 4068   2.871   3.363   0.961  0.6084  0.2490 -0.4764
 1354TIP3    H2 4069   2.794   3.492   0.976 -0.6687 -0.6991  1.6672
 1355TIP3   OH2 4070   5.383   3.418   2.918  0.3044  0.3064 -0.1294
 1355TIP3    H1 4071   5.370   3.484   2.986  0.4691  0.6383 -0.4214
 1355TIP3    H2 4072   5.398   3.468   2.838  0.3158 -0.0847 -0.3729
 1356TIP3   OH2 4073   1.494   5.128   0.405 -0.2020  0.3356 -0.2403
 1356TIP3    H1 4074   1.588   5.122   0.421 -0.5273 -1.2869  1.5854
 1356TIP3    H2 4075   1.467   5.207   0.452 -0.0610 -0.5278  1.3795
 1357TIP3   OH2 4076   3.440   3.921   3.613 -0.4377 -0.3664  0.1397
 1357TIP3    H1 4077   3.373   3.923   3.545  0.1574  0.2277 -0.4394
 1357TIP3    H2 4078   3.497   3.848   3.590 -0.9248 -0.9298  0.6830
 1358TIP3   OH2 4079   0.078   3.451   2.523 -0.4518 -0.5524  0.1785
 1358TIP3    H1 4080   0.082   3.533   2.473 -3.0157 -0.1985  0.4390
 1358TIP3    H2 4081   0.146   3.460   2.589 -0.4625  1.2482 -0.0050
 1359TIP3   OH2 4082   1.289   0.253   2.822 -0.5164  0.1467  0.0566
 1359TIP3    H1 4083   1.344   0.309   2.768  1.3307 -2.5140 -1.0780
 1359TIP3    H2 4084   1.214   0.232   2.766 -1.6491  2.0442  0.7952
 1360TIP3   OH2 4085   0.361   4.717   0.455 -0.4343 -0.3955 -0.3823
 1360TIP3    H1 4086   0.305   4.792   0.431  1.8074  0.8318 -2.2630
 1360TIP3    H2 4087   0.401   4.691   0.372  2.7658 -0.3104  1.0088
 1361TIP3   OH2 4088   4.084   5.514   1.340  0.2923 -0.7463 -0.4855
 1361TIP3    H1 4089   4.118   5.582   1.398  0.1152  0.2063 -1.4568
 1361TIP3    H2 4090   4.148   5.509   1.269  0.1532 -1.4048 -0.5751
 1362TIP3   OH2 4091   6.269   3.914   0.310  0.8283  0.1035 -0.4243
 1362TIP3    H1 4092   6.181   3.933   0.278  0.5432 -0.9782 -0.3346
 1362TIP3    H2 4093   6.307   4.000   0.328 -0.2196  0.5856 -0.4253
 1363TIP3   OH2 4094   2.316   2.463   0.293  0.1818  0.3014 -0.3153
 1363TIP3    H1 4095   2.361   2.379   0.292  0.2481  0.3283  0.0774
 1363TIP3    H2 4096   2.338   2.501   0.378 -0.4166  0.4053 -0.1995
 1364TIP3   OH2 4097   3.617   3.991   0.167  0.0900 -0.1713  0.3416
 1364TIP3    H1 4098   3.557   3.917   0.180  0.9538 -0.5788  2.4520
 1364TIP3    H2 4099   3.696   3.966   0.214  0.4484  2.0543  1.0422
 1365TIP3   OH2 4100   3.486   2.944   0.997  0.1832  0.4585  0.2285
 1365TIP3    H1 4101   3.400   2.905   0.982  1.7126 -2.7997 -1.1770
 1365TIP3    H2 4102   3.487   3.021   0.940 -0.8928 -1.0206 -1.9648
 1366TIP3   OH2 4103   4.488   0.604   1.478 -0.3493 -0.0615  0.0651
 1366TIP3    H1 4104   4.466   0.619   1.386  0.4209 -1.9153 -0.4721
 1366TIP3    H2 4105   4.436   0.669   1.526 -1.4090  0.3950 -1.6022
 1367TIP3   OH2 4106   6.235   1.213   4.039  0.0196  0.2308 -0.7593
 1367TIP3    H1 4107   6.255   1.196   4.131 -0.9947 -1.4328 -0.8150
 1367TIP3    H2 4108   6.140   1.226   4.037 -0.2352 -1.4876 -1.7781
 1368TIP3   OH2 4109   5.645   3.866   2.739  0.6075 -0.5096  0.4592
 1368TIP3    H1 4110   5.604   3.816   2.810  0.1293 -1.5213 -0.4971
 1368TIP3    H2 4111   5.594   3.843   2.661  1.3466  0.2995 -0.2835
 1369TIP3   OH2 4112   0.965   5.079   3.737  0.7486  0.1897  0.4354
 1369TIP3    H1 4113   1.022   5.070   3.813 -0.0302 -0.0262  1.0107
 1369TIP3    H2 4114   0.894   5.016   3.753 -0.7026  1.8364  0.7151
 1370TIP3   OH2 4115   2.160   4.114   3.555  0.5453  0.0430 -0.8132
 1370TIP3    H1 4116   2.172   4.175   3.629 -0.1860 -0.1383 -0.5449
 1370TIP3    H2 4117   2.178   4.168   3.478  1.1285  0.2834 -0.5246
 1371TIP3   OH2 4118   3.828   1.146   1.384 -0.2909 -0.1065 -0.9466
 1371TIP3    H1 4119   3.774   1.224   1.369 -0.0969  0.4590  0.9647
 1371TIP3    H2 4120   3.917   1.180   1.394  0.4692 -0.9992 -3.7514
 1372TIP3   OH2 4121   1.111   1.824   3.987  0.5600 -0.1233 -0.1317
 1372TIP3    H1 4122   1.187   1.781   4.026  0.1435 -2.0089 -1.2538
 1372TIP3    H2 4123   1.122   1.811   3.893 -0.7499  0.2882 -0.3627
 1373TIP3   OH2 4124   0.522   5.448   2.926 -0.0919 -0.6507 -0.1766
 1373TIP3    H1 4125   0.578   5.393   2.871 -2.1263 -0.6958 -2.4120
 1373TIP3    H2 4126   0.502   5.524   2.871  0.8475  1.2772  2.0106
 1374TIP3   OH2 4127   1.800   4.326   2.133 -0.0982  0.6358 -0.3095
 1374TIP3    H1 4128   1.863   4.302   2.064 -0.1944 -2.4392  0.5165
 1374TIP3    H2 4129   1.730   4.370   2.086  0.3053 -0.4802 -2.0827
 1375TIP3   OH2 4130   4.099   3.725   4.793  0.5921 -0.2061  0.1160
 1375TIP3    H1 4131   4.037   3.672   4.742  1.4635 -1.6963  0.5394
 1375TIP3    H2 4132   4.087   3.814   4.760 -0.7726 -0.6823 -0.7859
 1376TIP3   OH2 4133   2.384   0.061   4.652  0.4152 -0.5852 -0.3852
 1376TIP3    H1 4134   2.470   0.020   4.639  0.2131 -2.0282  2.0860
 1376TIP3    H2 4135   2.321  -0.005   4.622  0.1374 -0.3134 -0.4024
 1377TIP3   OH2 4136   1.664   1.568   3.793 -0.4648  0.2835  0.5779
 1377TIP3    H1 4137   1.599   1.528   3.851 -0.1404  1.6037  1.9299
 1377TIP3    H2 4138   1.637   1.660   3.786  1.5325  1.0391  1.7148
 1378TIP3   OH2 4139   4.705   5.089   2.108  0.3553  0.0375  0.1205
 1378TIP3    H1 4140   4.626   5.104   2.159  0.3604  2.6712 -0.5154
 1378TIP3    H2 4141   4.774   5.076   2.174 -0.6890 -3.8957  0.7131
 1379TIP3   OH2 4142   2.853   4.313   2.041 -0.4876 -0.0156  0.2176
 1379TIP3    H1 4143   2.947   4.295   2.031 -0.3686  0.2858  0.7417
 1379TIP3    H2 4144   2.812   4.226   2.044 -0.2709 -0.1425 -0.3934
 1380TIP3   OH2 4145   5.817   3.098   3.706 -0.1564 -0.4532 -0.5588
 1380TIP3    H1 4146   5.758   3.116   3.780  0.0763 -1.8971  0.0280
 1380TIP3    H2 4147   5.770   3.033   3.653 -0.2410  0.4341 -1.6027
 1381TIP3   OH2 4148   4.340   5.056   4.383  0.4041  0.1221 -0.1532
 1381TIP3    H1 4149   4.298   4.970   4.391 -2.7151  1.6151  0.8274
 1381TIP3    H2 4150   4.273   5.118   4.409  3.3561  2.7717  1.8596
 1382TIP3   OH2 4151   4.919   3.110   0.745  0.6566  0.2638  0.1949
 1382TIP3    H1 4152   4.880   3.078   0.663  1.4393 -0.6450  0.1624
 1382TIP3    H2 4153   4.909   3.038   0.807  2.2651 -0.0251  0.1798
 1383TIP3   OH2 4154   3.273   2.137   1.061 -0.4238 -0.4242 -0.0318
 1383TIP3    H1 4155   3.350   2.183   1.028 -1.1932  2.5808  1.9900
 1383TIP3    H2 4156   3.294   2.044   1.050  2.1483  0.3145 -2.3391
 1384TIP3   OH2 4157   2.708   5.606   0.727  0.0062 -0.1553 -0.3697
 1384TIP3    H1 4158   2.619   5.609   0.692  0.2496 -0.7804 -1.0791
 1384TIP3    H2 4159   2.764   5.619   0.651  0.5909 -3.0342 -0.5258
 1385TIP3   OH2 4160   3.194   2.491   4.828  0.1493 -0.1761  0.2495
 1385TIP3    H1 4161   3.243   2.515   4.907 -0.9715 -0.8619  1.1987
 1385TIP3    H2 4162   3.251   2.516   4.755  1.3648  0.1618  1.2780
 1386TIP3   OH2 4163   3.462   5.491   3.035 -0.1914 -0.2987 -0.0649
 1386TIP3    H1 4164   3.393   5.426   3.046  0.5210 -1.1856 -0.6325
 1386TIP3    H2 4165   3.541   5.448   3.069  0.1821  0.4880  0.0870
 1387TIP3   OH2 4166   1.429   3.212   3.565  0.2780  0.1579 -0.0116
 1387TIP3    H1 4167   1.352   3.155   3.559 -0.9660  1.8525 -1.2566
 1387TIP3    H2 4168   1.470   3.207   3.479 -0.1479  1.4723 -0.3179
 1388TIP3   OH2 4169   1.295   2.858   4.261 -0.4395 -0.4975 -0.2279
 1388TIP3    H1 4170   1.303   2.763   4.266  0.5085 -0.5268 -1.7668
 1388TIP3    H2 4171   1.376   2.886   4.220 -0.0196  1.1418  1.5662
 1389TIP3   OH2 4172   2.154   3.904   1.728  0.5229  0.2404  0.9063
 1389TIP3    H1 4173   2.070   3.921   1.685  0.5266  1.4706  1.3267
 1389TIP3    H2 4174   2.132   3.850   1.804  0.1495  0.2614  0.8174
 1390TIP3   OH2 4175   3.228   3.111   5.096  0.1265  0.3678 -0.0126
 1390TIP3    H1 4176   3.256   3.199   5.068  1.1177  0.0155 -0.1426
 1390TIP3    H2 4177   3.308   3.060   5.101 -0.6378 -1.3035 -2.5487
 1391TIP3   OH2 4178   5.015   1.494   3.683  0.3416 -0.2634  0.2276
 1391TIP3    H1 4179   5.042   1.566   3.626 -1.1459 -0.9406 -1.4335
 1391TIP3    H2 4180   4.976   1.537   3.759  3.6089  0.6781  1.5381
 1392TIP3   OH2 4181   5.000   0.983   0.335 -0.0214  0.1611 -0.0263
 1392TIP3    H1 4182   5.062   0.923   0.375  0.9598  1.9428  1.2738
 1392TIP3    H2 4183   4.950   0.929   0.274  2.9231 -1.3127 -1.3203
 1393TIP3   OH2 4184   4.681   5.878   1.015 -0.0301  0.3366  0.7303
 1393TIP3    H1 4185   4.652   5.787   1.003  0.2239 -0.0066  2.4084
 1393TIP3    H2 4186   4.631   5.909   1.091 -1.1189  2.0874 -0.6397
 1394TIP3   OH2 4187   3.730   4.708   1.764 -0.5755  0.5117  0.0792
 1394TIP3    H1 4188   3.734   4.697   1.669  0.8437  0.2679  0.1446
 1394TIP3    H2 4189   3.671   4.639   1.794 -1.6901  1.0989 -0.6857
 1395TIP3   OH2 4190   4.925   1.189   1.129  0.2312  0.2886  0.0721
 1395TIP3    H1 4191   5.016   1.172   1.153  0.2258  1.0856  0.6961
 1395TIP3    H2 4192   4.882   1.212   1.212 -0.7394 -0.8868 -0.0745
 1396TIP3   OH2 4193   1.388   3.225   4.658 -0.0191  0.0062  0.4981
 1396TIP3    H1 4194   1.351   3.282   4.590 -0.2762 -3.4760 -2.5710
 1396TIP3    H2 4195   1.482   3.244   4.657  0.3018 -1.2442 -2.3415
 1397TIP3   OH2 4196   2.812   1.648   3.864  0.0015 -0.1744  0.1693
 1397TIP3    H1 4197   2.756   1.636   3.941 -0.4564  1.3482  0.1126
 1397TIP3    H2 4198   2.898   1.670   3.900  0.0549 -0.5073  0.2470
 1398TIP3   OH2 4199   5.906   3.555   4.195  0.1740  0.4725 -0.1090
 1398TIP3    H1 4200   5.938   3.530   4.282  1.0910  0.7080 -0.3643
 1398TIP3    H2 4201   5.934   3.484   4.138  1.3371  1.2433 -0.5463
 1399TIP3   OH2 4202   3.315   2.502   2.846 -0.3346 -0.0331  0.3046
 1399TIP3    H1 4203   3.368   2.579   2.867  0.9470 -0.3618 -1.5214
 1399TIP3    H2 4204   3.240   2.508   2.906  0.0729  2.2381  0.6890
 1400TIP3   OH2 4205   0.550   0.156   4.931  0.0552 -0.2331 -0.0305
 1400TIP3    H1 4206   0.522   0.243   4.901 -0.7715 -0.3148  0.4670
 1400TIP3    H2 4207   0.471   0.103   4.926  0.2558 -0.6346  0.8546
 1401TIP3   OH2 4208   3.258   1.959   2.329  0.1482  0.9353 -0.3137
 1401TIP3    H1 4209   3.189   2.021   2.304 -1.7444 -0.4703  1.1642
 1401TIP3    H2 4210   3.242   1.882   2.274 -0.3180  0.1024  0.9462
 1402TIP3   OH2 4211   4.355   3.617   2.676  0.6002 -0.3350 -0.7970
 1402TIP3    H1 4212   4.344   3.562   2.753 -0.3398  1.3506  0.3348
 1402TIP3    H2 4213   4.268   3.621   2.636  0.5536  0.6798 -0.6063
 1403TIP3   OH2 4214   2.336   4.307   4.958 -0.4307  0.4586 -0.5076
 1403TIP3    H1 4215   2.421   4.320   4.999  0.3053 -1.3456 -1.3547
 1403TIP3    H2 4216   2.282   4.378   4.993  0.6774  0.1798  1.9940
 1404TIP3   OH2 4217   0.354   1.179   0.763 -0.0821  0.1742 -0.6373
 1404TIP3    H1 4218   0.273   1.174   0.713  0.9451 -0.4299 -2.3120
 1404TIP3    H2 4219   0.421   1.147   0.704  1.3561  0.3675  0.8133
 1405TIP3   OH2 4220   0.851   5.828   3.701 -0.1756  0.0799 -0.3016
 1405TIP3    H1 4221   0.917   5.883   3.742  1.9058 -0.3723 -2.7679
 1405TIP3    H2 4222   0.807   5.886   3.638 -1.1725  0.0004  0.2896
 1406TIP3   OH2 4223   1.303   3.711   2.388 -0.0755 -0.2519  0.5138
 1406TIP3    H1 4224   1.265   3.721   2.475  2.3815 -1.2990  1.8206
 1406TIP3    H2 4225   1.379   3.770   2.388  0.2658 -0.6554 -0.7301
 1407TIP3   OH2 4226   2.112   4.296   4.063 -0.3633  0.5152  0.4687
 1407TIP3    H1 4227   2.067   4.255   3.989  0.8390  1.2560 -0.7344
 1407TIP3    H2 4228   2.104   4.233   4.134  1.0570 -1.6689 -1.1776
 1408TIP3   OH2 4229   2.928   0.286   2.101 -0.3789 -0.3217  0.2975
 1408TIP3    H1 4230   2.914   0.192   2.103 -0.7083 -0.3012 -0.7044
 1408TIP3    H2 4231   3.000   0.301   2.162  0.8041 -1.4234 -0.7712
 1409TIP3   OH2 4232   3.773   3.578   4.141  0.1024  0.5067 -0.1095
 1409TIP3    H1 4233   3.783   3.528   4.060 -2.1480 -0.0879 -0.0871
 1409TIP3    H2 4234   3.767   3.669   4.112  0.5848  0.4231 -0.4856
 1410TIP3   OH2 4235   1.732   0.212   0.347 -0.3006  0.3902  0.1222
 1410TIP3    H1 4236   1.768   0.174   0.427  1.3827  2.5490  0.4767
 1410TIP3    H2 4237   1.804   0.265   0.311 -1.0178 -0.4363 -2.8065
 1411TIP3   OH2 4238   4.456   1.392   4.427 -0.3198  0.7278 -0.3644
 1411TIP3    H1 4239   4.539   1.345   4.420 -0.4509  0.4632 -0.1280
 1411TIP3    H2 4240   4.469   1.452   4.500 -1.0827 -0.8543  1.1331
 1412TIP3   OH2 4241   1.833   4.986   0.541  0.5720 -0.2463 -0.2393
 1412TIP3    H1 4242   1.858   4.912   0.486  0.7268 -0.4928  0.1630
 1412TIP3    H2 4243   1.814   5.057   0.479 -0.8058 -0.9876 -0.6994
 1413TIP3   OH2 4244   5.862   2.220   2.805 -0.4499 -0.0639 -0.1951
 1413TIP3    H1 4245   5.880   2.194   2.714  0.9425 -0.8147  0.2576
 1413TIP3    H2 4246   5.945   2.255   2.836 -0.5713 -0.8873  1.1256
 1414TIP3   OH2 4247   0.675   2.046   2.135 -0.3249  0.1811 -0.6953
 1414TIP3    H1 4248   0.626   2.072   2.213  0.1224  3.5159 -1.3859
 1414TIP3    H2 4249   0.767   2.057   2.159 -0.1710  0.9830 -1.5826
 1415TIP3   OH2 4250   5.734   1.272   4.950 -0.6363 -0.2943 -0.5428
 1415TIP3    H1 4251   5.754   1.178   4.951 -1.5000 -0.4851  1.1670
 1415TIP3    H2 4252   5.681   1.284   4.871 -2.0831 -1.6014  0.1919
 1416TIP3   OH2 4253   3.677   1.470   2.918  0.1482 -0.7845 -0.4071
 1416TIP3    H1 4254   3.584   1.450   2.905 -0.1561  0.5500 -0.4445
 1416TIP3    H2 4255   3.686   1.485   3.012  0.2173 -0.4255 -0.4688
 1417TIP3   OH2 4256   3.604   1.648   3.897 -0.1732  0.0222 -0.0342
 1417TIP3    H1 4257   3.602   1.590   3.821 -0.8168 -0.0861  0.0566
 1417TIP3    H2 4258   3.671   1.714   3.877  0.2390 -0.4826 -0.3345
 1418TIP3   OH2 4259   3.201   2.771   4.770 -0.3960  0.1012  0.2585
 1418TIP3    H1 4260   3.192   2.866   4.774 -1.6627  0.0097  0.0067
 1418TIP3    H2 4261   3.210   2.744   4.861  2.6964  0.6527  0.2156
 1419TIP3   OH2 4262   3.541   3.955   2.171 -0.0576  0.3144 -0.0707
 1419TIP3    H1 4263   3.500   4.037   2.142  0.3883  0.8022  0.6661
 1419TIP3    H2 4264   3.594   3.928   2.096  0.9855  1.4965  0.2106
 1420TIP3   OH2 4265   2.401   0.748   1.178 -0.1126  0.4149  0.1057
 1420TIP3    H1 4266   2.391   0.687   1.105  0.6736  1.7351 -1.1962
 1420TIP3    H2 4267   2.321   0.801   1.176 -0.6782 -0.3901  1.0639
 1421TIP3   OH2 4268   2.245   5.927   4.609  0.0491  0.0742 -0.1707
 1421TIP3    H1 4269   2.334   5.918   4.575  0.6992  1.2789  1.1022
 1421TIP3    H2 4270   2.238   5.859   4.676 -0.0039 -0.0340 -0.2849
 1422TIP3   OH2 4271   1.457   1.177   3.807  0.3870 -0.2082 -0.5290
 1422TIP3    H1 4272   1.545   1.213   3.819  0.0499  0.9410 -1.3970
 1422TIP3    H2 4273   1.471   1.082   3.802  1.4761 -0.1043  0.1445
 1423TIP3   OH2 4274   0.295   2.067   0.014 -0.2635  0.4508  0.3952
 1423TIP3    H1 4275   0.369   2.032   0.064  0.0504  0.4588 -0.0596
 1423TIP3    H2 4276   0.328   2.075  -0.075 -1.4835 -1.8026 -0.3615
 1424TIP3   OH2 4277   3.011   0.420   5.040  0.2661 -0.0662 -0.3521
 1424TIP3    H1 4278   2.941   0.452   5.096  0.5465 -0.9588  0.5455
 1424TIP3    H2 4279   2.984   0.444   4.951 -1.5798 -1.0596 -0.1124
 1425TIP3   OH2 4280   1.126   4.716   1.693  0.5720  0.1853 -0.1006
 1425TIP3    H1 4281   1.068   4.657   1.644 -0.1448  0.7484  0.0479
 1425TIP3    H2 4282   1.182   4.657   1.745 -1.6502 -0.4109  1.8102
 1426TIP3   OH2 4283   2.902   1.374   3.314  0.0174 -0.0948  0.5800
 1426TIP3    H1 4284   2.811   1.367   3.342 -0.2274  0.9111  0.0863
 1426TIP3    H2 4285   2.916   1.299   3.256 -0.4934 -0.2417  0.6438
 1427TIP3   OH2 4286   0.663   0.584   4.522 -0.6858 -0.3505  0.2452
 1427TIP3    H1 4287   0.676   0.508   4.580 -0.1968 -1.0301 -0.7262
 1427TIP3    H2 4288   0.577   0.618   4.547 -0.8704 -1.1632  0.7761
 1428TIP3   OH2 4289   5.575   4.136   2.702  0.4035  0.4752  0.0405
 1428TIP3    H1 4290   5.579   4.041   2.687 -0.9711  0.2670  0.8099
 1428TIP3    H2 4291   5.601   4.175   2.619  0.5829 -0.5881 -0.4134
 1429TIP3   OH2 4292   0.510   0.363   1.876 -0.8840 -0.4849  0.3173
 1429TIP3    H1 4293   0.462   0.282   1.861 -0.5147 -0.5519 -0.5649
 1429TIP3    H2 4294   0.587   0.356   1.820 -0.6123  0.2740  0.5827
 1430TIP3   OH2 4295   2.355   4.133   0.986  0.4479 -0.6960 -0.2739
 1430TIP3    H1 4296   2.268   4.160   1.014  1.0944  0.6089  0.5871
 1430TIP3    H2 4297   2.410   4.144   1.063  1.3487 -1.7055 -0.7410
 1431TIP3   OH2 4298   3.210   5.762   1.560 -0.3767  0.3803  0.4794
 1431TIP3    H1 4299   3.304   5.747   1.545 -0.0877  2.3057  0.0112
 1431TIP3    H2 4300   3.195   5.731   1.649  1.0401  1.2795  1.0747
 1432TIP3   OH2 4301   6.113   2.466   4.144  0.4864 -0.3543  0.4447
 1432TIP3    H1 4302   6.053   2.393   4.128  1.0908 -1.0113  1.1512
 1432TIP3    H2 4303   6.121   2.509   4.058  0.6885 -1.5392 -0.1483
 1433TIP3   OH2 4304   3.017   5.826   0.044 -0.6560 -0.3168 -0.7129
 1433TIP3    H1 4305   3.108   5.853   0.038  0.0355 -1.6430  2.1995
 1433TIP3    H2 4306   3.008   5.755  -0.019 -0.0580  0.6370 -1.9040
 1434TIP3   OH2 4307   4.670   3.768   1.012  0.0833  0.3169  0.0913
 1434TIP3    H1 4308   4.762   3.792   1.002  0.8951 -1.7777  1.6862
 1434TIP3    H2 4309   4.655   3.772   1.107 -0.5242 -2.3028  0.1743
 1435TIP3   OH2 4310   3.580   0.045   4.961  0.4787  0.2787  0.0370
 1435TIP3    H1 4311   3.540   0.047   4.874  1.8653  1.6002 -0.5988
 1435TIP3    H2 4312   3.533  -0.025   5.007 -1.4821  0.7322 -1.1651
 1436TIP3   OH2 4313   0.689   3.627   3.003  0.2293  0.0266  0.2016
 1436TIP3    H1 4314   0.684   3.665   3.090 -0.5426  1.6410 -0.5108
 1436TIP3    H2 4315   0.777   3.647   2.973  0.7427 -1.1530  0.8493
 1437TIP3   OH2 4316   0.968   1.261   2.576 -0.1575  0.1547 -0.2156
 1437TIP3    H1 4317   1.041   1.269   2.515  1.2527 -0.2298  1.3530
 1437TIP3    H2 4318   0.915   1.339   2.560  0.3487  0.2256 -1.6777
 1438TIP3   OH2 4319   3.429   0.770   4.382  0.5025 -0.4167  0.3472
 1438TIP3    H1 4320   3.430   0.865   4.372  0.8061 -0.5613 -1.2865
 1438TIP3    H2 4321   3.511   0.749   4.426  1.0315 -0.0111 -0.4225
 1439TIP3   OH2 4322   0.283   1.399   4.576 -0.3239  0.0650  0.2369
 1439TIP3    H1 4323   0.329   1.331   4.625 -0.4186  0.0951  0.3687
 1439TIP3    H2 4324   0.195   1.362   4.562 -0.8723  0.7874  1.6497
 1440TIP3   OH2 4325   1.262   4.254   1.216  0.0100  0.2775  0.0311
 1440TIP3    H1 4326   1.171   4.283   1.224  0.0462  0.8387 -1.2707
 1440TIP3    H2 4327   1.297   4.307   1.144  1.1853 -0.3697  0.1082
 1441TIP3   OH2 4328   0.342   0.889   2.091  0.4601  0.8037 -0.1311
 1441TIP3    H1 4329   0.341   0.984   2.102  0.3802  0.7889 -0.0058
 1441TIP3    H2 4330   0.435   0.868   2.076  0.2440  1.1127 -2.1704
 1442TIP3   OH2 4331   4.457   0.537   2.289  0.4227  0.0490  0.4298
 1442TIP3    H1 4332   4.424   0.619   2.326  0.6183 -0.1711  1.1066
 1442TIP3    H2 4333   4.479   0.559   2.199  0.2074  0.6723  0.5204
 1443TIP3   OH2 4334   5.333   0.199   1.044  0.0059 -0.1593 -0.2296
 1443TIP3    H1 4335   5.386   0.192   0.965  0.7985  0.6785  0.2043
 1443TIP3    H2 4336   5.246   0.168   1.018  0.9399 -2.5923 -0.6787
 1444TIP3   OH2 4337   2.781   2.509   0.778  0.2237  0.0783 -0.4153
 1444TIP3    H1 4338   2.806   2.529   0.868  0.3374  0.1967 -0.4731
 1444TIP3    H2 4339   2.685   2.519   0.776  0.3676  1.5597 -0.6759
 1445TIP3   OH2 4340   3.319   0.804   2.549 -0.0945 -0.0532  0.1063
 1445TIP3    H1 4341   3.285   0.843   2.630 -0.2324 -0.4647  0.2452
 1445TIP3    H2 4342   3.275   0.720   2.542  2.8181 -1.8578  1.7037
 1446TIP3   OH2 4343   4.992   2.510   2.492  0.1403 -0.2768 -0.2733
 1446TIP3    H1 4344   4.965   2.445   2.558 -0.2935 -0.3966 -0.5603
 1446TIP3    H2 4345   5.059   2.465   2.440 -0.1968 -0.5250 -0.5053
 1447TIP3   OH2 4346   0.282   0.969   1.827 -0.4131  0.0402  0.4061
 1447TIP3    H1 4347   0.305   0.911   1.900 -0.4848  0.1548  0.5196
 1447TIP3    H2 4348   0.363   1.015   1.806  0.0404 -1.1426 -0.6398
 1448TIP3   OH2 4349   3.315   0.736   4.091 -0.4696 -0.4221  0.2066
 1448TIP3    H1 4350   3.292   0.730   4.184  2.5190 -0.8371  1.0180
 1448TIP3    H2 4351   3.383   0.803   4.087  0.8407 -1.7533 -1.3418
 1449TIP3   OH2 4352   4.918   0.202   4.204  0.8011 -0.1931 -0.0063
 1449TIP3    H1 4353   4.967   0.171   4.280  2.2089  0.1843 -0.7218
 1449TIP3    H2 4354   4.846   0.253   4.240 -1.8215 -4.2698  1.2804
 1450TIP3   OH2 4355   2.848   0.940   0.319  0.5062 -0.2136  0.2036
 1450TIP3    H1 4356   2.776   0.960   0.260  0.8946  0.3094 -0.0998
 1450TIP3    H2 4357   2.927   0.970   0.273  0.7488  0.8616  1.2618
 1451TIP3   OH2 4358   5.559   0.850   0.640 -0.0231  0.1211 -0.2815
 1451TIP3    H1 4359   5.591   0.890   0.720 -0.0166 -0.6733  0.1231
 1451TIP3    H2 4360   5.638   0.820   0.594  0.0287  1.2669 -0.9735
 1452TIP3   OH2 4361   1.424   1.285   3.134  0.1426  0.8805 -0.0579
 1452TIP3    H1 4362   1.505   1.331   3.110  0.6529 -0.8203 -1.8383
 1452TIP3    H2 4363   1.355   1.334   3.089  0.5746  0.4931 -1.1740
 1453TIP3   OH2 4364   4.206   5.845   1.921 -0.6359  0.2920  0.1606
 1453TIP3    H1 4365   4.273   5.880   1.979 -1.4484  1.6368  0.3379
 1453TIP3    H2 4366   4.242   5.762   1.889  0.1312 -0.1428  2.0160
 1454TIP3   OH2 4367   0.800   1.954   3.293  0.0924  0.5064  0.0094
 1454TIP3    H1 4368   0.756   1.977   3.375  0.3831  1.2949 -0.0448
 1454TIP3    H2 4369   0.787   2.030   3.237 -1.1369 -0.4986 -1.1230
 1455TIP3   OH2 4370   5.794   2.780   1.486 -1.2711  0.0317 -0.1674
 1455TIP3    H1 4371   5.709   2.737   1.482 -1.2244 -0.1175  0.4084
 1455TIP3    H2 4372   5.835   2.745   1.565  0.2293 -1.5916 -1.5866
 1456TIP3   OH2 4373   5.590   4.997   1.967  0.2691 -0.6143  0.5079
 1456TIP3    H1 4374   5.513   4.943   1.951  0.1554 -0.2654 -0.1642
 1456TIP3    H2 4375   5.559   5.087   1.955  0.8529 -0.4833 -0.1249
 1457TIP3   OH2 4376   2.380   1.135   2.468  0.1707  0.0930  0.2055
 1457TIP3    H1 4377   2.337   1.117   2.385  0.4015  0.7319 -0.0532
 1457TIP3    H2 4378   2.450   1.197   2.446  0.2144  0.2868  0.8801
 1458TIP3   OH2 4379   1.515   5.609   0.774 -0.0197  0.1307  0.4699
 1458TIP3    H1 4380   1.561   5.535   0.734 -1.0054 -0.7634  0.9504
 1458TIP3    H2 4381   1.442   5.569   0.822  2.0254  0.9458  4.6406
 1459TIP3   OH2 4382   0.488   5.705   2.818  0.3516  0.2204 -0.1928
 1459TIP3    H1 4383   0.471   5.757   2.739  1.3526 -0.0210 -0.5876
 1459TIP3    H2 4384   0.405   5.705   2.865 -0.0406  1.0433 -0.8519
 1460TIP3   OH2 4385   3.651   0.152   2.823  0.0966 -0.3747 -0.0334
 1460TIP3    H1 4386   3.640   0.147   2.918  1.4390 -1.1301  0.1066
 1460TIP3    H2 4387   3.678   0.243   2.807  1.5692 -0.6790  0.5389
 1461TIP3   OH2 4388   1.930   4.339   5.134 -0.2847  0.4866  0.2157
 1461TIP3    H1 4389   2.000   4.399   5.107  1.4719 -1.6665 -0.3277
 1461TIP3    H2 4390   1.969   4.287   5.204 -1.2597 -0.9302 -0.2558
 1462TIP3   OH2 4391   3.438   1.009   2.162  0.1935  0.2101  0.1621
 1462TIP3    H1 4392   3.419   0.978   2.074 -1.4238 -0.0042  0.5527
 1462TIP3    H2 4393   3.534   1.005   2.169  0.4070  0.8869 -1.7970
 1463TIP3   OH2 4394   3.340   2.945   4.236 -0.5387 -0.1193 -0.2192
 1463TIP3    H1 4395   3.417   2.890   4.222 -1.3149 -0.7287 -2.4612
 1463TIP3    H2 4396   3.275   2.887   4.274 -0.4343 -0.0077  0.1366
 1464TIP3   OH2 4397   3.552   0.599   0.128  0.0370 -0.3988  0.6411
 1464TIP3    H1 4398   3.634   0.647   0.122  0.4874 -0.8004  2.7228
 1464TIP3    H2 4399   3.498   0.650   0.189 -1.0280 -0.4732 -0.1987
 1465TIP3   OH2 4400   1.714   3.913   2.550  0.4083 -0.6700 -0.4670
 1465TIP3    H1 4401   1.714   3.817   2.552  3.2999 -0.7784  2.6697
 1465TIP3    H2 4402   1.681   3.939   2.637  0.2778  1.1846 -1.0223
 1466TIP3   OH2 4403   1.144   0.001   3.834  0.1286 -0.5489 -0.4652
 1466TIP3    H1 4404   1.234  -0.027   3.843 -0.0842 -1.2324 -0.4521
 1466TIP3    H2 4405   1.150   0.085   3.789  0.7908 -0.3822 -0.0817
 1467TIP3   OH2 4406   3.058   1.817   4.011 -0.1859 -0.2451 -0.2094
 1467TIP3    H1 4407   3.059   1.913   4.003 -1.5653 -0.1654  0.2928
 1467TIP3    H2 4408   3.013   1.801   4.095 -0.2958 -1.3333 -0.4698
 1468TIP3   OH2 4409   2.547   0.180   3.420  0.2555  0.0846 -0.2113
 1468TIP3    H1 4410   2.474   0.242   3.421  1.0024  1.0669  1.9763
 1468TIP3    H2 4411   2.568   0.168   3.328 -2.3855  0.0633 -0.8859
 1469TIP3   OH2 4412   4.231   4.203   0.529 -0.5147  0.0436 -0.3987
 1469TIP3    H1 4413   4.259   4.125   0.480 -0.2507 -1.3343  1.7802
 1469TIP3    H2 4414   4.151   4.175   0.573 -0.0744  0.7735  0.9245
 1470TIP3   OH2 4415   4.580   3.518   3.159  0.5109 -0.2006 -0.5868
 1470TIP3    H1 4416   4.581   3.579   3.085 -0.2415  1.3997  0.6602
 1470TIP3    H2 4417   4.622   3.566   3.230 -1.6441 -0.4018  0.9279
 1471TIP3   OH2 4418   3.920   1.754   4.377 -0.2612 -0.4661 -0.6061
 1471TIP3    H1 4419   3.868   1.833   4.394  0.0039 -0.7132  1.6699
 1471TIP3    H2 4420   3.881   1.716   4.298  0.2951  2.4699 -2.4646
 1472TIP3   OH2 4421   2.858   1.104   0.872  0.2534 -0.4444 -0.6099
 1472TIP3    H1 4422   2.803   1.074   0.945  0.4888  1.1704  0.2876
 1472TIP3    H2 4423   2.824   1.057   0.796  0.0889 -2.2967  0.5318
 1473TIP3   OH2 4424   5.888   2.651   4.959 -0.6234  0.1177 -0.3636
 1473TIP3    H1 4425   5.941   2.621   5.033 -2.6235 -2.4125  0.2058
 1473TIP3    H2 4426   5.805   2.604   4.969 -2.5034  2.8413 -1.9531
 1474TIP3   OH2 4427   3.807   2.909   4.834  0.1822 -0.0678  0.4582
 1474TIP3    H1 4428   3.835   2.836   4.778 -0.1674  0.7433 -0.8320
 1474TIP3    H2 4429   3.773   2.867   4.913 -0.7839 -1.3585 -0.5999
 1475TIP3   OH2 4430   6.017   2.412   0.001 -0.2156  0.3671 -0.1497
 1475TIP3    H1 4431   6.031   2.488   0.058 -0.7551  0.1834  0.2315
 1475TIP3    H2 4432   6.011   2.338   0.061 -0.8274  0.1785 -0.4452
 1476TIP3   OH2 4433   4.094   0.394   2.896  0.0583  0.5951  0.2082
 1476TIP3    H1 4434   4.119   0.440   2.815 -1.0331  1.0447  0.1022
 1476TIP3    H2 4435   4.048   0.316   2.866  0.8865  0.0294  0.3971
 1477TIP3   OH2 4436   3.086   3.386   0.987 -0.6034 -0.6319 -0.2042
 1477TIP3    H1 4437   3.056   3.295   0.978  0.3782 -1.0727  0.7667
 1477TIP3    H2 4438   3.118   3.392   1.077  1.5300 -0.0046 -0.9475
 1478TIP3   OH2 4439   4.132   0.363   4.109 -0.3200  0.2021  0.5179
 1478TIP3    H1 4440   4.181   0.414   4.045 -0.9468 -0.8896 -0.8777
 1478TIP3    H2 4441   4.043   0.398   4.105 -0.4602 -0.1557  0.4735
 1479TIP3   OH2 4442   5.542   2.363   0.833  0.0739 -0.1110  0.4493
 1479TIP3    H1 4443   5.581   2.411   0.760 -2.7854 -0.2681 -1.3610
 1479TIP3    H2 4444   5.539   2.272   0.803  0.2514 -0.4500  1.4300
 1480TIP3   OH2 4445   4.766   4.400   4.435  0.3479 -0.6057 -0.3300
 1480TIP3    H1 4446   4.811   4.440   4.509 -0.1749  0.3518 -0.5147
 1480TIP3    H2 4447   4.715   4.328   4.473 -1.0472  0.7560  0.4970
 1481TIP3   OH2 4448   0.985   4.642   0.124  0.7166 -0.0409  0.1582
 1481TIP3    H1 4449   0.956   4.654   0.214  2.1504 -0.1701  0.6644
 1481TIP3    H2 4450   0.910   4.603   0.080 -0.2610  0.6975  1.1076
 1482TIP3   OH2 4451   1.288   0.438   1.436 -0.1095 -0.1272 -0.4468
 1482TIP3    H1 4452   1.272   0.472   1.525 -0.1488 -0.0684 -0.4762
 1482TIP3    H2 4453   1.282   0.343   1.445  0.6190 -0.1607 -0.2385
 1483TIP3   OH2 4454   2.037   5.826   4.855  0.8257  0.3347  0.4321
 1483TIP3    H1 4455   2.024   5.768   4.780  0.2005  0.5392  0.3798
 1483TIP3    H2 4456   2.132   5.833   4.863  0.9161 -1.0094  0.6934
 1484TIP3   OH2 4457   3.525   0.152   1.809  0.4701 -0.3554  0.2061
 1484TIP3    H1 4458   3.508   0.110   1.725  1.9176 -1.2459  0.3193
 1484TIP3    H2 4459   3.569   0.235   1.786 -1.3150  0.5910  0.0300
 1485TIP3   OH2 4460   1.819   1.965   3.430  0.7619  0.0398 -0.2212
 1485TIP3    H1 4461   1.789   1.886   3.476 -2.3514  0.7606 -0.7966
 1485TIP3    H2 4462   1.805   1.945   3.337  1.4721  0.6949 -0.4725
 1486TIP3   OH2 4463   2.862   0.983   4.806 -0.3399 -0.3169  0.2023
 1486TIP3    H1 4464   2.853   1.031   4.889 -1.8570 -0.0017 -0.1084
 1486TIP3    H2 4465   2.955   0.986   4.787 -0.4378  4.0494 -0.6566
 1487TIP3   OH2 4466   3.496   1.983   4.402 -1.2696 -0.3460 -0.2459
 1487TIP3    H1 4467   3.532   2.023   4.481 -0.4916  1.6438 -1.5276
 1487TIP3    H2 4468   3.552   1.907   4.386 -0.5236  0.0716  0.3107
 1488TIP3   OH2 4469   2.358   5.170   2.099 -0.5672  0.0052  0.0177
 1488TIP3    H1 4470   2.315   5.086   2.116 -0.8797 -0.0677 -1.0667
 1488TIP3    H2 4471   2.441   5.165   2.148 -0.9263 -0.6177  0.5794
 1489TIP3   OH2 4472   5.103   1.062   4.028  0.2018  0.1123 -0.7906
 1489TIP3    H1 4473   5.114   0.986   3.971 -1.1820 -1.5444  1.0281
 1489TIP3    H2 4474   5.027   1.041   4.082  2.2153  0.8763  2.6590
 1490TIP3   OH2 4475   0.662   1.410   2.957 -0.0661 -0.5839  0.0176
 1490TIP3    H1 4476   0.626   1.493   2.926 -1.5843 -1.5089 -0.7732
 1490TIP3    H2 4477   0.742   1.398   2.905  0.1295  0.3166  0.0862
 1491TIP3   OH2 4478   5.338   0.491   0.472 -0.1377 -0.2709 -0.5278
 1491TIP3    H1 4479   5.289   0.550   0.414 -1.2171 -0.1888  0.4451
 1491TIP3    H2 4480   5.399   0.447   0.413  2.1287  3.1752 -1.0715
 1492TIP3   OH2 4481   3.377   5.088   4.830 -0.1886 -0.0197  0.0947
 1492TIP3    H1 4482   3.466   5.078   4.865 -0.6658  0.8888  1.6406
 1492TIP3    H2 4483   3.359   5.182   4.837 -1.0478 -0.1068 -0.7893
 1493TIP3   OH2 4484   2.654   2.020   3.044  0.5639  0.0163  0.1077
 1493TIP3    H1 4485   2.595   1.977   2.982  0.9338 -0.9642  0.4319
 1493TIP3    H2 4486   2.726   1.959   3.056  2.0375  1.4606 -0.8066
 1494TIP3   OH2 4487   5.139   2.340   0.856  0.3854 -0.2015  0.0020
 1494TIP3    H1 4488   5.052   2.339   0.817 -0.7706 -0.1569  2.3954
 1494TIP3    H2 4489   5.166   2.249   0.856 -0.6709 -0.5489  1.2313
 1495TIP3   OH2 4490   2.955   0.198   0.435  0.1366  0.1133  0.1822
 1495TIP3    H1 4491   3.040   0.169   0.402  1.6986  2.4917  1.8009
 1495TIP3    H2 4492   2.975   0.244   0.516 -2.8100  0.1998  0.9785
 1496TIP3   OH2 4493   4.933   2.823   1.704  0.0981  0.1065  0.1596
 1496TIP3    H1 4494   4.919   2.786   1.617 -1.4292 -0.0477  0.4518
 1496TIP3    H2 4495   4.867   2.781   1.759  1.2037  0.0154  1.4657
 1497TIP3   OH2 4496   3.371   4.752   5.059 -0.1057  0.0660 -0.0589
 1497TIP3    H1 4497   3.321   4.824   5.022  0.4468  0.7638  0.5114
 1497TIP3    H2 4498   3.330   4.736   5.144 -1.2008 -1.3483 -0.7987
 1498TIP3   OH2 4499   2.080   0.183   4.605  0.2722  0.0134 -0.2944
 1498TIP3    H1 4500   2.044   0.221   4.525 -0.4140 -1.8007 -0.9097
 1498TIP3    H2 4501   2.165   0.226   4.617 -1.0816  2.8094 -0.0346
 1499TIP3   OH2 4502   2.364   2.117   2.987 -0.2821  0.3085 -0.1494
 1499TIP3    H1 4503   2.429   2.130   3.056 -0.1327 -1.2564  0.0342
 1499TIP3    H2 4504   2.282   2.147   3.025  0.1422  1.3430 -0.0223
 1500TIP3   OH2 4505   0.107   4.124   3.868 -0.4685  0.5648  0.0259
 1500TIP3    H1 4506   0.148   4.207   3.890  1.3672 -0.8159  2.3153
 1500TIP3    H2 4507   0.134   4.065   3.938 -2.6256 -1.6896 -0.9023
 1501TIP3   OH2 4508   4.289   1.899   1.324  0.5424 -0.2302 -0.3722
 1501TIP3    H1 4509   4.264   1.809   1.302 -2.1295 -0.1735  1.9900
 1501TIP3    H2 4510   4.232   1.953   1.269 -2.2555 -0.1068  2.3972
 1502TIP3   OH2 4511   0.227   4.273   3.231 -0.2925 -0.0381 -0.3325
 1502TIP3    H1 4512   0.243   4.367   3.225  0.9519 -0.3135 -2.3544
 1502TIP3    H2 4513   0.213   4.256   3.324  3.0814  1.5895  0.6042
 1503TIP3   OH2 4514   1.515   2.225   0.454 -0.3880  0.2305 -0.6408
 1503TIP3    H1 4515   1.582   2.205   0.388  0.7753  0.1919  0.5093
 1503TIP3    H2 4516   1.544   2.307   0.494  0.9743 -1.4866  2.2461
 1504TIP3   OH2 4517   1.106   0.586   2.633  0.6630  0.5093  0.4124
 1504TIP3    H1 4518   1.191   0.627   2.617  0.8539  0.4426  1.2616
 1504TIP3    H2 4519   1.043   0.658   2.624  0.7094  0.4046 -1.0363
 1505TIP3   OH2 4520   4.470   0.138   2.110  0.7675 -0.5418 -0.1279
 1505TIP3    H1 4521   4.550   0.087   2.122  0.8500 -0.4852 -0.4482
 1505TIP3    H2 4522   4.485   0.190   2.032 -0.1627 -1.6685 -1.1012
 1506TIP3   OH2 4523   4.291   1.113   0.567  0.1029  0.4873 -0.2769
 1506TIP3    H1 4524   4.261   1.085   0.653  0.0053 -0.7096 -0.6822
 1506TIP3    H2 4525   4.321   1.032   0.525 -0.7336  0.8956 -1.7082
 1507TIP3   OH2 4526   3.165   2.019   4.282 -0.0526 -0.1360 -0.1039
 1507TIP3    H1 4527   3.223   2.089   4.311  1.3592 -1.7305  1.1619
 1507TIP3    H2 4528   3.196   1.998   4.194 -1.0417  1.3607 -0.8328
 1508TIP3   OH2 4529   0.208   1.446   1.293 -0.4907  0.1423 -0.0146
 1508TIP3    H1 4530   0.258   1.437   1.374 -0.2541 -1.3144 -0.2778
 1508TIP3    H2 4531   0.148   1.519   1.308  0.2748  0.5606  1.0731
 1509TIP3   OH2 4532   6.034   5.913   5.121  0.0517  0.1242  0.4703
 1509TIP3    H1 4533   6.006   5.997   5.086  1.1090  1.2055  2.0877
 1509TIP3    H2 4534   5.965   5.889   5.184 -0.1857 -0.1575  0.1037
 1510TIP3   OH2 4535   2.952   4.938   3.423  0.3462 -0.0717 -0.0408
 1510TIP3    H1 4536   2.912   4.937   3.337  0.8183  0.2626 -0.2691
 1510TIP3    H2 4537   2.935   5.026   3.457  0.0494 -0.2440  0.2588
 1511TIP3   OH2 4538   5.873   4.723   0.005 -0.5221  0.1814 -0.0436
 1511TIP3    H1 4539   5.829   4.806  -0.013 -0.0644  0.3928 -0.1983
 1511TIP3    H2 4540   5.890   4.726   0.100 -1.0448 -0.0049  0.0590
 1512TIP3   OH2 4541   0.319   4.760   4.371 -0.0996 -0.9009 -0.0799
 1512TIP3    H1 4542   0.309   4.839   4.319 -0.7489 -0.8996  0.0353
 1512TIP3    H2 4543   0.302   4.688   4.310  1.3916 -1.0053 -0.4059
 1513TIP3   OH2 4544   0.797   0.718   1.187  0.0734 -0.5397  0.2868
 1513TIP3    H1 4545   0.856   0.725   1.262  0.5838  1.9793 -0.2850
 1513TIP3    H2 4546   0.855   0.719   1.111 -0.6211  2.2569 -0.3010
 1514TIP3   OH2 4547   2.226   1.945   4.842  0.7741  0.2574  0.5316
 1514TIP3    H1 4548   2.181   2.000   4.777  1.5391 -0.9744 -1.0966
 1514TIP3    H2 4549   2.306   1.994   4.863  1.8888 -0.5784 -1.5748
 1515TIP3   OH2 4550   4.646   0.687   4.443 -0.4406 -0.0193  0.0698
 1515TIP3    H1 4551   4.707   0.646   4.504  0.3739  0.5501 -0.3349
 1515TIP3    H2 4552   4.589   0.616   4.415  0.0895 -0.5906  0.4018
 1516TIP3   OH2 4553   4.706   5.511   4.554 -0.0316  0.0455  0.4740
 1516TIP3    H1 4554   4.761   5.465   4.618  0.6511  0.7430  0.4012
 1516TIP3    H2 4555   4.709   5.455   4.476 -0.1092 -0.3403  0.7411
 1517TIP3   OH2 4556   1.158   2.731   0.894 -0.1914 -0.4806  0.0773
 1517TIP3    H1 4557   1.247   2.722   0.860  0.6578  1.7982  1.4982
 1517TIP3    H2 4558   1.150   2.661   0.958  0.2961 -1.1644 -0.5879
 1518TIP3   OH2 4559   2.584   0.808   3.297 -0.2356 -0.1440 -0.3765
 1518TIP3    H1 4560   2.639   0.786   3.222 -1.7390 -1.9865 -1.0373
 1518TIP3    H2 4561   2.501   0.835   3.258 -0.7965 -0.3965  0.6161
 1519TIP3   OH2 4562   4.224   0.643   4.784  0.4176 -0.2715  0.3993
 1519TIP3    H1 4563   4.316   0.665   4.799  0.2111  1.1880 -0.3096
 1519TIP3    H2 4564   4.187   0.635   4.872  1.1010 -0.3277  0.6886
 1520TIP3   OH2 4565   5.539   4.138   1.208 -0.4237 -0.2721  0.0308
 1520TIP3    H1 4566   5.525   4.050   1.172 -0.0003 -0.5398  0.4978
 1520TIP3    H2 4567   5.581   4.122   1.293  1.5277  0.4156 -0.7440
 1521TIP3   OH2 4568   6.017   0.877   0.379  0.7369  0.0606 -0.1778
 1521TIP3    H1 4569   6.044   0.894   0.288  0.5223 -0.4689 -0.3464
 1521TIP3    H2 4570   6.068   0.799   0.404  1.1720  0.5062  0.3285
 1522TIP3   OH2 4571   6.325   0.949   0.622 -0.0297  0.4020 -0.0680
 1522TIP3    H1 4572   6.291   0.943   0.712 -1.9474  1.5940 -0.6713
 1522TIP3    H2 4573   6.378   0.869   0.612  0.8890  0.6041  2.3475
 1523TIP3   OH2 4574   0.575   1.346   3.841 -0.0441  0.1444  0.4186
 1523TIP3    H1 4575   0.598   1.427   3.795 -1.8640 -0.0641 -0.9823
 1523TIP3    H2 4576   0.504   1.371   3.900 -0.0275 -0.2624  0.6171
 1524TIP3   OH2 4577   1.237   1.768   0.166 -0.2544  0.0921  0.0655
 1524TIP3    H1 4578   1.325   1.732   0.181 -0.3065 -0.0838 -0.0485
 1524TIP3    H2 4579   1.236   1.850   0.215 -0.0261  0.0938  0.0698
 1525TIP3   OH2 4580   4.846   2.303   1.670  0.4786  0.3224 -0.1120
 1525TIP3    H1 4581   4.935   2.339   1.665  0.0019  1.4034 -1.5627
 1525TIP3    H2 4582   4.812   2.311   1.581 -0.9549 -0.4139  0.3362
 1526TIP3   OH2 4583   1.055   3.120   3.332 -0.0850 -0.0352  0.3192
 1526TIP3    H1 4584   1.097   3.183   3.273 -0.3247 -1.2261 -1.1925
 1526TIP3    H2 4585   0.972   3.099   3.290 -0.4804 -0.5857  1.3284
 1527TIP3   OH2 4586   5.100   4.162   2.026 -0.1388 -0.0606 -0.3456
 1527TIP3    H1 4587   5.048   4.240   2.007  0.2780 -0.0548 -1.5734
 1527TIP3    H2 4588   5.135   4.136   1.941  1.2832 -0.4890  0.3478
 1528TIP3   OH2 4589   4.439   4.727   4.668  0.1720  0.1041  0.2992
 1528TIP3    H1 4590   4.351   4.751   4.640  0.0004  1.0603  1.6044
 1528TIP3    H2 4591   4.453   4.774   4.750  1.6358 -0.5849  0.4876
 1529TIP3   OH2 4592   5.454   0.277   1.413  0.1223  0.5036  0.0997
 1529TIP3    H1 4593   5.533   0.257   1.463  0.6328 -0.2080 -0.9559
 1529TIP3    H2 4594   5.476   0.357   1.366  0.0751  0.5222  0.1099
 1530TIP3   OH2 4595   3.417   5.770   0.384  0.2112 -0.3622  0.6583
 1530TIP3    H1 4596   3.429   5.783   0.478  1.8731  1.9958  0.2210
 1530TIP3    H2 4597   3.443   5.853   0.345  1.8629 -1.9753 -2.0360
 1531TIP3   OH2 4598   4.520   0.684   4.805 -0.4388 -0.2294  0.0107
 1531TIP3    H1 4599   4.530   0.753   4.739 -2.0762  0.5195  0.4933
 1531TIP3    H2 4600   4.608   0.648   4.815 -0.0338 -0.0106 -2.1802
 1532TIP3   OH2 4601   5.902   0.376   2.174 -0.2164  0.0863  0.2887
 1532TIP3    H1 4602   5.862   0.398   2.258 -0.9290  0.5078 -0.1564
 1532TIP3    H2 4603   5.904   0.281   2.172 -0.8911  0.0670  0.4614
 1533TIP3   OH2 4604   5.039   3.946   4.145  0.1205  0.1824  0.2412
 1533TIP3    H1 4605   5.055   3.989   4.229 -0.3149  0.9464 -0.0615
 1533TIP3    H2 4606   5.122   3.955   4.097  0.0856  0.5152  0.2475
 1534TIP3   OH2 4607   5.761   4.287   1.818 -0.1742  0.4200 -0.1824
 1534TIP3    H1 4608   5.791   4.358   1.874 -0.1011 -1.0788  1.7723
 1534TIP3    H2 4609   5.675   4.315   1.788 -0.1180  1.3580  0.4756
 1535TIP3   OH2 4610   4.265   3.787   2.383  0.1794  0.0642  0.0040
 1535TIP3    H1 4611   4.275   3.733   2.304 -0.9144 -1.1470  0.6571
 1535TIP3    H2 4612   4.235   3.726   2.450  3.0855  0.6420  1.9905
 1536TIP3   OH2 4613   4.842   5.933   0.036  0.8653 -0.3560 -0.1944
 1536TIP3    H1 4614   4.799   5.893  -0.040 -2.5907 -0.8584  1.8692
 1536TIP3    H2 4615   4.900   5.864   0.069  1.1428 -0.7036 -1.3349
 1537TIP3   OH2 4616   6.273   5.345   0.675  0.0652  0.4678 -0.0121
 1537TIP3    H1 4617   6.300   5.377   0.589  0.8675 -0.2970 -0.0554
 1537TIP3    H2 4618   6.353   5.344   0.727  0.3204 -2.4158 -0.3159
 1538TIP3   OH2 4619   2.901   4.426   4.425 -0.3982 -0.4029  0.1790
 1538TIP3    H1 4620   2.982   4.450   4.470 -1.2793 -0.1187  1.7281
 1538TIP3    H2 4621   2.907   4.468   4.339  1.3276 -0.8808  0.0424
 1539TIP3   OH2 4622   2.882   0.693   2.294 -0.0064  0.1322 -0.5561
 1539TIP3    H1 4623   2.931   0.659   2.218  1.4973 -0.2675  0.5507
 1539TIP3    H2 4624   2.814   0.628   2.309  0.6781 -0.6206 -0.6113
 1540TIP3   OH2 4625   1.071   1.479   0.150  0.4832  0.6008 -0.0826
 1540TIP3    H1 4626   1.057   1.544   0.081 -0.9366 -0.1204 -0.5177
 1540TIP3    H2 4627   1.067   1.395   0.105  0.6533  0.1518  0.7203
 1541TIP3   OH2 4628   4.273   5.545   4.826 -0.5739 -0.5301 -0.1595
 1541TIP3    H1 4629   4.328   5.561   4.749 -1.3385  0.2522 -0.5638
 1541TIP3    H2 4630   4.334   5.527   4.897  0.1410 -2.7493 -1.2511
 1542TIP3   OH2 4631   5.732   0.507   0.435 -0.7724 -0.3323 -0.5587
 1542TIP3    H1 4632   5.802   0.441   0.438 -0.6170 -0.2260 -1.5864
 1542TIP3    H2 4633   5.696   0.501   0.346  0.4255  2.1734 -1.3112
 1543TIP3   OH2 4634   5.073   0.282   4.843 -0.5043 -0.3193 -0.0999
 1543TIP3    H1 4635   5.093   0.368   4.806  0.5521 -0.6162 -0.2537
 1543TIP3    H2 4636   5.137   0.271   4.914  1.9904 -2.5260 -2.4442
 1544TIP3   OH2 4637   3.590   2.287   0.049  0.0070 -0.5790 -0.0643
 1544TIP3    H1 4638   3.501   2.320   0.041 -0.5152 -1.1417  2.5563
 1544TIP3    H2 4639   3.644   2.366   0.058 -0.1813 -0.2468 -1.5329
 1545TIP3   OH2 4640   5.459   3.607   5.049  0.7005 -0.0507 -0.0094
 1545TIP3    H1 4641   5.470   3.680   5.110 -0.2345 -0.1300  0.2815
 1545TIP3    H2 4642   5.548   3.577   5.031  1.0464  0.5855  0.5725
 1546TIP3   OH2 4643   1.904   2.796   5.047 -0.1822  0.2467  0.0964
 1546TIP3    H1 4644   1.886   2.732   5.116 -0.7131  0.3818  0.0824
 1546TIP3    H2 4645   1.995   2.823   5.063 -0.5796  0.9427  1.2848
 1547TIP3   OH2 4646   1.027   2.657   3.998  0.2341 -0.1484  0.8581
 1547TIP3    H1 4647   0.933   2.658   4.016  0.3706  0.4867  1.6360
 1547TIP3    H2 4648   1.064   2.606   4.069  0.5914  0.6725  1.2811
 1548TIP3   OH2 4649   2.514   3.379   0.955 -0.2396  0.4571 -0.5149
 1548TIP3    H1 4650   2.608   3.378   0.935  0.4184 -0.2606  2.2524
 1548TIP3    H2 4651   2.491   3.471   0.962  1.4506  0.7493  3.3744
 1549TIP3   OH2 4652   6.200   1.075   3.123 -0.0917 -0.2000 -0.4139
 1549TIP3    H1 4653   6.116   1.042   3.157 -0.0795 -1.1922 -1.2929
 1549TIP3    H2 4654   6.177   1.117   3.040  0.2393 -0.2028 -0.5072
 1550TIP3   OH2 4655   4.951   0.645   3.877  0.3235 -0.2935  0.3405
 1550TIP3    H1 4656   4.961   0.661   3.971 -0.5680 -0.4758  0.4798
 1550TIP3    H2 4657   4.944   0.550   3.870  1.9364 -0.4124 -0.0928
 1551TIP3   OH2 4658   5.427   1.359   2.261 -0.5398 -0.2615 -0.1334
 1551TIP3    H1 4659   5.363   1.383   2.194  1.2339  0.0666 -1.8124
 1551TIP3    H2 4660   5.425   1.264   2.263  0.7166 -0.3784 -2.1133
 1552TIP3   OH2 4661   4.403   0.079   1.154 -0.5241 -0.8312 -0.1602
 1552TIP3    H1 4662   4.332   0.136   1.126  0.1028  0.4234  0.7377
 1552TIP3    H2 4663   4.359   0.009   1.203 -1.1723 -0.2704  0.0722
 1553TIP3   OH2 4664   5.845   5.882   2.622 -0.4552  0.1669 -0.1166
 1553TIP3    H1 4665   5.884   5.960   2.662 -0.1224 -0.0546 -0.0020
 1553TIP3    H2 4666   5.845   5.817   2.693  0.5721 -0.3795 -0.5909
 1554TIP3   OH2 4667   2.576   2.625   0.197  0.0928  0.3538  0.3324
 1554TIP3    H1 4668   2.598   2.703   0.249  2.5430 -0.4617  0.6662
 1554TIP3    H2 4669   2.516   2.576   0.252  0.5289  0.8099  1.2464
 1555TIP3   OH2 4670   4.791   2.679   2.139 -0.4660  0.3144  0.0293
 1555TIP3    H1 4671   4.766   2.763   2.101  0.2346  0.9636  0.9522
 1555TIP3    H2 4672   4.822   2.701   2.227  0.1187 -0.8575  0.1351
 1556TIP3   OH2 4673   0.752   1.663   2.091  0.5294  0.1956  0.1533
 1556TIP3    H1 4674   0.791   1.724   2.028  2.2567 -1.1768 -0.2104
 1556TIP3    H2 4675   0.781   1.695   2.177 -0.8385  1.3865  0.2092
 1557TIP3   OH2 4676   4.915   2.494   1.237  0.1862  0.2082 -0.4619
 1557TIP3    H1 4677   4.907   2.539   1.153 -1.1889 -2.5915 -1.9745
 1557TIP3    H2 4678   4.984   2.429   1.224 -1.5610 -1.7910 -0.2860
 1558TIP3   OH2 4679   3.790   5.326   4.122  0.2866 -0.6908  0.0730
 1558TIP3    H1 4680   3.876   5.353   4.153 -0.6821  1.4420  1.1165
 1558TIP3    H2 4681   3.732   5.398   4.145 -1.9897 -2.4448  0.2903
 1559TIP3   OH2 4682   0.842   5.610   1.406 -0.3148  0.4135  0.1234
 1559TIP3    H1 4683   0.749   5.596   1.387 -0.1129 -0.2957 -0.3593
 1559TIP3    H2 4684   0.873   5.526   1.440  0.4065  0.2899 -0.7919
 1560TIP3   OH2 4685   3.884   0.481   1.227  0.1280 -0.4913  0.3721
 1560TIP3    H1 4686   3.828   0.430   1.169 -0.4095 -0.7760  1.1198
 1560TIP3    H2 4687   3.825   0.514   1.294  0.7333 -0.1558  0.7498
 1561TIP3   OH2 4688   5.061   5.483   1.489 -0.8183 -0.0015  0.0351
 1561TIP3    H1 4689   5.023   5.547   1.428  0.7017  0.6850 -0.2354
 1561TIP3    H2 4690   5.012   5.403   1.471 -2.4891  0.9474  0.0853
 1562TIP3   OH2 4691   0.916   3.960   4.264 -0.4177 -0.0498  0.2822
 1562TIP3    H1 4692   0.874   3.943   4.349  0.7604 -0.6091  0.7693
 1562TIP3    H2 4693   0.843   3.981   4.206 -1.1413  2.3401  1.8738
 1563TIP3   OH2 4694   3.360   1.873   0.309  0.3907 -0.2025  0.0492
 1563TIP3    H1 4695   3.277   1.919   0.297  0.8565  1.4152  2.3941
 1563TIP3    H2 4696   3.393   1.861   0.220 -3.2276 -2.8092 -1.1898
 1564TIP3   OH2 4697   4.643   1.110   3.456  0.5419 -0.0982 -0.0924
 1564TIP3    H1 4698   4.633   1.186   3.514 -0.9804  0.8736 -1.5245
 1564TIP3    H2 4699   4.669   1.039   3.514  0.7526  1.2179  1.5025
 1565TIP3   OH2 4700   4.601   1.164   1.166  0.3811 -0.2629  0.1294
 1565TIP3    H1 4701   4.644   1.101   1.108  1.8079  1.8433 -1.2526
 1565TIP3    H2 4702   4.527   1.197   1.116  0.8054  0.5708  0.0359
 1566TIP3   OH2 4703   2.246   4.588   3.899  0.1706 -0.4684 -0.3039
 1566TIP3    H1 4704   2.290   4.672   3.886 -1.2586  0.2708 -0.5430
 1566TIP3    H2 4705   2.161   4.599   3.857 -0.5618 -1.5733  0.8301
 1567TIP3   OH2 4706   3.279   1.437   3.462  0.1231 -0.0533  0.3948
 1567TIP3    H1 4707   3.237   1.420   3.378 -1.6692  0.0915  1.2354
 1567TIP3    H2 4708   3.313   1.352   3.490  1.8433  0.1183 -1.0139
 1568TIP3   OH2 4709   1.511   0.242   0.071 -0.1338 -0.2648  0.2570
 1568TIP3    H1 4710   1.594   0.280   0.040  0.3831 -0.7516  0.9968
 1568TIP3    H2 4711   1.471   0.311   0.123 -1.3987  0.8545 -2.0690
 1569TIP3   OH2 4712   3.650  -0.003   4.513 -0.2845 -0.0405  0.6177
 1569TIP3    H1 4713   3.663   0.059   4.441  1.0388 -2.5740 -1.5104
 1569TIP3    H2 4714   3.739  -0.030   4.537 -0.8265 -1.3571  1.2246
 1570TIP3   OH2 4715   3.504   0.456   5.012  0.3353  0.4436 -0.0474
 1570TIP3    H1 4716   3.519   0.522   4.945 -0.6418  0.1257 -0.6088
 1570TIP3    H2 4717   3.558   0.483   5.086  1.6887  0.6245 -1.0723
 1571TIP3   OH2 4718   2.579   1.300   2.410 -0.2445  0.4360  0.2294
 1571TIP3    H1 4719   2.606   1.375   2.464 -0.4414  0.9882 -0.4206
 1571TIP3    H2 4720   2.609   1.323   2.322 -0.2372 -0.2936  0.0416
 1572TIP3   OH2 4721   3.547   3.612   4.661  0.1647 -0.4845  0.2855
 1572TIP3    H1 4722   3.475   3.577   4.608 -0.5970 -0.1365  1.0811
 1572TIP3    H2 4723   3.623   3.561   4.633 -0.2116 -0.3180 -1.1390
 1573TIP3   OH2 4724   5.695   4.548   1.607  0.1360  0.2057  0.0649
 1573TIP3    H1 4725   5.652   4.468   1.578  0.2495 -0.2556  1.1042
 1573TIP3    H2 4726   5.780   4.518   1.640  1.3269  1.1061 -2.0253
 1574TIP3   OH2 4727   5.223   3.036   0.085 -0.0375  0.1766 -0.2003
 1574TIP3    H1 4728   5.274   3.097   0.032  0.3023  1.6794  1.7392
 1574TIP3    H2 4729   5.136   3.075   0.090  0.0502  0.2980  0.6469
 1575TIP3   OH2 4730   3.108   0.066   0.232 -0.7457 -0.4957  0.3284
 1575TIP3    H1 4731   3.056   0.086   0.154 -0.6066  0.7592  0.5347
 1575TIP3    H2 4732   3.197   0.092   0.208 -0.7260  0.0370  0.9363
 1576TIP3   OH2 4733   1.657   5.560   3.607  0.7272  0.2998  0.0223
 1576TIP3    H1 4734   1.691   5.647   3.586  0.6462  0.0924 -0.9739
 1576TIP3    H2 4735   1.726   5.499   3.580 -0.0409 -0.0663 -1.1715
 1577TIP3   OH2 4736   5.710   4.120   3.193 -0.3075  0.1181  0.5755
 1577TIP3    H1 4737   5.619   4.141   3.176 -0.1576 -0.3609 -0.9676
 1577TIP3    H2 4738   5.720   4.131   3.288 -1.8366  0.6089  0.7031
 1578TIP3   OH2 4739   4.186   0.442   1.259 -0.2668  0.4362  0.6542
 1578TIP3    H1 4740   4.195   0.409   1.348 -1.2115 -2.0652 -0.0917
 1578TIP3    H2 4741   4.092   0.455   1.247 -0.1247  1.0131  0.1114
 1579TIP3   OH2 4742   6.202   2.919   0.918  0.0306  0.0420  0.1513
 1579TIP3    H1 4743   6.208   3.004   0.961  1.0465 -1.2009  2.6242
 1579TIP3    H2 4744   6.235   2.936   0.829 -1.8075  2.6182 -0.1623
 1580TIP3   OH2 4745   1.692   5.838   1.416  0.2869  0.3391  0.6863
 1580TIP3    H1 4746   1.736   5.804   1.338 -1.0119 -0.6484  0.3519
 1580TIP3    H2 4747   1.711   5.932   1.415  2.4891 -0.0470  0.6533
 1581TIP3   OH2 4748   2.951   2.991   4.097  0.7395  0.7709 -0.2273
 1581TIP3    H1 4749   2.910   3.033   4.022 -2.2864 -2.3218 -0.5909
 1581TIP3    H2 4750   3.026   2.944   4.060 -0.7718 -0.8022 -1.4970
 1582TIP3   OH2 4751   2.844   5.467   1.159 -0.0790 -0.1020 -0.4375
 1582TIP3    H1 4752   2.783   5.538   1.180 -0.8787  0.2730 -3.4956
 1582TIP3    H2 4753   2.853   5.472   1.064  1.1097 -3.1198 -0.5611
 1583TIP3   OH2 4754   5.764   0.819   0.476 -0.6368  0.1202  0.1335
 1583TIP3    H1 4755   5.845   0.860   0.446  1.2795 -2.3578  1.6254
 1583TIP3    H2 4756   5.744   0.753   0.410 -0.4134 -0.4888  0.6660
 1584TIP3   OH2 4757   4.428   2.221   3.747  0.0637  0.5099  0.3257
 1584TIP3    H1 4758   4.376   2.151   3.707  0.3065  0.4942  0.0345
 1584TIP3    H2 4759   4.447   2.281   3.675 -3.8584  3.2820  1.2353
 1585TIP3   OH2 4760   4.923   2.241   0.263  1.1222 -0.9598  0.4114
 1585TIP3    H1 4761   4.990   2.309   0.259  1.4184 -1.2016  1.0500
 1585TIP3    H2 4762   4.951   2.176   0.199 -0.1243  0.3198 -1.5628
 1586TIP3   OH2 4763   5.008   2.643   1.031  0.1719 -0.3789 -0.1990
 1586TIP3    H1 4764   5.013   2.592   0.950 -1.6340 -1.9648  0.6000
 1586TIP3    H2 4765   5.074   2.605   1.088  0.3352 -0.3460 -0.3667
 1587TIP3   OH2 4766   2.684   5.853   0.371 -0.3402 -0.0131  0.3899
 1587TIP3    H1 4767   2.729   5.859   0.286 -0.4984  1.2824  0.3776
 1587TIP3    H2 4768   2.712   5.931   0.418 -0.7904 -0.3770  1.2808
 1588TIP3   OH2 4769   4.860   1.576   1.989 -0.3130 -0.3103 -0.1061
 1588TIP3    H1 4770   4.777   1.598   2.031 -0.9775  0.5544 -1.7635
 1588TIP3    H2 4771   4.909   1.529   2.056 -1.1191  1.3648  1.7847
 1589TIP3   OH2 4772   3.371   2.384   0.885  0.6204 -0.1570 -0.3080
 1589TIP3    H1 4773   3.283   2.406   0.917  0.3707 -1.1015 -0.3162
 1589TIP3    H2 4774   3.428   2.451   0.923 -0.1001  0.4556 -0.2920
 1590TIP3   OH2 4775   4.512   5.083   0.802  0.8333  0.4904 -0.5169
 1590TIP3    H1 4776   4.587   5.094   0.861  0.4053 -2.3844  0.7192
 1590TIP3    H2 4777   4.548   5.036   0.727  0.3911 -0.4448 -0.1503
 1591TIP3   OH2 4778   0.402   1.734   0.540  0.0175 -0.5753 -1.0870
 1591TIP3    H1 4779   0.412   1.825   0.512 -0.1851 -0.1499  0.1671
 1591TIP3    H2 4780   0.481   1.691   0.508  1.2853  0.5763  0.3202
 1592TIP3   OH2 4781   4.169   1.384   3.162 -0.1862 -0.2120 -0.2566
 1592TIP3    H1 4782   4.241   1.390   3.226 -2.1513 -2.3522  2.3843
 1592TIP3    H2 4783   4.105   1.448   3.192 -1.9158 -2.4640  1.2219
 1593TIP3   OH2 4784   1.379   3.829   2.611  0.3478 -0.3874  0.1650
 1593TIP3    H1 4785   1.429   3.911   2.617 -0.6342  0.2462 -0.0145
 1593TIP3    H2 4786   1.290   3.853   2.639 -0.1830 -1.1803 -0.7679
 1594TIP3   OH2 4787   1.210   3.803   3.043  0.3716  0.3401  0.0172
 1594TIP3    H1 4788   1.199   3.854   3.123 -2.0401 -1.9209  1.2533
 1594TIP3    H2 4789   1.281   3.742   3.063  0.0487  0.0509  0.2816
 1595TIP3   OH2 4790   4.033   4.154   0.269  0.0243  0.3449  0.2323
 1595TIP3    H1 4791   4.014   4.087   0.204 -0.9952 -0.1333  0.9943
 1595TIP3    H2 4792   3.975   4.227   0.247  0.2973  0.5243  0.0982
 1596TIP3   OH2 4793   5.836   3.754   2.093 -0.0603 -0.0992 -0.2037
 1596TIP3    H1 4794   5.871   3.706   2.019 -1.3170  1.8577 -2.2083
 1596TIP3    H2 4795   5.913   3.784   2.141  0.9755  1.1056 -2.4656
 1597TIP3   OH2 4796   3.278   5.495   3.506 -0.5668  0.3570  0.5163
 1597TIP3    H1 4797   3.356   5.450   3.473 -0.7432  0.3083  0.1600
 1597TIP3    H2 4798   3.205   5.443   3.472 -0.7585  0.5619  0.6181
 1598TIP3   OH2 4799   4.908   5.092   2.317  0.2970  0.4690 -0.2036
 1598TIP3    H1 4800   4.999   5.122   2.312  0.7602 -0.7485  0.5502
 1598TIP3    H2 4801   4.899   5.055   2.404 -0.7789  0.1034 -0.4529
 1599TIP3   OH2 4802   2.918   5.119   3.767 -0.2344  0.3448 -0.3958
 1599TIP3    H1 4803   2.912   5.154   3.678 -0.1359  0.5274 -0.3325
 1599TIP3    H2 4804   2.896   5.194   3.823  0.7059  0.5109 -0.2351
 1600TIP3   OH2 4805   1.146   4.193   1.763  0.7457 -0.1073  0.3745
 1600TIP3    H1 4806   1.120   4.159   1.677 -0.9125  0.6430  0.5413
 1600TIP3    H2 4807   1.110   4.130   1.825  2.8308 -1.2119  0.5373
 1601TIP3   OH2 4808   4.199   3.633   1.378  0.2743 -0.0895  0.3358
 1601TIP3    H1 4809   4.224   3.665   1.291  1.4347  1.2918  1.1257
 1601TIP3    H2 4810   4.157   3.549   1.362 -2.3324  1.4692 -1.8469
 1602TIP3   OH2 4811   0.471   5.107   1.651 -0.2162  0.7713  0.0762
 1602TIP3    H1 4812   0.536   5.057   1.603 -0.9964 -0.9225  0.7129
 1602TIP3    H2 4813   0.444   5.176   1.591 -0.8195 -0.9914 -1.7521
 1603TIP3   OH2 4814   5.445   1.755   1.211 -0.2121 -0.2390  0.2378
 1603TIP3    H1 4815   5.414   1.811   1.140  0.9498 -0.9795 -0.8894
 1603TIP3    H2 4816   5.431   1.665   1.179 -0.9850 -0.6082  1.5398
 1604TIP3   OH2 4817   5.702   1.754   2.151 -0.6404  0.6621  0.4410
 1604TIP3    H1 4818   5.614   1.721   2.170 -0.6520  0.9676  0.9406
 1604TIP3    H2 4819   5.697   1.784   2.060 -0.0941 -2.4319 -0.7259
 1605TIP3   OH2 4820   5.982   0.921   2.775  0.4503  0.0365  0.2402
 1605TIP3    H1 4821   5.890   0.945   2.770  0.6146  0.8676  0.8985
 1605TIP3    H2 4822   6.024   0.997   2.817  1.2615 -0.7311  0.8529
 1606TIP3   OH2 4823   3.825   0.190   4.901  0.8361 -0.0586 -0.9537
 1606TIP3    H1 4824   3.897   0.129   4.918  0.2637 -0.1011  1.9067
 1606TIP3    H2 4825   3.751   0.153   4.951  0.1195  2.2449 -0.1945
 1607TIP3   OH2 4826   6.177   5.035   1.230 -0.3329  0.0812  0.1322
 1607TIP3    H1 4827   6.212   5.057   1.144 -2.7035  0.9407 -0.7032
 1607TIP3    H2 4828   6.248   4.988   1.274  1.4368  0.8512 -1.7446
 1608TIP3   OH2 4829   6.332   4.834   2.515  0.2312 -0.6320 -0.0660
 1608TIP3    H1 4830   6.248   4.877   2.527  0.5406 -0.2945  1.0228
 1608TIP3    H2 4831   6.350   4.791   2.599  1.7180  0.3481  0.1615
 1609TIP3   OH2 4832   0.465   0.717   3.001 -0.3786 -0.1085 -0.3289
 1609TIP3    H1 4833   0.437   0.805   2.976  0.8405  0.1181 -1.0057
 1609TIP3    H2 4834   0.389   0.662   2.985 -0.8185  0.6595 -0.9557
 1610TIP3   OH2 4835   0.350   3.892   3.823 -0.3136  0.0826 -0.2460
 1610TIP3    H1 4836   0.436   3.895   3.780  0.2884  1.0188  0.9710
 1610TIP3    H2 4837   0.341   3.977   3.866 -1.1186 -0.6077  1.0162
 1611TIP3   OH2 4838   1.113   0.079   4.270  0.5258  0.4138 -0.3689
 1611TIP3    H1 4839   1.205   0.052   4.272  0.1397 -0.9521  0.0930
 1611TIP3    H2 4840   1.116   0.172   4.250  2.1451  1.0211  2.2843
 1612TIP3   OH2 4841   4.671   3.352   0.577  0.1987  0.0207  0.2100
 1612TIP3    H1 4842   4.720   3.434   0.585  1.7030 -0.9558  1.6167
 1612TIP3    H2 4843   4.585   3.372   0.613  0.6256  0.9354  0.7667
 1613TIP3   OH2 4844   0.868   1.281   3.226  0.0917 -0.2634 -0.6277
 1613TIP3    H1 4845   0.922   1.241   3.294 -1.2363 -0.7338  0.1948
 1613TIP3    H2 4846   0.930   1.320   3.165  1.3348  0.3934  0.9918
 1614TIP3   OH2 4847   1.780   5.852   3.046  0.1392 -0.9493 -0.0358
 1614TIP3    H1 4848   1.870   5.857   3.014  0.0276 -0.4449 -0.2760
 1614TIP3    H2 4849   1.771   5.762   3.077  0.4287 -1.2821 -0.8815
 1615TIP3   OH2 4850   0.545   2.020   4.958  0.0223  0.5836 -0.2801
 1615TIP3    H1 4851   0.516   1.952   5.018 -0.2247  0.9398  0.0092
 1615TIP3    H2 4852   0.622   1.983   4.915 -0.9802 -0.4542 -1.2223
 1616TIP3   OH2 4853   4.629   2.484   0.972  0.4049  0.0242 -0.1165
 1616TIP3    H1 4854   4.618   2.389   0.982  1.2392 -0.1817 -0.9077
 1616TIP3    H2 4855   4.591   2.503   0.886  0.1836  0.4198  0.0681
 1617TIP3   OH2 4856   0.734   2.931   4.977 -0.2535 -0.1421  0.0435
 1617TIP3    H1 4857   0.803   2.958   5.037 -0.8962  1.8675 -0.0311
 1617TIP3    H2 4858   0.721   3.007   4.920 -0.2902 -1.6541 -2.0811
 1618TIP3   OH2 4859   2.032   2.173   2.186  0.3753  1.0794  0.8660
 1618TIP3    H1 4860   2.036   2.078   2.176 -0.1489  1.1003  0.3199
 1618TIP3    H2 4861   1.963   2.188   2.250  1.2244  1.0623  1.7979
 1619TIP3   OH2 4862   0.759   5.927   3.255 -0.1560  0.4981  0.0089
 1619TIP3    H1 4863   0.696   5.993   3.225 -0.8411  0.3525  1.0598
 1619TIP3    H2 4864   0.787   5.958   3.341 -0.5662 -0.6149  0.5692
 1620TIP3   OH2 4865   4.772   1.353   4.723 -0.0132 -0.4479 -0.1648
 1620TIP3    H1 4866   4.831   1.426   4.746 -1.5767  0.9438 -0.3460
 1620TIP3    H2 4867   4.691   1.373   4.770  0.3761 -3.6850  2.1979
 1621TIP3   OH2 4868   2.124   0.442   2.260 -0.1711  0.3716 -0.0244
 1621TIP3    H1 4869   2.171   0.524   2.272  0.5452 -0.0374  0.0553
 1621TIP3    H2 4870   2.032   0.465   2.267 -0.0705  1.4945 -1.8939
 1622TIP3   OH2 4871   2.732   3.596   4.811 -0.8279  0.1766 -0.2647
 1622TIP3    H1 4872   2.659   3.650   4.842  0.8058  1.6615  1.2236
 1622TIP3    H2 4873   2.795   3.659   4.775  0.6209 -0.8348  0.4066
 1623TIP3   OH2 4874   5.325   4.133   2.798  0.1508  0.1527  0.0814
 1623TIP3    H1 4875   5.307   4.065   2.733  1.8572 -2.1445  1.8644
 1623TIP3    H2 4876   5.414   4.162   2.779  0.1257  0.5150  0.4948
 1624TIP3   OH2 4877   4.381   2.721   4.413 -0.4787 -0.4304  0.4455
 1624TIP3    H1 4878   4.382   2.817   4.413  1.4095 -0.3976 -0.4331
 1624TIP3    H2 4879   4.432   2.696   4.335 -0.2070 -2.1275  1.1131
 1625TIP3   OH2 4880   4.864   0.274   4.523 -0.0005 -0.1305 -0.0611
 1625TIP3    H1 4881   4.906   0.188   4.533 -1.0246 -0.8543 -1.6204
 1625TIP3    H2 4882   4.773   0.259   4.547 -0.2211  0.4768 -0.4897
 1626TIP3   OH2 4883   2.790   4.658   1.253  0.3057  0.1880  0.1487
 1626TIP3    H1 4884   2.770   4.675   1.345 -0.1192  0.5062  0.0018
 1626TIP3    H2 4885   2.738   4.723   1.205 -0.7985 -1.0508 -0.3999
 1627TIP3   OH2 4886   6.269   2.906   4.738 -0.3492  0.4933 -0.0978
 1627TIP3    H1 4887   6.207   2.833   4.729  1.1785 -0.8474 -0.1838
 1627TIP3    H2 4888   6.315   2.888   4.820 -1.7669  2.8586  1.3287
 1628TIP3   OH2 4889   2.587   3.972   2.436 -0.5274 -0.0720 -0.0335
 1628TIP3    H1 4890   2.588   4.066   2.455  0.9666 -0.1424  0.3974
 1628TIP3    H2 4891   2.502   3.942   2.466 -1.1880  1.2120 -0.5450
 1629TIP3   OH2 4892   5.643   1.143   2.025 -0.0037 -0.2343 -0.2002
 1629TIP3    H1 4893   5.711   1.208   2.041 -1.3773  1.2458 -0.1340
 1629TIP3    H2 4894   5.589   1.180   1.955 -0.3787 -1.6715 -0.7183
 1630TIP3   OH2 4895   0.724   4.634   5.147  0.0509 -0.1337 -0.2849
 1630TIP3    H1 4896   0.711   4.685   5.227 -1.0173 -1.8382  0.6736
 1630TIP3    H2 4897   0.724   4.700   5.077 -1.0540  1.2018  0.9044
 1631TIP3   OH2 4898   6.287   2.852   2.632  0.2971 -0.0082  0.2039
 1631TIP3    H1 4899   6.322   2.904   2.703 -0.3432 -1.0470  1.3185
 1631TIP3    H2 4900   6.363   2.833   2.576  0.2504  3.6949 -1.3874
 1632TIP3   OH2 4901   2.256   5.314   0.785 -0.5297  0.3683 -0.5075
 1632TIP3    H1 4902   2.274   5.234   0.735  0.5791  1.8027 -2.5503
 1632TIP3    H2 4903   2.162   5.329   0.773 -0.6898 -0.4567 -0.3510
 1633TIP3   OH2 4904   5.391   0.945   3.098 -0.5700 -0.1069 -0.3121
 1633TIP3    H1 4905   5.324   0.878   3.109  1.1901 -1.7316  1.3224
 1633TIP3    H2 4906   5.453   0.906   3.036  0.2021  0.2408  0.2323
 1634TIP3   OH2 4907   6.354   5.147   5.080  0.4849  0.1347 -0.4121
 1634TIP3    H1 4908   6.284   5.083   5.068 -1.3208  1.9839 -0.3734
 1634TIP3    H2 4909   6.412   5.134   5.005 -1.3706  0.2968 -1.9479
 1635TIP3   OH2 4910   5.240   1.849   1.438 -0.2254  0.2832 -0.5408
 1635TIP3    H1 4911   5.276   1.805   1.361  0.0636  0.6382 -0.6093
 1635TIP3    H2 4912   5.151   1.815   1.445 -0.3879  0.5556 -1.2701
 1636TIP3   OH2 4913   1.226   5.966   1.586  0.4312 -0.1055 -0.5462
 1636TIP3    H1 4914   1.287   5.981   1.514 -0.5769 -0.2291 -1.4300
 1636TIP3    H2 4915   1.167   5.897   1.556 -0.3799  0.2575  0.1516
 1637TIP3   OH2 4916   3.525   4.670   4.678 -0.2752 -0.5495  0.4053
 1637TIP3    H1 4917   3.480   4.588   4.699  1.1453 -1.5170 -0.1641
 1637TIP3    H2 4918   3.616   4.654   4.704 -0.0021  0.8967  0.3913
 1638TIP3   OH2 4919   0.776   1.245   0.360 -0.0111  0.1012  0.0849
 1638TIP3    H1 4920   0.752   1.298   0.285 -0.8215 -0.4401 -0.0532
 1638TIP3    H2 4921   0.816   1.166   0.322 -0.5217 -0.2217  0.2164
 1639TIP3   OH2 4922   2.221   3.446   4.460 -0.6222  0.0265  0.2668
 1639TIP3    H1 4923   2.215   3.537   4.429  2.0871  0.0183 -0.5575
 1639TIP3    H2 4924   2.222   3.453   4.556 -0.7311  0.8382  0.2152
 1640TIP3   OH2 4925   0.674   2.887   0.269  0.6020  0.0776  0.2899
 1640TIP3    H1 4926   0.620   2.855   0.342  0.2729  0.0952  0.0599
 1640TIP3    H2 4927   0.757   2.910   0.309  0.7881 -0.8937  0.4937
 1641TIP3   OH2 4928   2.053   5.819   4.308  0.0510 -0.1566 -0.0209
 1641TIP3    H1 4929   2.094   5.736   4.285 -2.6656 -1.3785 -0.8860
 1641TIP3    H2 4930   2.125   5.874   4.341  2.2005 -2.2443 -0.9844
 1642TIP3   OH2 4931   4.107   5.078   4.003  0.8331 -0.0184  0.2122
 1642TIP3    H1 4932   4.061   5.024   3.940  1.1874 -0.6427  0.4813
 1642TIP3    H2 4933   4.109   5.165   3.963 -2.4222  0.5838  1.1130
 1643TIP3   OH2 4934   2.163   1.569   0.379  0.6878  0.0058  0.1704
 1643TIP3    H1 4935   2.227   1.560   0.450  0.1549  1.5551  0.9118
 1643TIP3    H2 4936   2.125   1.656   0.393 -1.2576 -0.6923 -0.5045
 1644TIP3   OH2 4937   2.647   2.657   2.319 -0.7049 -0.1747 -0.2567
 1644TIP3    H1 4938   2.622   2.603   2.394  1.5420 -1.9265 -0.6663
 1644TIP3    H2 4939   2.595   2.622   2.247 -0.3319 -0.8368 -0.2108
 1645TIP3   OH2 4940   5.130   3.592   2.587  0.0855  0.0684  0.2466
 1645TIP3    H1 4941   5.146   3.511   2.538  0.1011 -0.2772  0.8229
 1645TIP3    H2 4942   5.038   3.586   2.612  0.1645  0.0966  0.5383
 1646TIP3   OH2 4943   1.191   4.636   4.338 -0.0797 -0.0237 -0.0720
 1646TIP3    H1 4944   1.238   4.714   4.311  2.1069 -0.7905  1.2299
 1646TIP3    H2 4945   1.121   4.669   4.394  0.0326  1.0668 -0.5500
 1647TIP3   OH2 4946   3.165   0.395   0.362 -0.3907 -0.0273  0.2931
 1647TIP3    H1 4947   3.217   0.430   0.435 -0.7175  0.7748  0.1575
 1647TIP3    H2 4948   3.078   0.431   0.376 -0.4619  0.1282 -0.4836
 1648TIP3   OH2 4949   3.655   1.571   3.184 -0.3942 -0.0145  0.0979
 1648TIP3    H1 4950   3.594   1.645   3.194  0.3904  0.4798  1.6188
 1648TIP3    H2 4951   3.673   1.543   3.274  1.6481 -0.1109 -0.3011
 1649TIP3   OH2 4952   3.558   1.476   1.628 -0.1671 -0.3920 -0.1371
 1649TIP3    H1 4953   3.553   1.410   1.558 -1.5660 -0.2045 -0.2425
 1649TIP3    H2 4954   3.474   1.522   1.624  0.7609  1.3773 -0.0159
 1650TIP3   OH2 4955   6.177   2.951   3.166 -0.4360 -0.5015  0.1538
 1650TIP3    H1 4956   6.155   2.954   3.073  1.1829  0.0916 -0.2358
 1650TIP3    H2 4957   6.253   2.893   3.172  1.1842  1.5467  0.6856
 1651TIP3   OH2 4958   2.894   4.698   4.708  0.5117  0.2111  0.5401
 1651TIP3    H1 4959   2.803   4.673   4.722  0.2467 -0.4506 -1.8892
 1651TIP3    H2 4960   2.917   4.749   4.785 -2.3970  1.7300  0.5617
 1652TIP3   OH2 4961   2.686   2.324   3.583  0.3024 -0.5585 -0.1090
 1652TIP3    H1 4962   2.592   2.330   3.600  0.3877 -0.9095  0.4870
 1652TIP3    H2 4963   2.701   2.388   3.513 -0.1389  0.5659  0.7739
 1653TIP3   OH2 4964   5.166   2.171   3.575  0.5559 -0.4920  0.1918
 1653TIP3    H1 4965   5.228   2.168   3.503 -0.9479  0.9874 -1.2372
 1653TIP3    H2 4966   5.085   2.134   3.539  0.4823 -2.1824  1.9417
 1654TIP3   OH2 4967   0.296   3.010   4.632 -0.1337 -0.9807  0.1569
 1654TIP3    H1 4968   0.213   3.030   4.589  0.4040 -0.4163 -0.6527
 1654TIP3    H2 4969   0.362   3.026   4.564  0.8960  1.6471  1.6347
 1655TIP3   OH2 4970   3.137   5.099   1.083  0.5121 -0.2472 -0.2868
 1655TIP3    H1 4971   3.114   5.179   1.131  2.9109  0.9488 -0.9528
 1655TIP3    H2 4972   3.056   5.074   1.038 -0.0542  2.4295 -0.9070
 1656TIP3   OH2 4973   0.283   4.950   3.579  0.3645 -0.2103  0.2540
 1656TIP3    H1 4974   0.332   4.869   3.563  0.2561  0.0372 -1.5746
 1656TIP3    H2 4975   0.226   4.959   3.502 -1.9195  0.0076  1.8840
 1657TIP3   OH2 4976   3.178   1.846   2.604  0.2015 -0.3690 -0.0981
 1657TIP3    H1 4977   3.104   1.839   2.543 -0.1197  1.5954  0.0133
 1657TIP3    H2 4978   3.236   1.910   2.564 -0.2432  1.3453  1.8198
 1658TIP3   OH2 4979   2.459   2.953   3.643 -0.1039  0.6134  0.1109
 1658TIP3    H1 4980   2.528   3.007   3.681 -1.2980  1.6527  0.8622
 1658TIP3    H2 4981   2.468   2.868   3.686  0.4995  0.8274  0.4202
 1659TIP3   OH2 4982   0.863   1.656   1.075 -0.5641  0.0003 -0.5406
 1659TIP3    H1 4983   0.827   1.568   1.087  0.1071 -0.6327 -2.6999
 1659TIP3    H2 4984   0.791   1.705   1.034 -0.5393  0.0954 -0.4680
 1660TIP3   OH2 4985   4.105   3.025   4.967 -0.0144  0.1358  0.3698
 1660TIP3    H1 4986   4.152   2.976   4.900 -1.5471 -0.3618 -0.4063
 1660TIP3    H2 4987   4.032   3.065   4.920  0.4176  2.0702  1.2576
 1661TIP3   OH2 4988   3.672   0.846   3.370 -0.1518  0.4372 -0.1350
 1661TIP3    H1 4989   3.656   0.763   3.414  0.8610  0.6480  0.6557
 1661TIP3    H2 4990   3.766   0.844   3.349  0.2978  2.1375  1.5277
 1662TIP3   OH2 4991   3.980   0.855   5.024 -0.0685 -0.0227  0.4287
 1662TIP3    H1 4992   3.913   0.787   5.038 -0.2376 -0.1387 -0.8591
 1662TIP3    H2 4993   4.063   0.809   5.032 -0.0794  0.2470  2.7207
 1663TIP3   OH2 4994   3.148   1.257   3.771 -0.4512 -0.3218  0.0759
 1663TIP3    H1 4995   3.218   1.209   3.727  0.0988 -0.7889  1.3844
 1663TIP3    H2 4996   3.113   1.196   3.835 -1.0659  0.3919  0.4435
 1664TIP3   OH2 4997   5.038   1.630   0.706  0.2441 -0.3178 -0.1781
 1664TIP3    H1 4998   5.006   1.658   0.791 -1.2869  1.1829 -1.1965
 1664TIP3    H2 4999   4.984   1.554   0.683  0.0850 -0.2027 -0.1829
 1665TIP3   OH2 5000   2.135   0.354   2.822  0.5673  0.2534 -0.6433
 1665TIP3    H1 5001   2.228   0.335   2.831  0.4123 -0.1542  0.2170
 1665TIP3    H2 5002   2.116   0.340   2.729  0.9137 -1.7850 -0.4634
 1666TIP3   OH2 5003   1.317   4.815   3.914  0.2035  0.2391  0.6986
 1666TIP3    H1 5004   1.383   4.868   3.869 -0.7558  1.2789  0.4477
 1666TIP3    H2 5005   1.316   4.732   3.866  1.6755 -0.0024  1.0389
 1667TIP3   OH2 5006   4.344   2.573   1.361 -0.2140 -0.0513  0.0952
 1667TIP3    H1 5007   4.264   2.575   1.414 -0.2105 -0.0306  0.1001
 1667TIP3    H2 5008   4.415   2.573   1.425 -0.2164 -1.6765  0.1304
 1668TIP3   OH2 5009   1.646   0.044   4.093  0.0788 -0.3526  0.5814
 1668TIP3    H1 5010   1.711  -0.025   4.102  1.0232  0.4028 -0.2729
 1668TIP3    H2 5011   1.677   0.115   4.148 -0.2983 -0.1767  0.5750
 1669TIP3   OH2 5012   1.202   5.945   4.902  0.3707 -1.0165 -0.4622
 1669TIP3    H1 5013   1.194   5.893   4.822 -1.8541  2.0585 -2.4477
 1669TIP3    H2 5014   1.133   5.912   4.959 -0.3979 -0.9264 -1.3125
 1670TIP3   OH2 5015   1.528   3.435   5.005 -0.1662 -0.0326  0.4965
 1670TIP3    H1 5016   1.515   3.362   5.065 -1.2751  0.2436  0.6088
 1670TIP3    H2 5017   1.574   3.396   4.930  2.3064 -0.1435  1.9712
 1671TIP3   OH2 5018   1.686   0.402   2.332  0.5539 -0.9436  0.3384
 1671TIP3    H1 5019   1.645   0.423   2.416 -0.6663 -1.4483 -0.1087
 1671TIP3    H2 5020   1.645   0.319   2.306  0.6998 -0.6417 -0.8845
 1672TIP3   OH2 5021   2.003   5.386   3.099 -0.3009  0.3682 -0.1303
 1672TIP3    H1 5022   1.997   5.329   3.176  0.3719  1.8803  1.0848
 1672TIP3    H2 5023   1.998   5.475   3.135  1.9915  1.1741 -1.6136
 1673TIP3   OH2 5024   5.925   4.962   1.042  0.6594 -0.0741  0.1282
 1673TIP3    H1 5025   5.919   4.942   0.948 -0.1107 -2.1924  0.5468
 1673TIP3    H2 5026   6.018   4.975   1.058  1.1360 -2.2373 -0.5305
 1674TIP3   OH2 5027   5.328   1.038   0.597 -0.5569  0.1856 -0.1140
 1674TIP3    H1 5028   5.408   0.997   0.631 -0.8522  0.8115  1.4367
 1674TIP3    H2 5029   5.355   1.127   0.574 -0.2885 -0.3314 -1.8936
 1675TIP3   OH2 5030   5.047   3.836   3.157 -1.8006  0.2433  0.3736
 1675TIP3    H1 5031   4.963   3.790   3.152 -1.4294 -0.4662  0.6269
 1675TIP3    H2 5032   5.109   3.770   3.187 -1.4641  1.1702  1.8077
 1676TIP3   OH2 5033   3.317   5.740   3.402  0.3604 -0.6934  0.4520
 1676TIP3    H1 5034   3.279   5.822   3.433  1.2945  0.2362 -0.7615
 1676TIP3    H2 5035   3.274   5.672   3.454 -1.6366  0.4263  0.3467
 1677TIP3   OH2 5036   3.584   2.252   1.850  0.4446 -0.3194 -0.2782
 1677TIP3    H1 5037   3.526   2.293   1.786  0.4443 -0.3496 -0.2975
 1677TIP3    H2 5038   3.661   2.226   1.799  1.0018  0.7949 -0.0350
 1678TIP3   OH2 5039   2.969   0.670   3.230 -0.4992  0.0436 -0.1054
 1678TIP3    H1 5040   2.935   0.636   3.312 -1.1720  0.1258 -0.3418
 1678TIP3    H2 5041   2.933   0.612   3.163  0.6099 -0.4475 -0.2987
 1679TIP3   OH2 5042   4.063   4.001   1.094 -0.6870  0.1398 -0.5281
 1679TIP3    H1 5043   4.145   4.048   1.111  0.7801 -1.5137 -2.5104
 1679TIP3    H2 5044   4.064   3.927   1.155 -0.4621 -0.1314 -0.8566
 1680TIP3   OH2 5045   3.772   0.408   2.818  0.0622  0.6557  0.1072
 1680TIP3    H1 5046   3.799   0.474   2.882  0.0159  1.1631 -0.3923
 1680TIP3    H2 5047   3.766   0.456   2.735 -1.2791  0.3275 -0.0066
 1681TIP3   OH2 5048   1.768   0.839   4.308 -0.1001  0.3236  0.3128
 1681TIP3    H1 5049   1.720   0.773   4.259 -0.1719 -0.1580  1.0120
 1681TIP3    H2 5050   1.859   0.828   4.279  0.3186 -1.7389  2.1290
 1682TIP3   OH2 5051   2.926   3.144   0.997 -0.3861  0.2801  0.1515
 1682TIP3    H1 5052   2.970   3.060   0.982 -2.1136 -0.5557 -0.5618
 1682TIP3    H2 5053   2.862   3.125   1.066 -1.9939  0.5198 -1.2171
 1683TIP3   OH2 5054   4.273   2.268   0.642  0.4842  0.2678  0.0747
 1683TIP3    H1 5055   4.207   2.199   0.642 -0.3141  1.0183  0.4415
 1683TIP3    H2 5056   4.343   2.234   0.586 -1.1110  0.3207 -2.0416
 1684TIP3   OH2 5057   6.283   3.143   1.090  0.4484  1.2216 -0.4467
 1684TIP3    H1 5058   6.248   3.150   1.179  1.8456 -1.2112  0.3944
 1684TIP3    H2 5059   6.273   3.231   1.053 -0.7824  2.1378  1.8541
 1685TIP3   OH2 5060   4.379   5.060   2.657  0.1258  0.3128 -0.4438
 1685TIP3    H1 5061   4.324   5.013   2.720 -0.3708  1.4666  0.0182
 1685TIP3    H2 5062   4.464   5.068   2.700  1.0310 -2.3199 -1.5471
 1686TIP3   OH2 5063   4.628   5.517  -0.003  0.1829 -0.0744  0.1840
 1686TIP3    H1 5064   4.572   5.594  -0.012 -2.6313 -2.1312 -2.0604
 1686TIP3    H2 5065   4.609   5.485   0.086 -0.9373  0.2374  0.0825
 1687TIP3   OH2 5066   1.912   3.218   2.655 -0.0214  0.0213  0.2841
 1687TIP3    H1 5067   1.845   3.155   2.628 -0.5565  1.0263 -0.7971
 1687TIP3    H2 5068   1.866   3.279   2.713 -0.5918  1.8353 -1.9456
 1688TIP3   OH2 5069   2.238   0.590   4.646  0.5194  0.3312  0.0392
 1688TIP3    H1 5070   2.181   0.658   4.682  0.0676  0.0801 -0.1980
 1688TIP3    H2 5071   2.306   0.638   4.598  0.2134  0.6155 -0.1098
 1689TIP3   OH2 5072   0.527   2.951   2.372  0.5245  0.1399  0.1524
 1689TIP3    H1 5073   0.441   2.964   2.330  0.7832 -1.4540 -0.9851
 1689TIP3    H2 5074   0.536   2.856   2.378  1.9335  0.2944  0.8882
 1690TIP3   OH2 5075   2.652   5.476   1.791  0.4439 -0.2597  0.3432
 1690TIP3    H1 5076   2.587   5.544   1.771  0.2913 -0.2649  0.8148
 1690TIP3    H2 5077   2.707   5.514   1.859  0.5551 -0.4942  0.3854
 1691TIP3   OH2 5078   5.327   5.839   0.531 -0.2635  0.2266  0.5719
 1691TIP3    H1 5079   5.383   5.826   0.455 -1.4623 -1.7702 -0.0550
 1691TIP3    H2 5080   5.377   5.802   0.604 -0.0885 -0.0451  0.3162
 1692TIP3   OH2 5081   0.926   5.721   1.147 -0.1231 -0.0740 -0.6330
 1692TIP3    H1 5082   0.912   5.630   1.122  0.2375  0.0274 -1.2164
 1692TIP3    H2 5083   0.927   5.720   1.243 -0.5671 -0.6118 -0.6259
 1693TIP3   OH2 5084   5.843  -0.002   3.125  0.8391 -0.3478  0.0149
 1693TIP3    H1 5085   5.747  -0.009   3.127  0.7403  0.6835 -0.5595
 1693TIP3    H2 5086   5.865   0.047   3.203  0.9967 -1.4179  0.6621
 1694TIP3   OH2 5087   2.613   4.665   5.060 -0.2903 -0.4454  0.4687
 1694TIP3    H1 5088   2.522   4.695   5.064 -0.1034 -0.0004  2.0291
 1694TIP3    H2 5089   2.607   4.570   5.073 -0.5669 -0.4745  0.1280
 1695TIP3   OH2 5090   5.079   0.387   1.263 -0.3476  0.8303  0.5988
 1695TIP3    H1 5091   5.144   0.322   1.289 -0.2279  0.5476 -0.3724
 1695TIP3    H2 5092   4.995   0.349   1.286 -0.2026  0.9324  1.3002
 1696TIP3   OH2 5093   3.112   3.041   4.824 -0.6360 -0.5621 -0.0801
 1696TIP3    H1 5094   3.022   3.069   4.836 -0.5122 -0.9140  2.0649
 1696TIP3    H2 5095   3.161   3.086   4.893  0.9224 -0.1190 -1.3911
 1697TIP3   OH2 5096   6.084   2.458   0.389  0.0725 -0.1684  0.0521
 1697TIP3    H1 5097   6.161   2.492   0.344  0.0031 -1.4242 -1.0682
 1697TIP3    H2 5098   6.117   2.389   0.446 -0.0745  0.1248  0.4966
 1698TIP3   OH2 5099   3.851   4.684   3.599  0.6519 -0.1089  0.4843
 1698TIP3    H1 5100   3.902   4.759   3.630  0.5461 -0.2016  0.8840
 1698TIP3    H2 5101   3.763   4.698   3.633  0.5113 -0.1633  0.1454
 1699TIP3   OH2 5102   0.777   4.959   3.077 -0.2397 -0.0026  0.1136
 1699TIP3    H1 5103   0.723   4.991   3.004  0.7170 -1.2235 -1.1814
 1699TIP3    H2 5104   0.799   5.038   3.126 -0.5430  0.9283 -1.1804
 1700TIP3   OH2 5105   4.294   4.863   3.945  0.3874 -0.3190  0.0083
 1700TIP3    H1 5106   4.357   4.932   3.926  0.8272 -0.6186  0.3720
 1700TIP3    H2 5107   4.234   4.901   4.009 -0.4447  0.3230 -1.1117
 1701TIP3   OH2 5108   6.164   2.793   1.168  0.1103  0.1542  0.3161
 1701TIP3    H1 5109   6.184   2.786   1.074  1.1424 -4.1426  0.6088
 1701TIP3    H2 5110   6.247   2.819   1.208  0.4178 -0.5530  0.1683
 1702TIP3   OH2 5111   5.561   5.493   1.670 -0.4807 -0.1348 -0.5816
 1702TIP3    H1 5112   5.613   5.547   1.730 -2.3338  0.8506  0.2164
 1702TIP3    H2 5113   5.598   5.405   1.678 -1.6615 -0.4413  3.3373
 1703TIP3   OH2 5114   3.416   5.584   2.607 -0.7948 -0.6469 -0.1599
 1703TIP3    H1 5115   3.410   5.650   2.537  0.1170 -1.3138 -0.8900
 1703TIP3    H2 5116   3.369   5.624   2.681 -1.8179  0.0710 -1.1461
 1704TIP3   OH2 5117   4.967   5.858   3.954  0.0703 -0.1683  0.2898
 1704TIP3    H1 5118   4.997   5.921   4.019  0.9009  0.6183 -0.8173
 1704TIP3    H2 5119   4.872   5.875   3.947  0.4520  1.9113 -0.8987
 1705TIP3   OH2 5120   5.901   3.560   3.025 -0.2723 -1.2621  0.0762
 1705TIP3    H1 5121   5.915   3.602   2.940 -1.1292  0.2941  0.6644
 1705TIP3    H2 5122   5.945   3.618   3.087  0.7344 -2.6300  0.6699
 1706TIP3   OH2 5123   4.554   1.297   0.770 -0.6430 -0.0522 -0.8962
 1706TIP3    H1 5124   4.556   1.369   0.708 -0.2043 -0.2371 -1.1010
 1706TIP3    H2 5125   4.618   1.321   0.837 -1.7375  0.5586 -0.0393
 1707TIP3   OH2 5126   0.198   5.696   0.412 -0.0554  0.0469 -0.6510
 1707TIP3    H1 5127   0.212   5.787   0.439  1.8171 -0.3732 -0.0489
 1707TIP3    H2 5128   0.171   5.652   0.493  2.3370 -0.5516 -0.0937
 1708TIP3   OH2 5129   6.284   2.438   0.696  0.2781  0.5763 -0.3326
 1708TIP3    H1 5130   6.233   2.367   0.736  0.0110  1.4601  0.9865
 1708TIP3    H2 5131   6.356   2.394   0.651 -0.8962 -0.6243 -1.1230
 1709TIP3   OH2 5132   4.443   3.387   4.914  0.6291 -0.0384 -0.5138
 1709TIP3    H1 5133   4.440   3.433   4.830 -1.4596 -0.0170 -0.4952
 1709TIP3    H2 5134   4.464   3.456   4.977  0.0449  0.4095 -0.7884
 1710TIP3   OH2 5135   4.323   0.649   0.316 -0.1188  0.2166 -0.2172
 1710TIP3    H1 5136   4.411   0.685   0.308 -0.0814  0.2949  0.5104
 1710TIP3    H2 5137   4.308   0.604   0.233  0.6286  0.1587 -0.3280
 1711TIP3   OH2 5138   6.318   3.743   4.912 -0.1011 -0.0829 -0.1202
 1711TIP3    H1 5139   6.308   3.833   4.881 -1.4292 -0.1026  0.1872
 1711TIP3    H2 5140   6.330   3.691   4.832 -1.2895  0.1436 -0.4735
 1712TIP3   OH2 5141   4.744   5.650   5.115 -0.5876  0.3408  0.3540
 1712TIP3    H1 5142   4.724   5.635   5.207  0.9287 -0.6932  0.5476
 1712TIP3    H2 5143   4.837   5.673   5.114 -0.0944 -1.5097 -1.0717
 1713TIP3   OH2 5144   1.645   3.164   1.674 -0.2958  0.7242 -0.2825
 1713TIP3    H1 5145   1.615   3.081   1.711  0.8737  0.2854 -0.2740
 1713TIP3    H2 5146   1.571   3.224   1.685 -1.8525 -0.7572 -1.8736
 1714TIP3   OH2 5147   5.958   4.514   1.637 -0.7134 -0.6646 -0.5256
 1714TIP3    H1 5148   6.030   4.464   1.676 -1.0328 -0.2274  0.6973
 1714TIP3    H2 5149   5.967   4.601   1.675  0.8833  0.8188 -3.9407
 1715TIP3   OH2 5150   2.296   2.950   0.262 -0.3453 -0.4076  0.2991
 1715TIP3    H1 5151   2.322   2.870   0.308 -0.9274 -0.8261 -0.0912
 1715TIP3    H2 5152   2.372   3.008   0.270  0.7393 -1.6082 -0.8551
 1716TIP3   OH2 5153   0.005   4.694   4.349  0.2332  0.4170  0.3482
 1716TIP3    H1 5154   0.043   4.778   4.323  0.5197  1.2490  3.1663
 1716TIP3    H2 5155  -0.001   4.644   4.267  0.8986  2.8171 -1.2638
 1717TIP3   OH2 5156   3.661   4.978   2.561  0.1407  0.5798  0.3081
 1717TIP3    H1 5157   3.700   5.060   2.530 -0.6887  0.2180 -1.8220
 1717TIP3    H2 5158   3.567   4.991   2.554 -0.0160 -0.9535 -1.3613
 1718TIP3   OH2 5159   1.422   2.339   0.812  0.3892 -0.1755 -0.2740
 1718TIP3    H1 5160   1.462   2.268   0.761 -0.0445 -1.6091  1.2874
 1718TIP3    H2 5161   1.332   2.310   0.826  0.1144  0.8497  0.1408
 1719TIP3   OH2 5162   4.080   1.189   4.342 -0.3615  0.4391 -0.2551
 1719TIP3    H1 5163   4.160   1.136   4.349 -0.0600  0.9581  0.5014
 1719TIP3    H2 5164   4.024   1.158   4.413 -0.3165  0.9045 -0.0108
 1720TIP3   OH2 5165   5.196   4.922   0.669  0.0890  0.0318  0.0192
 1720TIP3    H1 5166   5.237   4.887   0.749 -1.1311 -0.8762  0.2814
 1720TIP3    H2 5167   5.193   4.847   0.610  2.1438  0.9843 -1.4350
 1721TIP3   OH2 5168   0.786   0.230   3.120 -0.1987  0.0432 -0.0070
 1721TIP3    H1 5169   0.718   0.182   3.072 -0.9288  1.1812 -0.1340
 1721TIP3    H2 5170   0.866   0.180   3.103 -0.6959 -0.3811 -1.2230
 1722TIP3   OH2 5171   2.914   1.672   3.296  0.2875 -0.0905  0.1573
 1722TIP3    H1 5172   3.010   1.670   3.290  0.2197 -1.1452 -0.6858
 1722TIP3    H2 5173   2.886   1.585   3.269 -0.8884 -0.0181  1.0820
 1723TIP3   OH2 5174   3.058   2.171   2.830  0.0796  0.1373 -0.0806
 1723TIP3    H1 5175   3.002   2.215   2.894 -1.3411 -1.5956 -0.0515
 1723TIP3    H2 5176   3.084   2.089   2.872 -2.1813 -1.8125 -2.1622
 1724TIP3   OH2 5177   2.955   2.530   1.829 -0.4059 -0.1380 -0.1416
 1724TIP3    H1 5178   3.016   2.568   1.766  0.2570 -0.6802  0.1639
 1724TIP3    H2 5179   3.009   2.507   1.904 -1.2480  0.9520  0.8408
 1725TIP3   OH2 5180   0.625   3.187   3.529 -0.3112 -0.2527  0.1758
 1725TIP3    H1 5181   0.591   3.226   3.447 -0.6079  0.2523  0.5295
 1725TIP3    H2 5182   0.642   3.096   3.506  0.6712  0.1403 -0.7591
 1726TIP3   OH2 5183   3.717   3.560   0.848  0.9844 -0.1127 -0.7282
 1726TIP3    H1 5184   3.771   3.629   0.810  0.8529  0.5065  0.1692
 1726TIP3    H2 5185   3.643   3.606   0.887  0.5265 -0.8306 -0.7329
 1727TIP3   OH2 5186   4.313   2.974   2.477  0.0070 -0.8787  0.5542
 1727TIP3    H1 5187   4.286   3.043   2.417  0.6452 -2.5289 -1.7988
 1727TIP3    H2 5188   4.378   3.015   2.533  0.3072  0.4748 -0.7169
 1728TIP3   OH2 5189   0.335   5.527   3.138 -0.0226  0.2300  0.3319
 1728TIP3    H1 5190   0.411   5.501   3.086 -0.5815  0.5898 -0.7135
 1728TIP3    H2 5191   0.308   5.448   3.184  1.6419  0.3688  1.6199
 1729TIP3   OH2 5192   2.106   2.030   4.612 -0.3075 -0.0415 -0.0867
 1729TIP3    H1 5193   2.024   1.999   4.652 -1.1551  0.3736 -1.4347
 1729TIP3    H2 5194   2.078   2.100   4.553  1.1154  0.5508 -0.0880
 1730TIP3   OH2 5195   1.522   0.929   2.685 -0.6048 -0.1121 -0.1350
 1730TIP3    H1 5196   1.475   0.904   2.764 -1.7093  0.7441 -0.5080
 1730TIP3    H2 5197   1.457   0.924   2.615  0.3833 -0.9932 -1.0347
 1731TIP3   OH2 5198   0.793   1.295   4.474  0.7071  0.2222  0.2818
 1731TIP3    H1 5199   0.716   1.272   4.526 -1.3267  0.9772 -2.2020
 1731TIP3    H2 5200   0.796   1.390   4.477  2.1328  0.1747  1.0773
 1732TIP3   OH2 5201   3.651   5.135   0.368  0.5510 -0.3029 -0.1841
 1732TIP3    H1 5202   3.634   5.185   0.288  1.0511 -1.4980 -1.0784
 1732TIP3    H2 5203   3.735   5.092   0.351  1.3723  0.5327  1.5683
 1733TIP3   OH2 5204   2.755   2.014   1.583  0.3339 -0.4029  0.2042
 1733TIP3    H1 5205   2.689   2.035   1.517  0.4898  2.3680  0.7716
 1733TIP3    H2 5206   2.727   1.931   1.621 -2.9140  0.6949  0.4932
 1734TIP3   OH2 5207   0.820   4.815   3.766 -0.0727 -0.2454 -0.4544
 1734TIP3    H1 5208   0.740   4.774   3.798  0.4595 -1.3899 -0.5563
 1734TIP3    H2 5209   0.811   4.815   3.670 -0.1583  0.0610 -0.4473
 1735TIP3   OH2 5210   3.225   2.901   1.093 -0.4389 -0.0147  0.7047
 1735TIP3    H1 5211   3.245   2.979   1.143  0.0221  0.3534 -0.0273
 1735TIP3    H2 5212   3.140   2.873   1.125 -1.3787  1.7271 -0.1377
 1736TIP3   OH2 5213   3.729   2.659   1.352 -0.6621  0.3138 -0.1065
 1736TIP3    H1 5214   3.788   2.674   1.426 -3.0359 -0.1394  2.0201
 1736TIP3    H2 5215   3.723   2.745   1.309  1.8008  0.2733 -0.7292
 1737TIP3   OH2 5216   0.413   5.495   0.880 -0.1714 -0.4822 -0.2962
 1737TIP3    H1 5217   0.474   5.514   0.951  0.0663 -0.5138 -0.4919
 1737TIP3    H2 5218   0.469   5.476   0.805 -0.3442 -3.0957  0.1551
 1738TIP3   OH2 5219   3.497   4.192   3.675 -0.7051 -0.0579  0.3737
 1738TIP3    H1 5220   3.475   4.121   3.615  2.0668 -0.5715 -0.1965
 1738TIP3    H2 5221   3.541   4.149   3.748  3.2809  1.0475 -1.1019
 1739TIP3   OH2 5222   2.990   1.760   2.373  0.3071  0.1022 -0.3593
 1739TIP3    H1 5223   2.899   1.787   2.383  0.8452  1.5689  0.8037
 1739TIP3    H2 5224   3.019   1.803   2.293  0.5575  1.3392  0.3781
 1740TIP3   OH2 5225   1.755   3.031   4.168 -0.4461  0.1469 -0.2948
 1740TIP3    H1 5226   1.744   3.113   4.216 -0.8303  2.1249 -3.4698
 1740TIP3    H2 5227   1.849   3.014   4.172 -0.6552 -0.7265  2.4958
 1741TIP3   OH2 5228   2.040   4.164   0.233 -0.2639  0.4660 -0.5719
 1741TIP3    H1 5229   2.112   4.112   0.196 -0.5813 -0.1163 -0.3795
 1741TIP3    H2 5230   2.074   4.254   0.235  0.5696  0.1518 -0.1961
 1742TIP3   OH2 5231   2.770   3.329   0.244  0.6520 -0.2237 -0.0423
 1742TIP3    H1 5232   2.767   3.391   0.318  1.4518  0.6672 -0.7314
 1742TIP3    H2 5233   2.778   3.385   0.167 -0.0858 -1.1531 -0.8066
 1743TIP3   OH2 5234   0.151   2.908   2.429  0.4570  0.7859 -0.3566
 1743TIP3    H1 5235   0.205   2.901   2.508  0.7761 -0.8547 -0.6818
 1743TIP3    H2 5236   0.144   3.003   2.413  1.2638  1.1096  1.0237
 1744TIP3   OH2 5237   5.396   1.521   1.081 -0.3815 -0.4492 -0.2308
 1744TIP3    H1 5238   5.470   1.463   1.098  0.6296  0.4050 -1.5272
 1744TIP3    H2 5239   5.343   1.474   1.016  1.0148  0.4501 -2.1259
 1745TIP3   OH2 5240   2.389   2.212   0.529  0.1040 -0.1581 -0.0384
 1745TIP3    H1 5241   2.422   2.190   0.442  0.8890 -2.3499  0.7303
 1745TIP3    H2 5242   2.467   2.214   0.584 -0.4526  0.5226  0.7567
 1746TIP3   OH2 5243   4.393   3.952   2.592 -0.1597 -0.3006 -0.0389
 1746TIP3    H1 5244   4.477   3.981   2.557  0.3909 -0.2656  1.2454
 1746TIP3    H2 5245   4.363   3.885   2.531 -0.3326  1.2833 -1.7889
 1747TIP3   OH2 5246   0.678   5.436   1.670  0.0130  0.2136  0.3533
 1747TIP3    H1 5247   0.662   5.392   1.754  0.3758  0.4612  0.5558
 1747TIP3    H2 5248   0.743   5.380   1.626  0.2443  0.3832  0.4792
 1748TIP3   OH2 5249   4.427   0.331   2.440 -0.1036  0.3687  0.5958
 1748TIP3    H1 5250   4.431   0.407   2.383 -0.3649  1.3319  1.8284
 1748TIP3    H2 5251   4.484   0.353   2.514 -0.2626 -0.5818  1.0235
 1749TIP3   OH2 5252   4.118   5.550   2.866 -0.2681 -0.1003 -0.2188
 1749TIP3    H1 5253   4.118   5.645   2.855  1.6672 -0.1279 -0.7831
 1749TIP3    H2 5254   4.094   5.537   2.958 -0.2355  0.9473 -0.0492
 1750TIP3   OH2 5255   4.128   4.363   0.772 -0.1962 -0.3563 -0.3801
 1750TIP3    H1 5256   4.089   4.411   0.699  0.8984  1.5163  0.1833
 1750TIP3    H2 5257   4.212   4.406   0.787 -0.3982 -0.6163  2.0003
 1751TIP3   OH2 5258   3.041   2.703   1.393 -0.1927 -0.0170 -0.0073
 1751TIP3    H1 5259   3.005   2.769   1.452  0.1860 -0.7782  1.1085
 1751TIP3    H2 5260   3.003   2.723   1.307 -2.0546  0.1256  0.8108
 1752TIP3   OH2 5261   6.148   4.272   0.195 -0.2084  0.0245 -0.6295
 1752TIP3    H1 5262   6.082   4.246   0.259 -0.1831  0.5566 -0.3732
 1752TIP3    H2 5263   6.147   4.204   0.129 -1.4926  0.3573 -0.9785
 1753TIP3   OH2 5264   0.101   3.598   3.831  0.8540  0.0390  0.2257
 1753TIP3    H1 5265   0.090   3.507   3.802  0.7737 -0.5024  1.8158
 1753TIP3    H2 5266   0.155   3.591   3.910  0.3057  1.3046  0.7462
 1754TIP3   OH2 5267   1.560   0.176   2.259 -0.1418 -0.1221  0.6609
 1754TIP3    H1 5268   1.492   0.178   2.327 -0.8551 -0.0214 -0.0426
 1754TIP3    H2 5269   1.523   0.227   2.187  0.3477 -0.7228 -0.0346
 1755TIP3   OH2 5270   5.022   3.627   4.308  0.3248 -0.0307  0.0643
 1755TIP3    H1 5271   5.000   3.697   4.368  0.8762 -0.6012  0.9563
 1755TIP3    H2 5272   4.942   3.611   4.259 -0.3831 -0.1087  1.2219
 1756TIP3   OH2 5273   2.163   3.567   1.203 -0.3193  0.2713  0.4184
 1756TIP3    H1 5274   2.207   3.613   1.275  1.2898  1.1715 -1.0582
 1756TIP3    H2 5275   2.154   3.633   1.135  0.9477 -1.2435 -1.3221
 1757TIP3   OH2 5276   0.096   2.405   4.112  0.2999 -0.6700 -0.2165
 1757TIP3    H1 5277   0.069   2.486   4.156 -2.3703  0.1344 -2.9870
 1757TIP3    H2 5278   0.033   2.339   4.141 -1.1101 -0.2726 -2.1330
 1758TIP3   OH2 5279   5.288   3.923   0.683 -0.1635  0.0537 -0.8487
 1758TIP3    H1 5280   5.371   3.934   0.636  0.3311 -0.6655 -0.1653
 1758TIP3    H2 5281   5.303   3.962   0.769 -0.0704 -1.2850 -0.2352
 1759TIP3   OH2 5282   6.081   1.400   1.942 -0.1514  0.1209  0.2845
 1759TIP3    H1 5283   6.150   1.455   1.979 -0.2912 -0.3925  1.3602
 1759TIP3    H2 5284   6.002   1.425   1.989 -0.4774 -0.0947 -0.1359
 1760TIP3   OH2 5285   5.852   1.536   3.586  0.4991  0.1080  0.3464
 1760TIP3    H1 5286   5.768   1.527   3.540  0.8456 -1.9227 -0.0024
 1760TIP3    H2 5287   5.876   1.446   3.608  2.3938  0.6927  0.8140
 1761TIP3   OH2 5288   0.475   4.863   1.220  0.4895  0.2225 -0.3880
 1761TIP3    H1 5289   0.521   4.947   1.219  1.1724 -0.0540  2.0426
 1761TIP3    H2 5290   0.480   4.832   1.130  1.9725  1.8580 -0.9225
 1762TIP3   OH2 5291   1.523   1.903   2.660  0.0789  0.0176  0.1479
 1762TIP3    H1 5292   1.429   1.915   2.672 -0.1130  0.7427 -1.7789
 1762TIP3    H2 5293   1.533   1.809   2.644 -0.1874 -0.1918  1.0962
 1763TIP3   OH2 5294   1.396   0.282   0.678 -0.2781  0.3672  0.2546
 1763TIP3    H1 5295   1.307   0.290   0.711 -0.5336  2.1017 -0.7016
 1763TIP3    H2 5296   1.388   0.231   0.597  0.0178 -1.8048  1.5266
 1764TIP3   OH2 5297   6.142   5.770   3.080  0.1873  0.3383 -0.1962
 1764TIP3    H1 5298   6.209   5.838   3.083  0.5271  0.0077 -0.1441
 1764TIP3    H2 5299   6.097   5.776   3.164  1.4710 -0.7372  0.6095
 1765TIP3   OH2 5300   3.834   4.604   4.650  0.2511 -0.8060  0.0507
 1765TIP3    H1 5301   3.913   4.591   4.598  0.7578  0.6907  0.4201
 1765TIP3    H2 5302   3.777   4.658   4.594 -0.4736 -1.7406 -0.1514
 1766TIP3   OH2 5303   1.247   5.558   0.716 -0.6430 -0.7242  0.6923
 1766TIP3    H1 5304   1.202   5.474   0.703 -1.5190 -0.1121 -0.3583
 1766TIP3    H2 5305   1.220   5.586   0.803 -0.8653 -1.2207  0.7885
 1767TIP3   OH2 5306   6.044   0.859   3.286  0.1946 -0.5462 -0.1354
 1767TIP3    H1 5307   6.100   0.901   3.351  0.5185  0.1096 -0.8228
 1767TIP3    H2 5308   5.955   0.888   3.309  0.4360  0.6922 -0.7170
 1768TIP3   OH2 5309   4.988   3.529   1.658  0.0187 -0.0079  0.1259
 1768TIP3    H1 5310   4.919   3.595   1.656  0.0680  0.0227 -0.6438
 1768TIP3    H2 5311   5.046   3.552   1.586  0.9246  0.0492  0.8528
 1769TIP3   OH2 5312   3.623   4.770   4.165 -0.1038 -0.0530 -0.5843
 1769TIP3    H1 5313   3.638   4.679   4.139  0.3384 -0.1810  0.0843
 1769TIP3    H2 5314   3.557   4.764   4.234 -0.5354  0.1918 -0.9717
 1770TIP3   OH2 5315   2.203   0.223   4.319  0.1594  0.6340 -0.0970
 1770TIP3    H1 5316   2.252   0.259   4.393 -0.1676  1.1498 -0.1175
 1770TIP3    H2 5317   2.113   0.251   4.336 -0.4212 -1.5561  0.7201
 1771TIP3   OH2 5318   4.195   1.660   1.240  0.3420  0.2061  0.5697
 1771TIP3    H1 5319   4.249   1.586   1.270 -0.0123 -0.2306  0.1463
 1771TIP3    H2 5320   4.140   1.623   1.171  2.4401  1.6025 -2.0083
 1772TIP3   OH2 5321   2.990   2.035   3.232 -0.2340  0.0210  0.4450
 1772TIP3    H1 5322   3.014   2.009   3.321 -1.9435 -0.6379  0.7504
 1772TIP3    H2 5323   2.910   1.985   3.213 -0.1195  0.4432 -1.3156
 1773TIP3   OH2 5324   4.678   1.823   4.653 -0.0703 -0.8690  0.6100
 1773TIP3    H1 5325   4.642   1.877   4.722  0.3220 -0.0954  0.2229
 1773TIP3    H2 5326   4.739   1.880   4.606 -2.3350 -0.4678 -2.1303
 1774TIP3   OH2 5327   3.062   0.639   0.515  0.2204 -0.5344 -0.2161
 1774TIP3    H1 5328   3.071   0.728   0.549 -0.0542 -0.8276  0.6511
 1774TIP3    H2 5329   2.967   0.625   0.512  0.2826 -1.3125  1.0530
 1775TIP3   OH2 5330   5.576   1.971   3.207 -0.0375 -0.5596  0.5023
 1775TIP3    H1 5331   5.641   1.984   3.276  0.7481 -0.8054 -0.1751
 1775TIP3    H2 5332   5.574   1.877   3.191  1.1584 -0.3586 -1.0704
 1776TIP3   OH2 5333   2.450   2.239   0.252 -1.0194 -0.2344 -0.3253
 1776TIP3    H1 5334   2.532   2.274   0.288 -0.9690 -1.4771  0.8688
 1776TIP3    H2 5335   2.475   2.201   0.168 -0.9886  2.0741 -1.4159
 1777TIP3   OH2 5336   2.650   4.407   2.300  0.3447  0.1046 -0.1822
 1777TIP3    H1 5337   2.665   4.477   2.364 -0.3661 -1.6200  2.0284
 1777TIP3    H2 5338   2.721   4.345   2.316 -0.8615 -1.2257  0.2884
 1778TIP3   OH2 5339   2.239   4.643   3.595 -0.3127  0.3208 -0.7990
 1778TIP3    H1 5340   2.307   4.588   3.632 -0.1676  0.5156 -0.7757
 1778TIP3    H2 5341   2.166   4.583   3.578 -0.3623  0.2197 -0.2501
 1779TIP3   OH2 5342   2.332   2.125   2.691  0.0117  0.0584 -0.4146
 1779TIP3    H1 5343   2.290   2.163   2.769  0.9168  0.1497  0.0412
 1779TIP3    H2 5344   2.311   2.186   2.620  0.4765  0.8051  0.0756
 1780TIP3   OH2 5345   0.213   2.014   0.641  0.0798  0.3524  0.0139
 1780TIP3    H1 5346   0.234   1.977   0.727 -1.0403 -0.0591  0.1247
 1780TIP3    H2 5347   0.119   2.032   0.645  0.0232  0.3531 -1.1156
 1781TIP3   OH2 5348   0.894   0.162   4.499 -0.2974  0.5207  0.0092
 1781TIP3    H1 5349   0.988   0.145   4.501 -0.1446  1.3852  0.3454
 1781TIP3    H2 5350   0.865   0.150   4.590 -0.8169 -1.3184 -0.3522
 1782TIP3   OH2 5351   3.057   3.518   2.984  0.4223 -0.2084 -0.3798
 1782TIP3    H1 5352   3.047   3.607   2.951 -1.1274  0.7447  2.3394
 1782TIP3    H2 5353   2.988   3.468   2.941  1.4143 -0.1858 -2.0577
 1783TIP3   OH2 5354   2.789   0.356   4.388 -0.2196 -0.0528 -0.4501
 1783TIP3    H1 5355   2.728   0.338   4.459  0.2687 -0.5328 -0.1483
 1783TIP3    H2 5356   2.734   0.363   4.310 -0.6994 -0.0728 -0.1165
 1784TIP3   OH2 5357   1.396   1.871   0.677 -0.1247  0.4276 -0.7579
 1784TIP3    H1 5358   1.442   1.794   0.711  0.8644  1.2457 -0.2060
 1784TIP3    H2 5359   1.318   1.879   0.732 -0.2577 -0.1829 -0.8435
 1785TIP3   OH2 5360   3.965   2.265   2.009 -0.0949  0.1593  0.5150
 1785TIP3    H1 5361   4.031   2.283   2.076 -1.1249  0.0005  1.6151
 1785TIP3    H2 5362   3.950   2.171   2.015  0.3989  0.0073 -0.5249
 1786TIP3   OH2 5363   5.797   5.668   3.918 -0.4326 -0.3175  0.0256
 1786TIP3    H1 5364   5.856   5.638   3.988  0.2881  0.6075 -0.1608
 1786TIP3    H2 5365   5.732   5.598   3.910  0.7051 -1.4245  0.1584
 1787TIP3   OH2 5366   2.138   5.161   4.925  0.5257 -0.2161 -0.1969
 1787TIP3    H1 5367   2.086   5.227   4.879 -0.1799 -0.8358 -0.3184
 1787TIP3    H2 5368   2.112   5.078   4.884  2.5118 -0.4480 -1.0896
 1788TIP3   OH2 5369   5.216   2.052   1.709 -0.2012  0.0024 -0.0444
 1788TIP3    H1 5370   5.148   2.086   1.767 -0.7004  0.3119 -0.7992
 1788TIP3    H2 5371   5.225   2.117   1.640 -1.1789 -1.3608 -1.5234
 1789TIP3   OH2 5372   1.471   2.625   4.657 -0.3024 -0.0033 -0.2644
 1789TIP3    H1 5373   1.393   2.670   4.624 -0.4734  0.0532  0.2054
 1789TIP3    H2 5374   1.437   2.546   4.700  0.0176 -0.7653 -1.3625
 1790TIP3   OH2 5375   2.247   0.424   3.706 -0.0423  0.2939  0.2710
 1790TIP3    H1 5376   2.259   0.374   3.624 -1.4751 -0.2201  0.3411
 1790TIP3    H2 5377   2.319   0.395   3.762  0.7550  0.3855 -0.6671
 1791TIP3   OH2 5378   1.917   4.164   1.231 -0.3133  0.5008 -0.0074
 1791TIP3    H1 5379   1.922   4.243   1.177  0.6109  0.0637 -0.6042
 1791TIP3    H2 5380   2.007   4.131   1.232 -0.4950  0.0191  1.0929
 1792TIP3   OH2 5381   5.921   1.029   3.062  0.0957  0.0915  1.0348
 1792TIP3    H1 5382   5.902   0.942   3.028 -0.7752  0.7081 -0.1468
 1792TIP3    H2 5383   5.838   1.058   3.102  0.1658  0.6304  0.8087
 1793TIP3   OH2 5384   0.056   5.377   0.436 -0.0574  0.1639  0.1293
 1793TIP3    H1 5385   0.045   5.445   0.369  2.5968  0.4192 -0.1562
 1793TIP3    H2 5386   0.041   5.295   0.390  2.2520  0.2992 -1.0303
 1794TIP3   OH2 5387   3.208   1.073   1.349 -0.3489 -0.2409  0.6890
 1794TIP3    H1 5388   3.179   1.063   1.259 -2.0590  1.4108  1.0092
 1794TIP3    H2 5389   3.303   1.082   1.343 -0.4518 -0.0113 -0.9476
 1795TIP3   OH2 5390   4.149   2.793   2.604  0.1321  0.0700 -0.4676
 1795TIP3    H1 5391   4.211   2.860   2.576 -0.8641  0.3261 -2.2799
 1795TIP3    H2 5392   4.077   2.800   2.541 -0.1826 -2.4508 -0.4886
 1796TIP3   OH2 5393   2.689   5.346   0.056  0.5183 -0.3194 -0.4000
 1796TIP3    H1 5394   2.702   5.300   0.139  1.3965  0.9276  0.1772
 1796TIP3    H2 5395   2.608   5.308   0.021  0.1683 -0.9255  0.9764
 1797TIP3   OH2 5396   4.846   3.325   4.255  0.0701 -0.2653  0.6081
 1797TIP3    H1 5397   4.883   3.325   4.343 -0.0309  1.7702  0.7010
 1797TIP3    H2 5398   4.751   3.329   4.268  0.0491  4.1387  0.6149
 1798TIP3   OH2 5399   1.510   5.075   0.018  0.3779 -0.3315  0.5007
 1798TIP3    H1 5400   1.452   5.050   0.090  0.8950 -0.5431  0.8539
 1798TIP3    H2 5401   1.591   5.027   0.035  0.8808  0.4590  0.3771
 1799TIP3   OH2 5402   0.538   0.063   2.040  0.1060 -0.5060 -0.2833
 1799TIP3    H1 5403   0.523  -0.032   2.040 -0.5185 -0.4084 -0.1071
 1799TIP3    H2 5404   0.543   0.087   2.132  0.1168 -0.3465 -0.3250
 1800TIP3   OH2 5405   5.991   0.030   4.012  1.0573  0.2179 -0.0745
 1800TIP3    H1 5406   5.897   0.032   3.994  0.9887 -2.5045 -0.5862
 1800TIP3    H2 5407   6.027  -0.022   3.939  2.8905  0.8267  0.3596
 1801TIP3   OH2 5408   4.725   2.409   3.063  0.3110 -0.0797 -0.7919
 1801TIP3    H1 5409   4.794   2.376   3.006 -0.2877 -2.8923 -0.0538
 1801TIP3    H2 5410   4.643   2.385   3.019 -0.1562 -0.9242  0.4836
 1802TIP3   OH2 5411   5.223   1.914   3.773 -0.0987  0.0989 -0.3945
 1802TIP3    H1 5412   5.179   1.911   3.857 -0.9452 -0.9775 -0.8569
 1802TIP3    H2 5413   5.170   1.973   3.719 -0.9762 -1.1381 -0.9274
 1803TIP3   OH2 5414   5.759   2.284   3.717 -0.0601 -0.0208  0.4867
 1803TIP3    H1 5415   5.802   2.200   3.703  0.0497  0.2742 -1.1358
 1803TIP3    H2 5416   5.689   2.287   3.651  0.6229  1.6033 -0.2292
 1804TIP3   OH2 5417   0.589   2.802   1.135 -0.0756 -0.4959  0.5116
 1804TIP3    H1 5418   0.532   2.849   1.197 -0.2318  0.6537 -0.4576
 1804TIP3    H2 5419   0.555   2.713   1.133 -1.0609 -0.1415  0.8891
 1805TIP3   OH2 5420   0.494   5.151   4.855 -0.2494  0.7711  1.4020
 1805TIP3    H1 5421   0.586   5.123   4.849 -0.9192 -1.7410  1.5472
 1805TIP3    H2 5422   0.487   5.189   4.943  0.7552  1.4442  1.2053
 1806TIP3   OH2 5423   4.956   4.465   2.338 -0.0351 -0.3171  0.3008
 1806TIP3    H1 5424   5.023   4.421   2.285  0.5757  1.4178 -0.4313
 1806TIP3    H2 5425   5.005   4.525   2.394 -0.9627  0.9002 -0.1550
 1807TIP3   OH2 5426   1.912   0.904   2.303 -0.0532  0.0660  0.0681
 1807TIP3    H1 5427   1.992   0.880   2.349 -0.4793  0.3963  0.9858
 1807TIP3    H2 5428   1.943   0.944   2.221  0.6966 -1.1518 -0.2755
 1808TIP3   OH2 5429   5.277   4.393   3.223  0.0570  0.2843 -0.2908
 1808TIP3    H1 5430   5.195   4.441   3.216 -0.9163 -1.0299  1.3120
 1808TIP3    H2 5431   5.296   4.391   3.317  0.1963 -2.1460 -0.3050
 1809TIP3   OH2 5432   5.316   0.119   4.979  0.6575  0.0953  0.5421
 1809TIP3    H1 5433   5.335   0.041   4.927  1.2359  0.4524  0.2048
 1809TIP3    H2 5434   5.401   0.160   4.993  0.3737  0.6112  0.8024
 1810TIP3   OH2 5435   0.009   1.447   2.298  0.1078  0.0040  0.6401
 1810TIP3    H1 5436   0.100   1.424   2.318  0.5103  1.0501  0.0975
 1810TIP3    H2 5437   0.011   1.474   2.207 -0.6577  0.5225  0.7701
 1811TIP3   OH2 5438   3.854   0.600   3.328 -0.4293  0.6338  0.4800
 1811TIP3    H1 5439   3.798   0.523   3.341  0.8166 -0.1260  1.6648
 1811TIP3    H2 5440   3.876   0.599   3.235 -1.1644  0.0813  0.3046
 1812TIP3   OH2 5441   2.867   5.481   2.142 -0.3225  0.0973  0.0927
 1812TIP3    H1 5442   2.823   5.548   2.089 -1.1771  0.7820  1.5831
 1812TIP3    H2 5443   2.950   5.466   2.098  0.4249  3.0206  0.2822
 1813TIP3   OH2 5444   3.259   4.891   0.946 -0.1431  0.1972 -0.6311
 1813TIP3    H1 5445   3.331   4.866   1.003  0.4453  1.6080 -0.7117
 1813TIP3    H2 5446   3.208   4.953   0.997  0.4652  1.5829 -1.6376
 1814TIP3   OH2 5447   3.328   3.464   3.058 -0.5331  0.1960  0.4189
 1814TIP3    H1 5448   3.237   3.452   3.031 -0.7231  0.5739  0.8642
 1814TIP3    H2 5449   3.346   3.556   3.038 -0.1789  0.0705  0.1428
 1815TIP3   OH2 5450   4.053   5.514   4.550 -0.4714 -0.2206 -0.0198
 1815TIP3    H1 5451   4.008   5.494   4.632  1.5372  0.8971  1.4145
 1815TIP3    H2 5452   4.044   5.608   4.540 -0.5526 -0.3223 -1.0374
 1816TIP3   OH2 5453   5.936   1.762   2.582 -0.1050  0.0246 -0.7936
 1816TIP3    H1 5454   6.018   1.717   2.561 -0.6606 -0.1781 -2.7771
 1816TIP3    H2 5455   5.955   1.854   2.565 -0.1605  0.0274 -0.8394
 1817TIP3   OH2 5456   2.094   0.287   0.550 -0.1076  0.5027  0.2123
 1817TIP3    H1 5457   2.057   0.199   0.555 -2.4694  1.2416 -2.1739
 1817TIP3    H2 5458   2.091   0.309   0.457  1.1228  2.8408  0.6653
 1818TIP3   OH2 5459   1.695   2.798   1.727  0.6185  0.2420 -0.0566
 1818TIP3    H1 5460   1.617   2.845   1.757  0.8274  1.5330 -1.4253
 1818TIP3    H2 5461   1.767   2.836   1.777  0.4536 -0.6485  0.8933
 1819TIP3   OH2 5462   0.032   1.598   2.684 -0.3552 -0.0207  0.2444
 1819TIP3    H1 5463   0.049   1.539   2.757 -0.0184 -0.1803  0.0377
 1819TIP3    H2 5464   0.108   1.587   2.626 -1.0563 -0.5734 -0.5852
 1820TIP3   OH2 5465   0.498   1.733   4.208 -0.2606 -0.4425  0.3528
 1820TIP3    H1 5466   0.589   1.711   4.188 -0.0482  0.5214  0.2272
 1820TIP3    H2 5467   0.503   1.787   4.287 -0.7438 -0.5210  0.4397
 1821TIP3   OH2 5468   1.992   5.438   4.969  0.0887  0.2316 -0.0204
 1821TIP3    H1 5469   1.932   5.391   5.028  0.6161 -0.1230  0.2406
 1821TIP3    H2 5470   1.942   5.451   4.889  0.1337 -1.3111 -0.3145
 1822TIP3   OH2 5471   0.843   5.412   0.029  0.3723  0.0822  0.1453
 1822TIP3    H1 5472   0.857   5.320   0.004  0.1206  0.3226 -0.9282
 1822TIP3    H2 5473   0.913   5.430   0.092 -0.3256 -1.2026  1.3711
 1823TIP3   OH2 5474   1.851   2.835   0.960 -0.4043  0.3694 -0.1024
 1823TIP3    H1 5475   1.815   2.754   0.924  0.7193 -0.4060  0.4313
 1823TIP3    H2 5476   1.936   2.808   0.998  0.5369  2.0238 -0.9499
 1824TIP3   OH2 5477   3.849   0.830   0.836 -0.2560 -0.5526 -0.1263
 1824TIP3    H1 5478   3.911   0.762   0.862  0.0608 -0.8559 -1.5728
 1824TIP3    H2 5479   3.841   0.886   0.913 -0.0916 -1.9030  0.9068
 1825TIP3   OH2 5480   3.072   4.607   5.069 -0.1491  0.2859  0.2441
 1825TIP3    H1 5481   3.124   4.572   4.997 -0.2773  1.3893 -0.3904
 1825TIP3    H2 5482   3.029   4.684   5.033 -0.7678  0.4474  1.3000
 1826TIP3   OH2 5483   0.071   0.868   3.557 -0.0390  0.3666  0.3629
 1826TIP3    H1 5484   0.129   0.854   3.482  0.3937 -1.5969  1.0075
 1826TIP3    H2 5485   0.038   0.781   3.578 -2.2740  1.2644  0.8166
 1827TIP3   OH2 5486   0.549   4.317   1.331  0.5149  0.0929 -0.7254
 1827TIP3    H1 5487   0.486   4.336   1.402 -0.3080  0.0038 -1.4100
 1827TIP3    H2 5488   0.506   4.249   1.279  0.5977  0.9664 -1.9593
 1828TIP3   OH2 5489   2.238   2.275   4.104  0.2325  0.1018  0.3896
 1828TIP3    H1 5490   2.226   2.182   4.121 -0.9048  0.1210 -0.2453
 1828TIP3    H2 5491   2.187   2.292   4.025  1.5147  0.9947 -0.2838
 1829TIP3   OH2 5492   5.174   5.030   3.082 -0.1825 -0.0742  0.2947
 1829TIP3    H1 5493   5.149   5.114   3.042  0.9255 -0.0460 -0.3757
 1829TIP3    H2 5494   5.200   5.053   3.171  0.2688  0.3276  0.0646
 1830TIP3   OH2 5495   6.022   5.144   3.207 -0.0523 -0.8847 -0.7788
 1830TIP3    H1 5496   6.107   5.170   3.172  0.2545 -2.0110 -0.8963
 1830TIP3    H2 5497   5.962   5.210   3.174  0.5905 -0.7040 -1.6250
 1831TIP3   OH2 5498   0.271   4.141   3.658 -0.0200 -0.2731 -0.1409
 1831TIP3    H1 5499   0.242   4.222   3.615 -0.1296 -0.6393 -0.7656
 1831TIP3    H2 5500   0.198   4.118   3.716 -0.0596 -0.0178 -0.0866
 1832TIP3   OH2 5501   6.197   1.551   0.550 -0.1232  0.0532  0.5693
 1832TIP3    H1 5502   6.265   1.517   0.492 -0.4509 -0.6831  0.5999
 1832TIP3    H2 5503   6.142   1.474   0.569 -1.2902  0.7381  0.0852
 1833TIP3   OH2 5504   4.110   4.114   1.831  0.4037 -0.6218  0.1564
 1833TIP3    H1 5505   4.131   4.113   1.925 -0.0250  0.7835  0.2933
 1833TIP3    H2 5506   4.021   4.147   1.827  0.1377 -1.4247 -0.7190
 1834TIP3   OH2 5507   0.183   0.205   1.221 -0.1756 -0.4269 -0.0421
 1834TIP3    H1 5508   0.132   0.164   1.290 -1.8781 -0.8125 -1.4635
 1834TIP3    H2 5509   0.200   0.294   1.253 -1.3391 -0.4464  0.6707
 1835TIP3   OH2 5510   2.109   4.458   1.143 -0.1813 -0.0618 -0.2663
 1835TIP3    H1 5511   2.108   4.363   1.126 -0.8938 -0.2489  0.7288
 1835TIP3    H2 5512   2.073   4.496   1.063 -0.8455 -0.7110 -0.2942
 1836TIP3   OH2 5513   1.061   5.186   0.688 -0.2431  0.6358 -0.4157
 1836TIP3    H1 5514   1.133   5.228   0.641  1.7574  1.0370  2.6679
 1836TIP3    H2 5515   1.040   5.109   0.636  2.2248  0.6938 -1.6438
 1837TIP3   OH2 5516   3.593   5.501   4.305  0.3651 -0.9451 -0.5196
 1837TIP3    H1 5517   3.588   5.592   4.333  1.5112 -0.5595 -1.4722
 1837TIP3    H2 5518   3.663   5.463   4.357  0.6737 -0.9553 -0.9323
 1838TIP3   OH2 5519   1.181   1.174   4.041  0.3296 -0.5963 -0.3110
 1838TIP3    H1 5520   1.251   1.121   4.003  0.5350 -1.6045  1.3811
 1838TIP3    H2 5521   1.100   1.134   4.008  0.4939  0.6434 -2.3651
 1839TIP3   OH2 5522   2.668   5.630   4.366 -0.1734  0.0351  0.3832
 1839TIP3    H1 5523   2.761   5.622   4.342  0.2677  0.9704  1.6866
 1839TIP3    H2 5524   2.632   5.691   4.302  0.3236  0.3365  0.3847
 1840TIP3   OH2 5525   1.869   1.053   4.837 -0.2517 -0.4714 -0.1430
 1840TIP3    H1 5526   1.777   1.074   4.849 -0.2368 -0.7069  0.4045
 1840TIP3    H2 5527   1.869   0.976   4.779 -0.4035 -0.4923 -0.1143
 1841TIP3   OH2 5528   4.927   1.121   3.284  0.6621  0.2030  0.1173
 1841TIP3    H1 5529   4.880   1.113   3.201 -0.4988  0.2483  0.7448
 1841TIP3    H2 5530   4.862   1.159   3.345  1.6354  0.6287  0.9164
 1842TIP3   OH2 5531   3.958   5.812   3.841  0.4763 -0.3212  0.0209
 1842TIP3    H1 5532   3.915   5.728   3.855  0.4337 -0.3829 -0.4681
 1842TIP3    H2 5533   4.045   5.801   3.880  0.8417 -0.9411 -0.9134
 1843TIP3   OH2 5534   0.185   4.759   1.948  0.1514  0.4832  0.0434
 1843TIP3    H1 5535   0.241   4.706   1.892 -1.9631 -0.0043 -1.7474
 1843TIP3    H2 5536   0.175   4.842   1.900 -2.1888 -0.1681 -0.7237
 1844TIP3   OH2 5537   2.596   1.480   3.909  0.9676 -0.1018 -0.2086
 1844TIP3    H1 5538   2.525   1.542   3.889  1.8161  1.6095  1.7540
 1844TIP3    H2 5539   2.636   1.462   3.824 -0.5028  0.5242 -1.0822
 1845TIP3   OH2 5540   1.020   1.043   1.776  0.0929 -0.0037  0.0328
 1845TIP3    H1 5541   1.054   0.958   1.803  0.2940 -0.2172 -0.8647
 1845TIP3    H2 5542   0.991   1.030   1.686  0.3426  0.9378 -0.1922
 1846TIP3   OH2 5543   2.543   3.804   4.880 -0.5718  0.7229  0.3945
 1846TIP3    H1 5544   2.503   3.815   4.794  0.4648  0.6363 -0.1095
 1846TIP3    H2 5545   2.549   3.893   4.915 -1.7818  0.6821  0.7656
 1847TIP3   OH2 5546   4.793   2.958   3.476  0.1589 -0.0968  1.1344
 1847TIP3    H1 5547   4.748   2.874   3.465 -1.8346  0.7869  1.9123
 1847TIP3    H2 5548   4.880   2.935   3.509 -0.8768 -1.8215  2.8635
 1848TIP3   OH2 5549   4.843   5.457   0.449  0.2495 -0.4723  0.0784
 1848TIP3    H1 5550   4.925   5.408   0.438 -0.7239 -2.3899  0.9462
 1848TIP3    H2 5551   4.800   5.415   0.523 -1.3753  0.7217 -0.1461
 1849TIP3   OH2 5552   1.800   1.424   1.591  0.5989  0.2609 -0.0437
 1849TIP3    H1 5553   1.782   1.464   1.505  1.3069  1.5352  0.3673
 1849TIP3    H2 5554   1.714   1.406   1.628  0.2427 -1.9188 -1.6982
 1850TIP3   OH2 5555   1.916   0.153   1.720 -0.4649  0.3154  0.1029
 1850TIP3    H1 5556   1.981   0.223   1.710 -0.6239  0.4611  0.0705
 1850TIP3    H2 5557   1.877   0.144   1.633  0.2197 -0.4811 -0.1292
 1851TIP3   OH2 5558   2.069   0.546   2.991 -0.3378 -0.0110  0.4573
 1851TIP3    H1 5559   1.974   0.549   2.983 -0.1916  0.4033 -1.7960
 1851TIP3    H2 5560   2.096   0.475   2.932  0.7279 -0.7100  1.7185
 1852TIP3   OH2 5561   0.057   3.205   5.137 -0.0088  0.4947  0.1162
 1852TIP3    H1 5562   0.069   3.212   5.042  0.3033  0.2696  0.1385
 1852TIP3    H2 5563   0.141   3.234   5.174  0.4117 -0.8351  0.2810
 1853TIP3   OH2 5564   5.302   4.183   4.815 -0.1226 -0.0140  0.4010
 1853TIP3    H1 5565   5.393   4.194   4.842  0.4510 -0.8721 -1.0318
 1853TIP3    H2 5566   5.269   4.112   4.870  1.4687 -2.7876 -1.9016
 1854TIP3   OH2 5567   3.175   4.215   4.707  0.2381 -0.1344  0.1305
 1854TIP3    H1 5568   3.222   4.154   4.651  1.8384  1.0102  0.1648
 1854TIP3    H2 5569   3.232   4.227   4.783 -1.0704 -0.2824  1.1730
 1855TIP3   OH2 5570   0.367   3.991   3.244 -0.4787  0.1232  0.1987
 1855TIP3    H1 5571   0.381   3.927   3.314 -2.1572  0.3963  0.8203
 1855TIP3    H2 5572   0.390   3.943   3.164  2.7449  0.2222  0.9544
 1856TIP3   OH2 5573   5.919   4.824   1.311 -0.0113  0.0128  0.1724
 1856TIP3    H1 5574   5.933   4.885   1.238 -1.0614  1.3888  1.0889
 1856TIP3    H2 5575   5.968   4.862   1.384  0.0337 -0.7137  0.5325
 1857TIP3   OH2 5576   5.687   3.189   2.649  0.0066  0.2240 -0.2697
 1857TIP3    H1 5577   5.671   3.176   2.743 -0.3718 -0.0062 -0.3628
 1857TIP3    H2 5578   5.683   3.101   2.612 -0.5096  0.3832 -0.6009
 1858TIP3   OH2 5579   0.367   0.025   1.330  0.2330  0.1934 -0.1558
 1858TIP3    H1 5580   0.441   0.075   1.362  0.8711 -0.7800 -0.0851
 1858TIP3    H2 5581   0.304   0.092   1.301  0.6674  1.0385  0.7925
 1859TIP3   OH2 5582   2.858   4.316   0.061  0.1190  0.5865 -0.3110
 1859TIP3    H1 5583   2.937   4.357   0.097 -0.8726  2.0595  0.3027
 1859TIP3    H2 5584   2.796   4.389   0.052 -0.8431 -0.3705 -1.7031
 1860TIP3   OH2 5585   5.052   5.265   3.309  0.5995 -0.0342  0.3080
 1860TIP3    H1 5586   5.084   5.308   3.229 -2.2072  1.9649  0.0945
 1860TIP3    H2 5587   5.060   5.332   3.376  0.5419 -0.8392  1.1349
 1861TIP3   OH2 5588   5.506   4.824   3.349 -0.3038 -0.7385  0.1274
 1861TIP3    H1 5589   5.545   4.911   3.345 -0.6120 -0.3678  2.8963
 1861TIP3    H2 5590   5.566   4.773   3.403  0.4120 -2.6568 -2.2838
 1862TIP3   OH2 5591   4.681   2.105   3.536 -0.2694  0.0103 -0.4777
 1862TIP3    H1 5592   4.608   2.157   3.569  0.1856  1.8950 -2.2627
 1862TIP3    H2 5593   4.654   2.077   3.449 -0.1961 -2.2299  0.1514
 1863TIP3   OH2 5594   6.043   5.367   2.864 -0.0431 -0.0866  0.4889
 1863TIP3    H1 5595   6.113   5.432   2.861 -0.5730  0.4775  0.0216
 1863TIP3    H2 5596   5.972   5.406   2.812 -0.2762 -1.1511 -0.0200
 1864TIP3   OH2 5597   0.805   4.352   0.495 -0.1485 -0.5729 -0.2158
 1864TIP3    H1 5598   0.791   4.259   0.515 -0.0602 -0.8440 -1.3496
 1864TIP3    H2 5599   0.751   4.399   0.558  1.3974 -1.3081  1.7513
 1865TIP3   OH2 5600   4.087   3.269   0.436  0.1301 -0.5136 -0.0374
 1865TIP3    H1 5601   4.053   3.242   0.521  1.8126 -0.1690  0.7779
 1865TIP3    H2 5602   4.015   3.251   0.375 -0.9855 -1.0827  1.3860
 1866TIP3   OH2 5603   5.773   3.464   2.574  0.2253  0.4082 -0.5058
 1866TIP3    H1 5604   5.865   3.490   2.577  0.3362 -0.0919  1.8437
 1866TIP3    H2 5605   5.771   3.377   2.614 -1.2454  0.3196 -0.7155
 1867TIP3   OH2 5606   0.533   5.715   3.193 -0.0663  0.1006  0.2441
 1867TIP3    H1 5607   0.461   5.662   3.225 -0.2946  0.3622  0.1698
 1867TIP3    H2 5608   0.546   5.782   3.260  0.0557  0.1010  0.2209
 1868TIP3   OH2 5609   5.204   0.614   0.231 -0.4407  0.0011 -0.0144
 1868TIP3    H1 5610   5.172   0.674   0.299 -0.4964  0.5180 -0.4905
 1868TIP3    H2 5611   5.141   0.623   0.159  1.0742  1.5173 -1.2332
 1869TIP3   OH2 5612   5.066   1.579   4.290 -0.0853 -0.1922  0.1063
 1869TIP3    H1 5613   5.144   1.523   4.294 -0.9394 -1.4129  0.2727
 1869TIP3    H2 5614   5.049   1.591   4.197 -0.1246 -0.5508  0.0670
 1870TIP3   OH2 5615   4.545   3.727   3.494 -0.0956 -0.3187 -0.2215
 1870TIP3    H1 5616   4.589   3.711   3.577 -0.5016 -0.7601 -0.0866
 1870TIP3    H2 5617   4.617   3.741   3.431  0.2369 -0.8786  0.0230
 1871TIP3   OH2 5618   1.805   3.574   3.471 -0.1878 -0.4685  0.5947
 1871TIP3    H1 5619   1.872   3.612   3.414 -1.1841 -1.1025 -1.0949
 1871TIP3    H2 5620   1.722   3.607   3.436 -0.8467 -0.8598  1.7257
 1872TIP3   OH2 5621   0.185   4.794   3.359  0.1895  0.0942  0.6076
 1872TIP3    H1 5622   0.229   4.736   3.422  0.4840  0.5000  0.7803
 1872TIP3    H2 5623   0.094   4.765   3.360 -0.2043  1.2021  2.5415
 1873TIP3   OH2 5624   1.285   5.604   3.015  0.1681 -0.5512 -0.3784
 1873TIP3    H1 5625   1.218   5.670   3.035  0.5312 -0.0141 -0.9245
 1873TIP3    H2 5626   1.323   5.583   3.100  0.9157  0.8757 -0.3338
 1874TIP3   OH2 5627   1.666   3.937   1.714 -0.7888 -0.3807  0.3248
 1874TIP3    H1 5628   1.609   4.001   1.758 -1.4932 -1.6405  1.3158
 1874TIP3    H2 5629   1.671   3.864   1.776  0.8532 -0.8510 -0.3301
 1875TIP3   OH2 5630   5.367   3.050   0.641  0.1266  0.1680  0.4355
 1875TIP3    H1 5631   5.403   2.966   0.669  0.0130  0.0440  0.2117
 1875TIP3    H2 5632   5.320   3.083   0.717 -0.6435 -0.4217  0.2223
 1876TIP3   OH2 5633   0.091   0.608   1.804 -0.1360  0.2356  0.5006
 1876TIP3    H1 5634   0.101   0.650   1.890  0.0919 -2.6236  2.0101
 1876TIP3    H2 5635   0.181   0.589   1.776  0.0546  3.9810 -2.0711
 1877TIP3   OH2 5636   2.476   1.284   1.754 -0.0092 -0.3337 -0.0877
 1877TIP3    H1 5637   2.428   1.256   1.832 -0.9860  0.4581 -0.3905
 1877TIP3    H2 5638   2.479   1.206   1.699 -0.6398 -0.4875  0.0883
 1878TIP3   OH2 5639   4.959   5.699   0.855  0.6576 -0.2721 -0.2728
 1878TIP3    H1 5640   4.997   5.787   0.850  0.1299  0.0515  1.1089
 1878TIP3    H2 5641   5.009   5.655   0.924  0.2476 -0.7181 -0.2567
 1879TIP3   OH2 5642   5.602   2.492   4.201  0.1447 -0.5078  0.0559
 1879TIP3    H1 5643   5.662   2.475   4.128 -0.1015  1.5890 -0.6873
 1879TIP3    H2 5644   5.517   2.462   4.169  0.4723 -2.0994  0.5562
 1880TIP3   OH2 5645   1.369   4.142   5.114  0.3127 -0.5274 -0.7684
 1880TIP3    H1 5646   1.371   4.049   5.137 -1.5833 -0.8567 -1.7719
 1880TIP3    H2 5647   1.280   4.158   5.085  0.5815  1.6512 -0.5470
 1881TIP3   OH2 5648   4.444   0.450   2.777 -0.2427 -0.1869 -0.6794
 1881TIP3    H1 5649   4.424   0.400   2.856  0.6583 -0.1303 -0.4090
 1881TIP3    H2 5650   4.360   0.455   2.730 -0.6572 -0.7063 -0.0108
 1882TIP3   OH2 5651   4.945   3.932   1.021  0.5475 -0.6731 -0.1742
 1882TIP3    H1 5652   4.972   3.957   0.932  0.4961 -0.0959 -0.0298
 1882TIP3    H2 5653   4.866   3.984   1.037  1.1975  0.0710  0.6415
 1883TIP3   OH2 5654   2.885   1.801   0.542  0.3476 -1.1483  0.2581
 1883TIP3    H1 5655   2.823   1.793   0.615  0.4635 -1.8126  0.2844
 1883TIP3    H2 5656   2.944   1.871   0.569 -0.2034 -0.7135  0.3669
 1884TIP3   OH2 5657   4.990   3.321   1.450 -0.1141 -0.0298 -0.1247
 1884TIP3    H1 5658   4.953   3.249   1.400  2.3978 -3.1229  2.0493
 1884TIP3    H2 5659   4.930   3.334   1.523 -1.2768  1.1118 -1.2481
 1885TIP3   OH2 5660   2.987   1.558   2.089  0.3479 -0.2558  0.5282
 1885TIP3    H1 5661   2.997   1.653   2.096 -0.7486 -0.2360  2.2434
 1885TIP3    H2 5662   3.059   1.523   2.141 -0.3736 -0.3062  1.5257
 1886TIP3   OH2 5663   4.418   3.820   0.133  0.1208 -0.2463  0.4735
 1886TIP3    H1 5664   4.508   3.804   0.161  0.2897 -1.6861 -0.7836
 1886TIP3    H2 5665   4.404   3.913   0.150  2.9044  0.7958 -2.0787
 1887TIP3   OH2 5666   1.120   0.249   0.673 -0.4987 -0.5245  0.3967
 1887TIP3    H1 5667   1.103   0.204   0.590 -0.9010 -0.1669  0.2837
 1887TIP3    H2 5668   1.035   0.250   0.717 -0.7970  1.2347 -0.1472
 1888TIP3   OH2 5669   1.895   0.472   2.681  0.2268 -0.5346 -0.0897
 1888TIP3    H1 5670   1.955   0.432   2.618 -0.1245  0.0153 -0.7850
 1888TIP3    H2 5671   1.813   0.422   2.671 -0.0489  0.0079 -0.5851
 1889TIP3   OH2 5672   1.048   5.730   3.074  0.2626  0.1013 -0.0522
 1889TIP3    H1 5673   0.960   5.735   3.036  0.0553 -0.7311  0.3084
 1889TIP3    H2 5674   1.041   5.664   3.142  1.6217 -1.3517 -1.2649
 1890TIP3   OH2 5675   2.804   3.185   3.501 -0.7059  0.3292 -0.0785
 1890TIP3    H1 5676   2.876   3.172   3.439 -0.1995 -1.3278  0.7974
 1890TIP3    H2 5677   2.811   3.112   3.562 -0.3949  2.5513  2.7478
 1891TIP3   OH2 5678   5.600   3.799   0.675  0.3469 -0.8579  0.1390
 1891TIP3    H1 5679   5.593   3.894   0.669  0.2027 -0.9366 -1.2684
 1891TIP3    H2 5680   5.555   3.777   0.757 -0.2026  0.2207  0.1478
 1892TIP3   OH2 5681   6.009   4.171   1.516  0.6478 -0.4362  0.3915
 1892TIP3    H1 5682   6.023   4.246   1.458 -0.2609 -0.8266 -0.3591
 1892TIP3    H2 5683   5.977   4.210   1.598 -0.1543 -0.0073 -0.1078
 1893TIP3   OH2 5684   0.539   3.815   1.422 -0.1082 -0.0442 -0.2589
 1893TIP3    H1 5685   0.467   3.765   1.459 -1.5258  2.0308 -0.0478
 1893TIP3    H2 5686   0.582   3.754   1.362 -2.0205 -1.3638 -0.3809
 1894TIP3   OH2 5687   2.347   5.889   3.615  0.6521  0.6025  0.0917
 1894TIP3    H1 5688   2.285   5.819   3.635  1.7874 -0.0439  1.4808
 1894TIP3    H2 5689   2.427   5.845   3.588  1.1773  1.3729  0.3394
 1895TIP3   OH2 5690   4.058   4.051   3.832 -0.3570 -0.0751  0.2050
 1895TIP3    H1 5691   3.984   4.062   3.772 -0.3646  1.7917  0.4994
 1895TIP3    H2 5692   4.130   4.024   3.775 -0.5416  0.9787 -0.5516
 1896TIP3   OH2 5693   2.241   1.735   0.662  0.1143 -0.1551  0.7320
 1896TIP3    H1 5694   2.227   1.828   0.644 -2.5610 -0.5789  0.2332
 1896TIP3    H2 5695   2.169   1.710   0.720  0.4293 -2.0394  0.3821
 1897TIP3   OH2 5696   5.321   2.995   4.417  0.3832 -0.1122 -0.4402
 1897TIP3    H1 5697   5.347   3.068   4.361  0.9445  0.9463  1.1418
 1897TIP3    H2 5698   5.386   2.993   4.487 -1.6293  0.2312  1.5658
 1898TIP3   OH2 5699  -0.016   5.892   2.880 -0.0661 -0.1649 -0.3625
 1898TIP3    H1 5700  -0.011   5.951   2.956  0.2406 -0.4648 -0.1440
 1898TIP3    H2 5701   0.072   5.855   2.874 -0.1264 -0.2368 -0.7917
 1899TIP3   OH2 5702   2.130   2.203   3.137  0.5209  0.3504  0.0327
 1899TIP3    H1 5703   2.115   2.146   3.212 -2.4856  0.2511 -0.5366
 1899TIP3    H2 5704   2.118   2.292   3.171 -0.3471  0.3273 -0.1785
 1900TIP3   OH2 5705   4.896   0.882   3.649 -0.1219 -0.1078 -0.8027
 1900TIP3    H1 5706   4.840   0.929   3.711 -0.2084  1.0167 -1.7102
 1900TIP3    H2 5707   4.889   0.790   3.676 -1.0229  0.2203  0.1618
 1901TIP3   OH2 5708   3.878   5.855   2.445  1.0746  0.3081  0.1493
 1901TIP3    H1 5709   3.891   5.837   2.351  0.7726  1.1123 -0.0493
 1901TIP3    H2 5710   3.917   5.779   2.489  2.5031  0.6002 -0.5730
 1902TIP3   OH2 5711   4.306   1.879   0.413  0.2809  0.7575 -0.0432
 1902TIP3    H1 5712   4.300   1.904   0.505 -1.6156  0.0426  0.0670
 1902TIP3    H2 5713   4.215   1.870   0.384  0.8188 -1.1932 -1.3697
 1903TIP3   OH2 5714   0.720   0.622   2.890 -0.5715  0.0185 -0.4652
 1903TIP3    H1 5715   0.694   0.569   2.815  1.3412  0.9106 -1.8603
 1903TIP3    H2 5716   0.639   0.664   2.919 -1.7931 -2.1916 -0.4472
 1904TIP3   OH2 5717   6.136   5.812   2.682 -0.4577 -0.1955 -0.3463
 1904TIP3    H1 5718   6.211   5.843   2.733 -1.0676  2.1073 -0.7698
 1904TIP3    H2 5719   6.068   5.797   2.747 -1.2797  2.8715 -0.3874
 1905TIP3   OH2 5720   6.158   5.882   1.461  0.2421  0.0684 -0.4049
 1905TIP3    H1 5721   6.137   5.800   1.418  3.7056 -0.3796 -1.5762
 1905TIP3    H2 5722   6.182   5.857   1.551  1.0941 -0.2340 -0.7016
 1906TIP3   OH2 5723   1.809   2.784   2.418  0.6725 -0.6585  0.0307
 1906TIP3    H1 5724   1.781   2.804   2.328 -0.9748 -1.1355  0.3997
 1906TIP3    H2 5725   1.799   2.689   2.425 -1.3133 -0.4141  1.3383
 1907TIP3   OH2 5726   5.771   2.574   2.929 -0.1806 -0.2868 -0.6099
 1907TIP3    H1 5727   5.789   2.564   2.836 -1.7886  0.7150 -1.0652
 1907TIP3    H2 5728   5.722   2.494   2.952 -0.6135 -0.0959 -0.8583
 1908TIP3   OH2 5729   4.435   2.366   3.530  0.0241  0.0624  0.3274
 1908TIP3    H1 5730   4.358   2.424   3.530 -0.3271 -0.2871 -1.9229
 1908TIP3    H2 5731   4.493   2.405   3.465  0.0228 -1.7592 -0.8324
 1909TIP3   OH2 5732   0.148   2.719   0.942 -0.2671  0.2009  0.0112
 1909TIP3    H1 5733   0.088   2.650   0.969 -3.4995  2.0102 -1.8065
 1909TIP3    H2 5734   0.131   2.730   0.848  2.6852  1.1731 -0.5194
 1910TIP3   OH2 5735   0.994   4.102   1.994  0.6940 -0.3580  0.5052
 1910TIP3    H1 5736   0.903   4.118   1.971  1.0333 -0.8813 -1.3668
 1910TIP3    H2 5737   1.016   4.170   2.057  0.4004  2.9389 -2.6477
 1911TIP3   OH2 5738   3.603   4.817   4.965  0.4688  0.1407 -0.0087
 1911TIP3    H1 5739   3.608   4.873   4.888 -1.2740 -2.8200 -2.5046
 1911TIP3    H2 5740   3.509   4.804   4.979  0.7872 -1.2241  1.1769
 1912TIP3   OH2 5741   3.343   3.894   3.184 -0.0140  0.0515  0.0426
 1912TIP3    H1 5742   3.324   3.864   3.273  1.3902 -0.9972  0.0206
 1912TIP3    H2 5743   3.370   3.815   3.138  1.1015  0.9012 -0.7974
 1913TIP3   OH2 5744   0.702   2.836   4.116  0.4240  0.1620 -0.2728
 1913TIP3    H1 5745   0.610   2.810   4.121  1.0920 -2.2752  0.6999
 1913TIP3    H2 5746   0.743   2.772   4.058  1.8792 -0.0714  0.9424
 1914TIP3   OH2 5747   5.224   1.697   2.338 -0.6739  0.1139 -0.7181
 1914TIP3    H1 5748   5.141   1.686   2.292 -1.8985 -0.0333  1.3719
 1914TIP3    H2 5749   5.228   1.791   2.359 -0.1787  0.1624 -0.9965
 1915TIP3   OH2 5750   3.876   1.951   2.717  0.3135  0.5454 -0.0713
 1915TIP3    H1 5751   3.867   1.977   2.809 -0.7524  1.3472 -0.3886
 1915TIP3    H2 5752   3.786   1.951   2.683  0.6901  0.1922 -1.0943
 1916TIP3   OH2 5753   5.493   5.050   4.932  0.4420 -0.0864  0.1846
 1916TIP3    H1 5754   5.486   5.055   4.837 -2.6710 -0.3753  0.3146
 1916TIP3    H2 5755   5.524   5.137   4.959  1.4896 -0.0530 -1.0613
 1917TIP3   OH2 5756   0.458   3.704   0.224  0.1707  0.3212 -0.1369
 1917TIP3    H1 5757   0.456   3.675   0.133 -1.1905 -0.3763  0.0957
 1917TIP3    H2 5758   0.393   3.649   0.268  0.9006  0.5569  1.2879
 1918TIP3   OH2 5759   4.439   4.345   1.092  0.0150  0.0192  0.1871
 1918TIP3    H1 5760   4.346   4.327   1.076  0.1414  1.4393 -2.9204
 1918TIP3    H2 5761   4.440   4.426   1.142 -0.4453  0.5362 -0.6227
 1919TIP3   OH2 5762   5.170   3.442   0.311  0.5742 -0.0113  0.0449
 1919TIP3    H1 5763   5.223   3.366   0.331 -0.8109 -1.1074 -0.3057
 1919TIP3    H2 5764   5.091   3.431   0.365  0.1379  0.9129 -0.3826
 1920TIP3   OH2 5765   3.070   2.924   3.141 -0.9158  0.0097  0.0763
 1920TIP3    H1 5766   3.141   2.878   3.187 -0.4467 -1.8398 -2.3125
 1920TIP3    H2 5767   2.992   2.873   3.160 -0.9454 -0.0598 -0.2384
 1921TIP3   OH2 5768   1.973   2.069   1.030  0.2325 -0.4506  0.7952
 1921TIP3    H1 5769   1.931   2.094   1.113 -0.9972 -0.1803  0.1212
 1921TIP3    H2 5770   1.901   2.034   0.978  0.7858  0.3513 -0.5464
 1922TIP3   OH2 5771   1.719   1.517   1.025  0.2400 -0.1127 -0.0885
 1922TIP3    H1 5772   1.746   1.441   1.076 -1.3553 -1.2899 -0.9358
 1922TIP3    H2 5773   1.643   1.552   1.072  0.3120  0.3412 -0.2993
 1923TIP3   OH2 5774   1.229   2.722   0.429  0.2620 -0.2692 -0.0141
 1923TIP3    H1 5775   1.252   2.782   0.359  0.0413 -0.3450 -0.1525
 1923TIP3    H2 5776   1.161   2.766   0.479  1.5495  0.5021  1.1578
 1924TIP3   OH2 5777   5.650   1.896   4.693 -0.0436 -0.3982  0.1246
 1924TIP3    H1 5778   5.697   1.953   4.633 -0.0072  0.6617  1.1169
 1924TIP3    H2 5779   5.565   1.938   4.705 -1.1824 -2.1319 -1.4012
 1925TIP3   OH2 5780   2.927   5.123   1.330  0.0254  0.6518  0.1412
 1925TIP3    H1 5781   2.837   5.130   1.299  0.1508 -0.7265 -0.6451
 1925TIP3    H2 5782   2.966   5.208   1.309 -0.5886  0.6141 -1.2605
 1926TIP3   OH2 5783   5.018   4.811   3.221  0.3663  0.1395 -0.1558
 1926TIP3    H1 5784   4.973   4.889   3.253 -0.6993 -1.1319  1.6217
 1926TIP3    H2 5785   5.087   4.795   3.286 -1.6007 -2.2848  1.5219
 1927TIP3   OH2 5786   4.493   0.469   4.362 -0.4503  0.3215  0.3806
 1927TIP3    H1 5787   4.434   0.471   4.437 -0.7183  1.2080  0.1568
 1927TIP3    H2 5788   4.455   0.404   4.303 -1.4401  1.1855  0.0535
 1928TIP3   OH2 5789   5.028   1.545   1.474  0.2017 -0.1664  0.0004
 1928TIP3    H1 5790   5.088   1.497   1.416 -0.5076 -0.9181 -0.1390
 1928TIP3    H2 5791   5.026   1.493   1.555 -1.7103 -1.2620 -0.6722
 1929TIP3   OH2 5792   3.697   5.637   0.667 -0.2371 -0.6532 -0.6119
 1929TIP3    H1 5793   3.619   5.688   0.687  0.2708 -0.7845  2.1929
 1929TIP3    H2 5794   3.664   5.551   0.640 -1.0421  0.3176 -3.0316
 1930TIP3   OH2 5795   3.617   1.022   4.778 -0.0040 -0.2095  0.2062
 1930TIP3    H1 5796   3.617   1.114   4.755  0.0890 -0.0227  0.9100
 1930TIP3    H2 5797   3.554   1.015   4.850 -1.3476 -1.0205 -1.0134
 1931TIP3   OH2 5798   1.454   5.515   2.812 -0.1045 -0.3816 -0.3492
 1931TIP3    H1 5799   1.400   5.556   2.879  0.3715 -0.3902  0.0387
 1931TIP3    H2 5800   1.500   5.587   2.769 -1.8027 -0.1650 -1.9408
 1932TIP3   OH2 5801   5.271   4.564   0.341  0.2223  0.0473  0.4674
 1932TIP3    H1 5802   5.334   4.493   0.330 -0.5787 -0.5218 -0.6195
 1932TIP3    H2 5803   5.325   4.643   0.346  1.0510 -0.4954  0.3352
 1933TIP3   OH2 5804   0.399   4.701   0.982 -0.0155  0.0993 -0.8939
 1933TIP3    H1 5805   0.410   4.619   1.029 -1.6346  1.0383  1.3253
 1933TIP3    H2 5806   0.488   4.730   0.962  0.7164 -0.9163  0.6755
 1934TIP3   OH2 5807   1.232   1.038   2.741  0.2456  0.0602  0.0872
 1934TIP3    H1 5808   1.187   0.991   2.671  0.3074  0.8955 -0.5196
 1934TIP3    H2 5809   1.289   0.971   2.781  1.7652  0.0210 -1.9833
 1935TIP3   OH2 5810   1.266   2.114   4.100 -0.4261  0.2987 -0.0823
 1935TIP3    H1 5811   1.348   2.110   4.051  1.0942  2.6569  2.0313
 1935TIP3    H2 5812   1.222   2.193   4.068 -0.0716  1.0901  1.2834
 1936TIP3   OH2 5813   4.777   4.623   4.727  0.1210 -0.2292 -0.4120
 1936TIP3    H1 5814   4.763   4.654   4.816  0.0821 -1.6567  0.1030
 1936TIP3    H2 5815   4.768   4.702   4.672 -1.9610  0.3099  0.6146
 1937TIP3   OH2 5816   5.018   5.501   3.134 -0.2565  0.8056 -0.1443
 1937TIP3    H1 5817   4.967   5.569   3.177 -0.9103  1.8192 -2.4041
 1937TIP3    H2 5818   4.995   5.507   3.041 -0.9604 -3.0362 -0.3835
 1938TIP3   OH2 5819   5.893   5.136   2.676 -0.5908 -0.0531 -0.0138
 1938TIP3    H1 5820   5.945   5.195   2.621  0.6974 -2.1820 -1.2088
 1938TIP3    H2 5821   5.839   5.195   2.729 -1.3341  2.1753 -2.9478
 1939TIP3   OH2 5822   3.285   0.486   0.601  0.3427 -0.5846 -0.5092
 1939TIP3    H1 5823   3.257   0.417   0.661 -0.6598  1.6033  1.6923
 1939TIP3    H2 5824   3.208   0.542   0.591  1.3507  0.6893 -1.5600
 1940TIP3   OH2 5825   5.701   4.396   4.420 -0.0372 -0.2927 -0.1675
 1940TIP3    H1 5826   5.625   4.374   4.366  0.0776 -1.4891  0.1249
 1940TIP3    H2 5827   5.767   4.427   4.358 -0.7145  0.6389 -0.4363
 1941TIP3   OH2 5828   6.232   1.887   2.845 -0.1801  0.4533  0.2491
 1941TIP3    H1 5829   6.212   1.937   2.766 -0.8487  0.4526  0.4129
 1941TIP3    H2 5830   6.156   1.829   2.856 -0.0063  0.3273  0.7882
 1942TIP3   OH2 5831   5.653   3.155   5.080 -0.1897 -0.4168 -0.2318
 1942TIP3    H1 5832   5.700   3.078   5.047  0.9718 -0.5984  1.6757
 1942TIP3    H2 5833   5.720   3.205   5.127 -1.0900  1.4095 -0.8243
 1943TIP3   OH2 5834   5.112   2.453   3.051  0.6165  0.5201  0.0512
 1943TIP3    H1 5835   5.131   2.370   3.006 -1.0696 -0.2850  0.7396
 1943TIP3    H2 5836   5.188   2.508   3.031  1.1274 -0.6813 -1.6143
 1944TIP3   OH2 5837   1.256   4.918   4.823 -0.2627 -0.0043  0.3741
 1944TIP3    H1 5838   1.337   4.962   4.799  0.0545 -1.1242 -0.6872
 1944TIP3    H2 5839   1.242   4.853   4.754 -1.1828 -0.9634  1.4216
 1945TIP3   OH2 5840   1.969   3.079   2.084 -0.2087 -0.2039  0.0460
 1945TIP3    H1 5841   1.937   3.125   2.162 -0.9123 -0.1645 -0.2601
 1945TIP3    H2 5842   2.064   3.084   2.091 -0.2024 -1.6185  1.7511
 1946TIP3   OH2 5843   2.968   5.208   2.101 -0.5267  0.3895 -0.2880
 1946TIP3    H1 5844   2.996   5.268   2.032  0.1818  1.8042  1.1722
 1946TIP3    H2 5845   3.019   5.233   2.178 -0.3350 -2.0010  0.4478
 1947TIP3   OH2 5846   4.564   2.917   1.921  0.1581  0.0896  0.2570
 1947TIP3    H1 5847   4.626   2.862   1.873  0.6725  2.0376 -1.4302
 1947TIP3    H2 5848   4.524   2.857   1.984  1.9108 -1.8092 -0.3045
 1948TIP3   OH2 5849   1.098   2.933   4.003  0.4003  0.4196  0.4213
 1948TIP3    H1 5850   1.076   2.839   4.004 -1.7471  0.8553  2.2320
 1948TIP3    H2 5851   1.186   2.937   4.041  0.9641 -0.9268 -0.6657
 1949TIP3   OH2 5852   0.204   1.540   3.393  0.1640  0.0306 -0.4737
 1949TIP3    H1 5853   0.286   1.500   3.365  0.3042 -0.1973  0.2370
 1949TIP3    H2 5854   0.231   1.616   3.444 -0.0913  1.9133 -2.9246
 1950TIP3   OH2 5855   5.845   0.594   1.842  0.6078 -0.3910 -0.0321
 1950TIP3    H1 5856   5.860   0.677   1.797 -1.2859  0.7326  1.2768
 1950TIP3    H2 5857   5.812   0.536   1.774  2.6090 -0.3652 -1.1160
 1951TIP3   OH2 5858   3.646   0.639   1.317  0.1041  0.3099  0.0454
 1951TIP3    H1 5859   3.580   0.609   1.380  0.0886  2.7162  1.2799
 1951TIP3    H2 5860   3.697   0.704   1.364  2.0001  0.0952 -1.5762
 1952TIP3   OH2 5861   2.874   0.204   3.203 -0.3040 -0.1406 -0.3211
 1952TIP3    H1 5862   2.968   0.188   3.210 -0.0871  1.6792  2.7033
 1952TIP3    H2 5863   2.864   0.298   3.218 -2.7832 -0.8496  4.3122
 1953TIP3   OH2 5864   4.165   0.641   3.254 -0.6881  0.9319 -0.0385
 1953TIP3    H1 5865   4.238   0.656   3.194  0.6326  0.4885  1.3765
 1953TIP3    H2 5866   4.114   0.722   3.250  0.1944  1.4866 -0.6430
 1954TIP3   OH2 5867   3.752   0.115   3.122  0.1509  0.1031  0.7451
 1954TIP3    H1 5868   3.769   0.021   3.127 -1.1951 -0.2036 -0.0937
 1954TIP3    H2 5869   3.792   0.151   3.201 -1.1580 -1.4666  2.1746
 1955TIP3   OH2 5870   2.781   0.446   2.423 -0.1273  0.0405  0.4510
 1955TIP3    H1 5871   2.868   0.406   2.424 -0.1988 -0.2151  2.8514
 1955TIP3    H2 5872   2.722   0.376   2.394  0.4135  0.1863 -1.0777
 1956TIP3   OH2 5873   4.700   5.150   4.621 -0.2375 -0.6826  0.3810
 1956TIP3    H1 5874   4.779   5.105   4.591  0.4004  0.1415  0.8005
 1956TIP3    H2 5875   4.648   5.161   4.542  1.2906  1.2078 -0.4265
 1957TIP3   OH2 5876   4.954   2.471   4.439  0.2096  0.0480 -0.1588
 1957TIP3    H1 5877   4.911   2.439   4.360 -0.5166 -0.3930  0.3971
 1957TIP3    H2 5878   4.929   2.563   4.446 -2.4603 -0.6787  1.2673
 1958TIP3   OH2 5879   1.410   3.480   0.835  0.5875  0.0559 -0.0655
 1958TIP3    H1 5880   1.389   3.388   0.856 -0.6117  0.9489  3.4077
 1958TIP3    H2 5881   1.341   3.507   0.774 -0.0352 -0.9282  0.1786
 1959TIP3   OH2 5882   0.788   3.069   3.231  0.2747  0.4213 -0.4884
 1959TIP3    H1 5883   0.739   3.006   3.284  0.4064 -0.6745 -1.6125
 1959TIP3    H2 5884   0.810   3.020   3.152  1.8314  1.3886 -0.6735
 1960TIP3   OH2 5885   6.029   5.707   2.439 -0.0151 -0.0001  0.1005
 1960TIP3    H1 5886   5.966   5.772   2.407  1.2804  1.3264  0.1184
 1960TIP3    H2 5887   6.076   5.751   2.509  5.2733  1.6955 -3.8000
 1961TIP3   OH2 5888   2.053   4.636   4.857 -0.6898  0.2364  0.4244
 1961TIP3    H1 5889   2.075   4.698   4.926 -0.2874 -0.8409  1.3014
 1961TIP3    H2 5890   1.999   4.686   4.796  0.0139  1.5548  0.8546
 1962TIP3   OH2 5891   4.315   5.558   3.189 -0.3586  0.0753 -0.5184
 1962TIP3    H1 5892   4.288   5.509   3.267 -0.0779 -1.0181 -1.0908
 1962TIP3    H2 5893   4.237   5.607   3.163 -0.5551  0.1718  0.2306
 1963TIP3   OH2 5894   3.042   5.215   5.115 -0.0817 -0.6195  0.1685
 1963TIP3    H1 5895   3.021   5.162   5.192 -1.5056 -2.4051 -1.3331
 1963TIP3    H2 5896   2.958   5.252   5.088  0.1785 -0.9545 -1.1559
 1964TIP3   OH2 5897   4.560   5.107   5.098 -0.1748 -0.2937 -0.5744
 1964TIP3    H1 5898   4.600   5.129   5.014  1.2949  1.4786  0.5100
 1964TIP3    H2 5899   4.544   5.192   5.140 -0.4190 -1.1389  1.1310
 1965TIP3   OH2 5900   3.994   1.091   0.278  0.3071 -0.3664 -0.3742
 1965TIP3    H1 5901   3.901   1.107   0.290 -0.0025 -0.0172 -2.6937
 1965TIP3    H2 5902   4.037   1.147   0.342 -1.0465  1.1848 -0.7724
 1966TIP3   OH2 5903   3.151   4.188   2.290  0.1852  0.0915 -0.3042
 1966TIP3    H1 5904   3.198   4.266   2.319 -0.8427  1.3547 -1.8377
 1966TIP3    H2 5905   3.159   4.190   2.194 -2.2609 -0.0799 -0.5729
 1967TIP3   OH2 5906   3.584   2.525   1.055  0.0260 -0.4443  0.2744
 1967TIP3    H1 5907   3.562   2.597   1.115  1.1123  2.1003 -2.1600
 1967TIP3    H2 5908   3.677   2.509   1.071  0.2712  0.1111 -0.5742
 1968TIP3   OH2 5909   2.281   5.707   3.853 -0.4827  0.1623  0.3981
 1968TIP3    H1 5910   2.254   5.617   3.833  0.9346 -0.1368 -0.2713
 1968TIP3    H2 5911   2.220   5.762   3.803  0.2941 -0.4998 -1.3500
 1969TIP3   OH2 5912   2.907   3.232   4.499  0.0246  0.4707 -0.6821
 1969TIP3    H1 5913   2.829   3.251   4.551 -0.5417 -0.2009 -1.2716
 1969TIP3    H2 5914   2.887   3.150   4.454  0.9541  0.4441 -1.0779
 1970TIP3   OH2 5915   5.288   3.417   0.827 -0.1858 -0.1340 -0.6081
 1970TIP3    H1 5916   5.223   3.359   0.868  0.4340 -1.0367 -0.8601
 1970TIP3    H2 5917   5.252   3.505   0.837 -0.5516 -0.4305  0.9126
 1971TIP3   OH2 5918   5.904   1.456   2.812  0.4010 -0.3016 -0.4948
 1971TIP3    H1 5919   5.891   1.409   2.729 -0.3541 -0.2544 -0.4106
 1971TIP3    H2 5920   5.985   1.420   2.847  0.2358 -0.9959 -0.8073
 1972TIP3   OH2 5921   6.083   2.662   4.771 -0.3854 -0.2746 -0.0946
 1972TIP3    H1 5922   6.068   2.607   4.695  0.0619 -1.7075  0.8125
 1972TIP3    H2 5923   6.007   2.646   4.827  0.6583 -1.5062  1.0294
 1973TIP3   OH2 5924   1.179   1.258   0.582  0.1844 -0.6314  0.1560
 1973TIP3    H1 5925   1.119   1.205   0.634 -0.3531  0.7346  1.0012
 1973TIP3    H2 5926   1.244   1.196   0.549 -1.1976 -2.0142 -0.0768
 1974TIP3   OH2 5927   3.324   1.993   0.546  0.2180  0.4355 -0.4052
 1974TIP3    H1 5928   3.359   1.948   0.468  1.8717  0.3048  0.3717
 1974TIP3    H2 5929   3.395   1.988   0.610 -1.7791 -1.2566  1.8633
 1975TIP3   OH2 5930   5.912   4.201   2.793  0.5651  0.1890 -0.7317
 1975TIP3    H1 5931   5.877   4.141   2.727 -1.5245  0.0093  0.4339
 1975TIP3    H2 5932   5.909   4.151   2.875  2.8475  0.4989 -0.4028
 1976TIP3   OH2 5933   0.040   5.107   2.149 -0.0194  0.6022  0.3678
 1976TIP3    H1 5934   0.068   5.099   2.058  0.4849  3.4310  0.1927
 1976TIP3    H2 5935  -0.039   5.053   2.155  1.2919 -1.6497 -1.0373
 1977TIP3   OH2 5936   4.832   1.475   2.505  0.3945 -0.1921  0.5386
 1977TIP3    H1 5937   4.908   1.440   2.551  0.5748 -1.1359 -0.4482
 1977TIP3    H2 5938   4.868   1.526   2.433  0.1294  1.9698  1.8446
 1978TIP3   OH2 5939   0.548   4.399   4.887  0.3759 -0.3100  0.8031
 1978TIP3    H1 5940   0.599   4.395   4.968  0.5639  1.3127  0.7994
 1978TIP3    H2 5941   0.465   4.439   4.914  0.4003  0.1432  0.2294
 1979TIP3   OH2 5942   2.092   2.325   3.767 -0.2202  0.4786  0.1623
 1979TIP3    H1 5943   2.097   2.257   3.699 -0.7885  0.3520  0.2399
 1979TIP3    H2 5944   2.028   2.291   3.830 -0.8502  1.2729 -0.0227
 1980TIP3   OH2 5945   4.015   1.595   3.249  0.2161  0.4897 -0.6066
 1980TIP3    H1 5946   4.055   1.579   3.334 -0.5435  1.3492 -0.0664
 1980TIP3    H2 5947   3.963   1.674   3.262 -0.2825  0.3663 -1.7496
 1981TIP3   OH2 5948   0.159   1.044   4.613 -0.1388 -0.4519  0.8107
 1981TIP3    H1 5949   0.225   1.091   4.663 -1.3980  0.6381  1.4988
 1981TIP3    H2 5950   0.202   1.023   4.530  0.3581  2.3192  0.2767
 1982TIP3   OH2 5951   3.553   1.285   2.414  0.2477 -0.2209 -0.2234
 1982TIP3    H1 5952   3.531   1.222   2.345  0.4350 -0.5143 -0.0129
 1982TIP3    H2 5953   3.486   1.271   2.481  0.9798 -1.0115  0.3519
 1983TIP3   OH2 5954   5.258   4.058   3.757 -0.1161 -0.0649 -0.2661
 1983TIP3    H1 5955   5.173   4.093   3.786  0.5837 -0.2904  2.3922
 1983TIP3    H2 5956   5.316   4.135   3.754  0.4600 -0.3515  1.7403
 1984TIP3   OH2 5957   5.787   5.391   2.802  0.7774  0.2977 -0.1698
 1984TIP3    H1 5958   5.762   5.446   2.728  1.0198  0.6823  0.0284
 1984TIP3    H2 5959   5.706   5.382   2.854  1.4052  3.2015  1.5371
 1985TIP3   OH2 5960   4.621   3.588   3.776  0.2243  0.1657  0.1420
 1985TIP3    H1 5961   4.569   3.578   3.856 -0.2819 -0.6018 -0.2751
 1985TIP3    H2 5962   4.596   3.514   3.721  0.0288  1.0721 -1.0340
 1986TIP3   OH2 5963   4.262   4.577   4.958  0.2335  0.0500  0.1959
 1986TIP3    H1 5964   4.180   4.621   4.935  0.1464 -0.5217 -0.6178
 1986TIP3    H2 5965   4.275   4.599   5.051 -0.0602  1.3755 -0.0451
 1987TIP3   OH2 5966   1.931   1.058   0.704  0.7103 -0.2852  0.0549
 1987TIP3    H1 5967   1.961   1.104   0.782  1.1716 -0.4935  0.0045
 1987TIP3    H2 5968   1.854   1.107   0.675  0.8977  0.1532  0.2885
 1988TIP3   OH2 5969   5.617   3.825   0.363 -0.8465  0.1966 -0.3758
 1988TIP3    H1 5970   5.621   3.828   0.458  1.3539  1.5294 -0.4559
 1988TIP3    H2 5971   5.556   3.753   0.344 -2.3629  0.7345  1.9957
 1989TIP3   OH2 5972   5.357   1.184   4.074 -0.2629 -0.5781 -0.1869
 1989TIP3    H1 5973   5.421   1.126   4.115  0.5080  1.6909  2.0698
 1989TIP3    H2 5974   5.274   1.138   4.081  0.6345 -2.3801 -0.6548
 1990TIP3   OH2 5975   0.252   5.734   2.957  0.0135  0.5583  0.2052
 1990TIP3    H1 5976   0.261   5.648   2.999  2.6888  0.9096  0.5169
 1990TIP3    H2 5977   0.250   5.796   3.029 -1.7533  0.8373 -0.0285
 1991TIP3   OH2 5978   2.440   3.920   3.221 -0.7522  0.5842  0.1442
 1991TIP3    H1 5979   2.379   3.849   3.199 -0.0508  0.0509 -0.1124
 1991TIP3    H2 5980   2.449   3.970   3.139 -0.5036  0.4030  0.0612
 1992TIP3   OH2 5981   6.308   3.954   2.177  0.8607 -0.4245 -0.4408
 1992TIP3    H1 5982   6.304   3.889   2.107  1.6316 -0.8526 -0.0948
 1992TIP3    H2 5983   6.216   3.975   2.195  0.5487 -2.2294  0.2002
 1993TIP3   OH2 5984   2.022   3.476   2.918 -0.4781 -0.5236  0.3146
 1993TIP3    H1 5985   2.109   3.437   2.905 -0.1091  0.6962 -1.1112
 1993TIP3    H2 5986   1.975   3.411   2.969  1.0920 -1.4721  0.6317
 1994TIP3   OH2 5987   3.877   4.018   1.637  0.4529 -0.4818  0.1412
 1994TIP3    H1 5988   3.818   4.084   1.672  0.5570 -0.6569  0.6624
 1994TIP3    H2 5989   3.940   4.067   1.584 -0.0939 -0.2860 -0.3300
 1995TIP3   OH2 5990   3.985   3.544   4.600  0.5869 -0.7533  0.1023
 1995TIP3    H1 5991   4.049   3.473   4.590  0.2677 -0.7671 -2.4319
 1995TIP3    H2 5992   3.995   3.597   4.521 -1.4318  0.1713  0.4089
 1996TIP3   OH2 5993   4.078   2.119   1.393 -0.2542 -0.6306  0.1709
 1996TIP3    H1 5994   4.129   2.148   1.317  0.0776 -3.0447 -0.6349
 1996TIP3    H2 5995   4.143   2.080   1.452 -0.7678 -0.6767  0.7201
 1997TIP3   OH2 5996   5.364   1.692   4.651  0.1593 -0.3057 -0.7138
 1997TIP3    H1 5997   5.312   1.626   4.698  2.2823 -2.2664 -0.9100
 1997TIP3    H2 5998   5.455   1.673   4.676  0.9069  2.4219 -1.0265
 1998TIP3   OH2 5999   1.417   0.793   5.134 -0.0581  0.2816  0.5400
 1998TIP3    H1 6000   1.426   0.743   5.215 -0.1061 -1.4921 -0.4709
 1998TIP3    H2 6001   1.490   0.763   5.080  1.1288  2.8870  0.5999
 1999TIP3   OH2 6002   1.654   0.516   0.848  0.8268 -0.1681  0.0611
 1999TIP3    H1 6003   1.738   0.481   0.819  0.3874 -0.0977 -1.3482
 1999TIP3    H2 6004   1.628   0.578   0.780  0.3923  1.0479  1.2758
 2000TIP3   OH2 6005   2.450   1.526   3.629  0.0021 -0.4977 -0.4456
 2000TIP3    H1 6006   2.542   1.501   3.616 -0.2625 -0.9428 -1.5510
 2000TIP3    H2 6007   2.409   1.448   3.666 -0.1108 -0.5721 -0.7300
 2001TIP3   OH2 6008   1.723   2.852   4.631  0.2556  0.0609  0.7338
 2001TIP3    H1 6009   1.679   2.788   4.686  0.6606 -0.3878  0.5381
 2001TIP3    H2 6010   1.773   2.906   4.692 -0.3826  0.4431  0.9373
 2002TIP3   OH2 6011   3.237   0.614   2.809  0.1110  0.3429 -0.0747
 2002TIP3    H1 6012   3.332   0.620   2.823  0.0357  0.9805  0.1914
 2002TIP3    H2 6013   3.224   0.528   2.767  0.6242 -0.5005  1.4190
 2003TIP3   OH2 6014   1.317   5.837   4.582  0.8447  0.3816 -0.0417
 2003TIP3    H1 6015   1.399   5.877   4.551  0.8295  1.5321  1.3380
 2003TIP3    H2 6016   1.333   5.743   4.575  2.2322  0.5877  0.0563
 2004TIP3   OH2 6017   0.814   3.552   4.724  0.5527  0.3855 -0.2738
 2004TIP3    H1 6018   0.809   3.553   4.628 -0.2307  1.0010 -0.2397
 2004TIP3    H2 6019   0.724   3.537   4.752  0.6853  0.7676  0.3681
 2005TIP3   OH2 6020   0.682   3.952   0.746  0.2144  0.7942 -0.4176
 2005TIP3    H1 6021   0.776   3.972   0.745 -0.0148  1.9741  0.3086
 2005TIP3    H2 6022   0.679   3.857   0.757  1.3262  0.8603  0.7395
 2006TIP3   OH2 6023   3.676   2.850   1.142 -0.1400  0.6170 -0.0880
 2006TIP3    H1 6024   3.609   2.870   1.078  1.7758  0.5737 -2.2196
 2006TIP3    H2 6025   3.749   2.815   1.091  1.3325  0.1962  2.1637
 2007TIP3   OH2 6026   3.596   1.557   4.843  0.2294 -0.4345 -0.4594
 2007TIP3    H1 6027   3.569   1.635   4.892  0.5599 -0.8319  0.3732
 2007TIP3    H2 6028   3.568   1.575   4.753 -0.4358  0.2916 -0.1268
 2008TIP3   OH2 6029   1.142   5.688   4.269  0.3236  0.2823  0.1118
 2008TIP3    H1 6030   1.204   5.760   4.263  0.4830  0.1332 -0.0739
 2008TIP3    H2 6031   1.110   5.675   4.179  0.2669  0.1496  0.1496
 2009TIP3   OH2 6032   2.456   4.720   2.322  0.0514 -0.5119  0.3895
 2009TIP3    H1 6033   2.530   4.662   2.305  0.1338  0.3189 -2.7385
 2009TIP3    H2 6034   2.380   4.673   2.288 -0.2613  0.1263  0.1758
 2010TIP3   OH2 6035   2.438   0.880   2.609  0.3798 -0.0836  0.6497
 2010TIP3    H1 6036   2.374   0.816   2.642 -0.5467 -0.5554 -1.8647
 2010TIP3    H2 6037   2.386   0.944   2.562  1.6126  0.6117  0.1893
 2011TIP3   OH2 6038   2.196  -0.008   1.915  0.4370 -0.1902  0.2799
 2011TIP3    H1 6039   2.104  -0.024   1.894  0.8814 -1.2148 -1.0240
 2011TIP3    H2 6040   2.196   0.077   1.959 -1.0170  0.2921 -0.5693
 2012TIP3   OH2 6041   0.605   2.982   1.520 -0.4733  0.0338 -0.5215
 2012TIP3    H1 6042   0.693   2.945   1.529 -0.7304 -0.8209 -1.3455
 2012TIP3    H2 6043   0.556   2.947   1.594 -0.0257  0.8735  0.2017
 2013TIP3   OH2 6044   2.096   4.022   5.136  0.8972 -0.6353 -0.0382
 2013TIP3    H1 6045   2.090   4.089   5.204 -1.1468 -0.7457 -0.0571
 2013TIP3    H2 6046   2.153   3.955   5.173  0.2758 -0.4283  1.3366
 2014TIP3   OH2 6047   3.729   5.368   3.336  0.1303  0.2157 -0.2154
 2014TIP3    H1 6048   3.805   5.424   3.353  1.0200 -1.5391  2.2362
 2014TIP3    H2 6049   3.765   5.296   3.284 -0.2021  0.1610 -0.3656
 2015TIP3   OH2 6050   2.820   1.777   4.744  0.7373  0.0183 -0.2626
 2015TIP3    H1 6051   2.900   1.744   4.703  1.5079  0.8156  0.5441
 2015TIP3    H2 6052   2.848   1.802   4.833 -0.3162  0.6956 -0.1141
 2016TIP3   OH2 6053   0.775   3.184   4.580 -0.1961  0.1648  0.4580
 2016TIP3    H1 6054   0.865   3.189   4.614  0.6632  2.8710 -1.8016
 2016TIP3    H2 6055   0.766   3.094   4.550  2.3799  0.1462 -0.5366
 2017TIP3   OH2 6056   1.585   2.833   1.073 -0.0773 -0.0545  0.3159
 2017TIP3    H1 6057   1.538   2.824   0.990 -0.2930 -0.3555  0.4726
 2017TIP3    H2 6058   1.675   2.853   1.047 -0.2914  0.5740  0.0134
 2018TIP3   OH2 6059   5.175   3.938   0.027  0.4873 -0.1118  0.1571
 2018TIP3    H1 6060   5.150   3.867   0.086 -0.0961  0.7156  0.9281
 2018TIP3    H2 6061   5.137   3.914  -0.057  0.3429 -0.7358  0.3987
 2019TIP3   OH2 6062   5.527   5.526   0.532 -0.3365  0.2400 -0.1131
 2019TIP3    H1 6063   5.539   5.580   0.453  1.0625  0.7459  0.4113
 2019TIP3    H2 6064   5.593   5.457   0.523  1.2113  1.4391  1.5382
 2020TIP3   OH2 6065   5.253   1.955   2.384 -1.3557 -0.0006 -0.2133
 2020TIP3    H1 6066   5.209   1.988   2.463 -1.9528 -1.3806  0.0701
 2020TIP3    H2 6067   5.202   1.991   2.312 -1.4113  0.4675  0.0543
 2021TIP3   OH2 6068   1.768   5.588   1.910  0.1192  0.2029 -0.4279
 2021TIP3    H1 6069   1.696   5.531   1.937 -0.2084  0.4535 -0.7741
 2021TIP3    H2 6070   1.735   5.637   1.835 -0.2784  2.2173  0.9678
 2022TIP3   OH2 6071   2.583   3.279   3.991 -0.0384 -0.0034 -0.2257
 2022TIP3    H1 6072   2.569   3.367   4.027  0.7865  0.2893 -0.5955
 2022TIP3    H2 6073   2.495   3.243   3.982 -0.3761  0.6964  0.1463
 2023TIP3   OH2 6074   5.741   0.406   1.676  0.2402  0.0879  0.3753
 2023TIP3    H1 6075   5.759   0.326   1.726 -0.9502 -1.1828 -1.1197
 2023TIP3    H2 6076   5.772   0.386   1.588 -1.2477  0.7608 -0.3337
 2024TIP3   OH2 6077   4.750   0.347   0.309 -0.3379 -0.3179  0.3897
 2024TIP3    H1 6078   4.684   0.331   0.242  0.5390  2.0020 -1.1387
 2024TIP3    H2 6079   4.805   0.269   0.309 -1.6138 -1.2467 -0.0349
 2025TIP3   OH2 6080   2.075   5.629   0.772  0.5661  0.3878 -0.4706
 2025TIP3    H1 6081   2.031   5.685   0.835 -0.9607  0.2263 -1.3377
 2025TIP3    H2 6082   2.048   5.663   0.687  1.6614 -0.1033 -1.0271
 2026TIP3   OH2 6083   2.333   1.075   2.209  0.4493 -0.1219 -0.3796
 2026TIP3    H1 6084   2.358   0.998   2.158  0.9616  0.2466 -0.6875
 2026TIP3    H2 6085   2.286   1.130   2.147 -0.2047 -0.3239 -0.0756
 2027TIP3   OH2 6086   3.372   4.257   0.665 -0.2305 -0.0567 -0.0107
 2027TIP3    H1 6087   3.297   4.282   0.719 -0.7217 -0.4889 -0.4788
 2027TIP3    H2 6088   3.407   4.339   0.631 -0.6774  0.1234 -0.0341
 2028TIP3   OH2 6089   3.548   5.025   3.707  0.1681  0.2284  0.1683
 2028TIP3    H1 6090   3.597   5.057   3.631  0.8793 -1.0899  0.0528
 2028TIP3    H2 6091   3.595   5.062   3.782 -0.6340  1.6729 -0.0008
 2029TIP3   OH2 6092   0.310   4.224   1.943  0.0280 -0.4240 -0.2641
 2029TIP3    H1 6093   0.402   4.201   1.951 -0.5909 -2.9221  0.8223
 2029TIP3    H2 6094   0.272   4.202   2.029 -1.8060 -0.7750 -1.1138
 2030TIP3   OH2 6095   3.790   2.201   3.364 -0.4197 -1.0728 -0.4620
 2030TIP3    H1 6096   3.699   2.222   3.344 -0.1454 -0.3929 -1.0348
 2030TIP3    H2 6097   3.787   2.112   3.399 -1.2935 -1.0851 -0.5487
 2031TIP3   OH2 6098   4.186   4.661   1.159 -0.0218  0.9687  0.1692
 2031TIP3    H1 6099   4.274   4.630   1.179 -0.0867  0.8470  0.2613
 2031TIP3    H2 6100   4.150   4.595   1.100 -0.4146  0.5104  0.9099
 2032TIP3   OH2 6101   4.089   2.063   5.159  0.4401  1.2301  0.3730
 2032TIP3    H1 6102   4.182   2.063   5.181  0.7479  0.0772 -0.7964
 2032TIP3    H2 6103   4.062   1.971   5.167 -0.2038  1.2929 -0.8396
 2033TIP3   OH2 6104   5.475   3.613   0.259  0.5557  0.8971  0.5920
 2033TIP3    H1 6105   5.423   3.611   0.179  2.5004 -1.2193 -0.7599
 2033TIP3    H2 6106   5.476   3.523   0.290  1.2189  1.3716  2.0553
 2034TIP3   OH2 6107   3.309   2.791   2.685  0.0882 -0.3246  0.1876
 2034TIP3    H1 6108   3.344   2.804   2.773 -1.5714 -0.0345  0.8429
 2034TIP3    H2 6109   3.279   2.700   2.684  1.1140 -0.6760 -0.4818
 2035TIP3   OH2 6110   0.433   1.888   3.969 -0.3727  0.8270  0.1319
 2035TIP3    H1 6111   0.502   1.853   3.913 -1.2946  1.2705 -1.3261
 2035TIP3    H2 6112   0.425   1.825   4.040  1.0630  0.4304 -0.0424
 2036TIP3   OH2 6113   2.433   4.725   1.658 -0.3401  0.0229  0.3710
 2036TIP3    H1 6114   2.517   4.717   1.614 -1.1323 -0.1188 -1.1760
 2036TIP3    H2 6115   2.418   4.819   1.666 -0.2027  0.0468  0.3394
 2037TIP3   OH2 6116   4.601   3.044   1.148  0.2235 -0.1109  0.4379
 2037TIP3    H1 6117   4.643   3.009   1.227  0.2628  0.0540  0.4909
 2037TIP3    H2 6118   4.547   2.972   1.116 -0.6732  0.1878  1.2531
 2038TIP3   OH2 6119   3.929   2.613   0.846  0.0977 -0.3144  0.8827
 2038TIP3    H1 6120   3.857   2.675   0.843  0.7602  0.4670  0.7868
 2038TIP3    H2 6121   3.916   2.558   0.768 -0.5130 -0.3217  0.9881
 2039TIP3   OH2 6122   3.936   5.934   1.864  0.2354  0.4959 -0.0497
 2039TIP3    H1 6123   4.029   5.936   1.888 -0.4256 -0.1434  2.9792
 2039TIP3    H2 6124   3.914   6.025   1.845  1.7950  0.4360 -2.5818
 2040TIP3   OH2 6125   0.023   2.890   4.986  0.3104 -0.0457 -0.0382
 2040TIP3    H1 6126   0.088   2.890   5.056  0.2242  1.9076  0.0947
 2040TIP3    H2 6127  -0.058   2.863   5.030  0.4308  0.3562  0.4408
 2041TIP3   OH2 6128   0.134   1.510   1.668 -0.1906  0.4936  0.6704
 2041TIP3    H1 6129   0.086   1.573   1.615  1.5574  1.6453  0.3720
 2041TIP3    H2 6130   0.203   1.477   1.610 -0.3464 -0.8214  1.1992
 2042TIP3   OH2 6131   3.508   4.233   1.775  0.3728  0.1741  0.1807
 2042TIP3    H1 6132   3.475   4.299   1.713  2.6700  1.0004 -0.2729
 2042TIP3    H2 6133   3.600   4.224   1.752  0.8346 -0.9222  2.2826
 2043TIP3   OH2 6134   4.071   2.909   4.235 -0.2397  0.1157 -0.0861
 2043TIP3    H1 6135   4.152   2.952   4.261  0.2954 -0.3757 -0.8671
 2043TIP3    H2 6136   4.026   2.972   4.178  0.2745 -0.1289 -0.7772
 2044TIP3   OH2 6137   4.772   3.495   1.342 -0.3782  0.3593  0.3312
 2044TIP3    H1 6138   4.755   3.437   1.268 -2.1481  0.4026  0.6577
 2044TIP3    H2 6139   4.787   3.435   1.416 -3.5997  0.1784  0.9820
 2045TIP3   OH2 6140   4.234   2.543   4.187 -0.1869 -0.1319  0.1556
 2045TIP3    H1 6141   4.312   2.585   4.151  0.1308 -1.6826 -1.1054
 2045TIP3    H2 6142   4.265   2.501   4.267 -0.0734  0.4279  0.4116
 2046TIP3   OH2 6143   1.257   1.568   3.235 -0.2119  0.1958  0.4053
 2046TIP3    H1 6144   1.236   1.525   3.318 -1.8046 -0.0367 -0.0982
 2046TIP3    H2 6145   1.218   1.512   3.168  0.0340  1.0090 -0.4307
 2047TIP3   OH2 6146   4.541   0.300   1.355  1.2040  0.1681  0.0880
 2047TIP3    H1 6147   4.527   0.226   1.295 -1.1232  0.4362  0.2201
 2047TIP3    H2 6148   4.613   0.349   1.316  2.2188 -1.6698 -0.4678
 2048TIP3   OH2 6149   0.003   3.475   0.359 -0.3837 -0.4011  0.0491
 2048TIP3    H1 6150  -0.035   3.470   0.271  0.6631  2.3735 -0.6591
 2048TIP3    H2 6151   0.095   3.493   0.345  0.1790 -1.5796  1.7799
 2049TIP3   OH2 6152   4.545   3.259   5.172  0.3542 -0.0965  0.0783
 2049TIP3    H1 6153   4.459   3.267   5.130  0.4941  0.3168 -0.1348
 2049TIP3    H2 6154   4.565   3.166   5.168 -1.0200 -0.5452  2.0163
 2050TIP3   OH2 6155   0.530   5.384   4.672 -0.1772 -0.1157 -0.1935
 2050TIP3    H1 6156   0.529   5.315   4.739 -0.1783 -0.1813 -0.2609
 2050TIP3    H2 6157   0.482   5.346   4.599 -0.9864  0.3053  0.1148
 2051TIP3   OH2 6158   2.899   0.749   0.781  0.7154  0.7182 -0.0437
 2051TIP3    H1 6159   2.827   0.722   0.838  0.5098  1.9054  0.2955
 2051TIP3    H2 6160   2.977   0.711   0.821  0.5771  1.5547  1.0788
 2052TIP3   OH2 6161   2.092   0.732   3.181 -0.7544  0.4714  0.2856
 2052TIP3    H1 6162   2.070   0.656   3.127 -3.1802  1.6973 -0.6041
 2052TIP3    H2 6163   2.011   0.784   3.183  0.1250  1.8850  2.7930
 2053TIP3   OH2 6164   4.086   1.866   4.563  0.4818 -0.6566 -0.1536
 2053TIP3    H1 6165   4.125   1.923   4.497  0.9573 -0.2321  0.4786
 2053TIP3    H2 6166   4.016   1.820   4.517 -0.2095  0.7576 -0.5690
 2054TIP3   OH2 6167   3.469   2.384   1.656  0.0095 -0.0020 -0.1563
 2054TIP3    H1 6168   3.499   2.463   1.611  0.6287  0.6454  1.3452
 2054TIP3    H2 6169   3.399   2.350   1.600 -1.4900  2.5598  0.0358
 2055TIP3   OH2 6170   1.687   2.737   0.042  0.4117 -0.0159 -0.0573
 2055TIP3    H1 6171   1.708   2.707   0.131  1.4302 -0.6243 -0.4783
 2055TIP3    H2 6172   1.723   2.668  -0.015  0.0183  0.5021 -0.9504
 2056TIP3   OH2 6173   5.624   2.491   2.390 -1.1686 -0.0849 -0.1128
 2056TIP3    H1 6174   5.705   2.539   2.378 -0.9939 -0.4977 -0.6052
 2056TIP3    H2 6175   5.650   2.399   2.390 -1.7185 -0.2499 -1.0185
 2057TIP3   OH2 6176   5.917   3.127   0.237 -0.7340 -0.0069  0.6768
 2057TIP3    H1 6177   5.863   3.175   0.301  0.0259  1.7207  0.0913
 2057TIP3    H2 6178   5.863   3.126   0.157 -0.1923  1.1859  0.2703
 2058TIP3   OH2 6179   4.482   2.969   3.236  0.5274 -0.0540 -0.5660
 2058TIP3    H1 6180   4.570   3.005   3.251  0.5721 -1.0412  1.9757
 2058TIP3    H2 6181   4.425   3.046   3.236  1.2415  0.5005 -1.1129
 2059TIP3   OH2 6182   3.530   0.186   2.569 -0.0769  0.2725 -0.2063
 2059TIP3    H1 6183   3.493   0.270   2.594 -2.1086 -0.6220  0.0579
 2059TIP3    H2 6184   3.580   0.157   2.645 -1.8227 -0.0526  0.8704
 2060TIP3   OH2 6185   0.291   4.853   0.754  0.4431  0.3461 -0.1328
 2060TIP3    H1 6186   0.277   4.785   0.689 -0.4618  0.6462 -0.2654
 2060TIP3    H2 6187   0.317   4.806   0.833  2.4759  0.0255 -0.9166
 2061TIP3   OH2 6188   4.131   4.414   4.301  0.4726 -0.3068  0.0418
 2061TIP3    H1 6189   4.221   4.389   4.325  0.7223 -1.0826 -1.5637
 2061TIP3    H2 6190   4.142   4.477   4.230 -0.2681  0.0600  0.2420
 2062TIP3   OH2 6191   0.141   1.288   2.601 -0.2741  0.0601  0.0041
 2062TIP3    H1 6192   0.116   1.225   2.533  1.6137 -0.2450 -0.4628
 2062TIP3    H2 6193   0.183   1.360   2.553 -0.5387  0.7057  0.7138
 2063TIP3   OH2 6194   3.366   4.253   0.183  0.0599  0.1412  0.0491
 2063TIP3    H1 6195   3.421   4.191   0.231 -0.0146  0.6812  0.8463
 2063TIP3    H2 6196   3.317   4.299   0.251  0.3151  1.2678 -0.5127
 2064TIP3   OH2 6197   0.385   3.606   1.923 -0.3350  0.1518  0.1559
 2064TIP3    H1 6198   0.305   3.627   1.876 -0.0736 -0.8036 -0.7600
 2064TIP3    H2 6199   0.451   3.666   1.887 -0.5261  0.6566  0.6201
 2065TIP3   OH2 6200   4.752   5.267   2.852 -0.0996 -0.0030  0.1034
 2065TIP3    H1 6201   4.765   5.361   2.865  1.7300 -0.3021  0.5987
 2065TIP3    H2 6202   4.700   5.262   2.771 -0.8181  1.4316  0.4331
 2066TIP3   OH2 6203   1.885   3.921   0.221 -0.1247 -0.4058  0.2727
 2066TIP3    H1 6204   1.915   3.859   0.154  0.2523 -0.5636  0.5781
 2066TIP3    H2 6205   1.942   3.997   0.211  1.2005 -1.1705  1.6163
 2067TIP3   OH2 6206   5.017   5.596   4.037 -0.1808 -0.2514  0.4377
 2067TIP3    H1 6207   4.942   5.546   4.005  1.3235 -0.9490 -2.3463
 2067TIP3    H2 6208   5.008   5.682   3.995  0.8847 -0.5741 -0.5025
 2068TIP3   OH2 6209   2.989   2.658   2.141 -0.5479  0.2060  0.0783
 2068TIP3    H1 6210   2.931   2.586   2.167  0.0962 -0.6587 -0.8335
 2068TIP3    H2 6211   2.935   2.736   2.152 -1.6460 -0.5064 -0.0225
 2069TIP3   OH2 6212   0.762   4.989   1.119  0.5509 -0.2192 -0.4524
 2069TIP3    H1 6213   0.740   4.923   1.186 -0.4793  0.7226  0.1743
 2069TIP3    H2 6214   0.858   4.991   1.118  0.7179  1.3935  2.7679
 2070TIP3   OH2 6215   6.160   4.195   3.875 -0.0473  0.2789 -0.1087
 2070TIP3    H1 6216   6.253   4.181   3.855 -0.3240 -0.8788 -0.7163
 2070TIP3    H2 6217   6.156   4.284   3.909  1.1108  0.8039 -1.2356
 2071TIP3   OH2 6218   1.067   0.208   3.295  0.3027 -0.3696  0.1049
 2071TIP3    H1 6219   1.150   0.234   3.254  0.8236 -0.2610  1.1769
 2071TIP3    H2 6220   1.020   0.290   3.308 -0.5052 -0.5322 -1.5434
 2072TIP3   OH2 6221   4.934   4.631   1.794 -0.4759 -1.0669 -0.2233
 2072TIP3    H1 6222   4.951   4.567   1.725  0.7668  1.3056 -2.2630
 2072TIP3    H2 6223   5.019   4.671   1.810 -1.3499  0.5992  0.4121
 2073TIP3   OH2 6224   4.580   5.350   2.653 -0.2504  0.2146 -0.1207
 2073TIP3    H1 6225   4.595   5.409   2.579  1.1068 -0.3084 -0.2773
 2073TIP3    H2 6226   4.514   5.395   2.706 -2.0893  0.1364 -2.1611
 2074TIP3   OH2 6227   1.746   0.071   2.791 -0.3619  0.1360  0.1069
 2074TIP3    H1 6228   1.724   0.007   2.858 -1.0377  0.4251  0.1675
 2074TIP3    H2 6229   1.799   0.136   2.837  1.1333 -0.8553 -0.1663
 2075TIP3   OH2 6230   1.012   4.744   2.609  0.1501  0.1642 -0.8621
 2075TIP3    H1 6231   1.019   4.692   2.529 -0.5510 -1.9026  0.3479
 2075TIP3    H2 6232   0.953   4.693   2.665  0.1324  1.8623  0.7407
 2076TIP3   OH2 6233   6.045   3.837   3.626 -0.1107  0.3933 -0.5479
 2076TIP3    H1 6234   6.059   3.767   3.563  0.2931 -1.3257  1.3424
 2076TIP3    H2 6235   6.089   3.913   3.589  2.1965 -1.1890 -1.2271
 2077TIP3   OH2 6236   2.099   5.552   3.464 -0.2345  0.0482 -0.0526
 2077TIP3    H1 6237   2.193   5.542   3.453 -0.1326  1.1340 -0.2586
 2077TIP3    H2 6238   2.064   5.553   3.374 -0.5090 -0.8582  0.0324
 2078TIP3   OH2 6239   3.674   2.770   1.880 -0.0425 -0.4841 -0.0426
 2078TIP3    H1 6240   3.739   2.706   1.909  0.8973  0.3227 -0.3003
 2078TIP3    H2 6241   3.691   2.782   1.787 -0.4562 -0.1355 -0.0801
 2079TIP3   OH2 6242   4.384   3.534   0.132 -0.6782  0.1110  0.2119
 2079TIP3    H1 6243   4.376   3.629   0.126 -0.1047  0.1725  0.3869
 2079TIP3    H2 6244   4.332   3.510   0.209 -0.4356  0.3392  0.4479
 2080TIP3   OH2 6245   1.873   5.969   5.029 -0.2727 -0.3600  0.1006
 2080TIP3    H1 6246   1.805   5.909   5.060 -0.7221  0.1032  0.0256
 2080TIP3    H2 6247   1.932   5.914   4.977 -1.2493 -0.5489 -0.8307
 2081TIP3   OH2 6248   4.161   4.329   2.691  0.2776 -0.4248  0.1133
 2081TIP3    H1 6249   4.140   4.331   2.784 -1.1102  0.0528 -0.1856
 2081TIP3    H2 6250   4.252   4.298   2.687  0.8400  0.8973  1.6933
 2082TIP3   OH2 6251   4.044   2.109   2.293 -0.1737  0.2308 -0.8084
 2082TIP3    H1 6252   3.965   2.158   2.316  0.4132  1.5922 -1.6088
 2082TIP3    H2 6253   4.050   2.041   2.360 -0.9603  1.3018  0.3983
 2083TIP3   OH2 6254   5.148   4.831   1.752  0.1569  0.5556 -0.2867
 2083TIP3    H1 6255   5.058   4.860   1.736  0.0646  0.4305 -0.0059
 2083TIP3    H2 6256   5.193   4.846   1.669 -0.1583  0.4898 -0.4722
 2084TIP3   OH2 6257   4.161   4.564   4.022  0.3331  0.2309  0.0728
 2084TIP3    H1 6258   4.167   4.617   3.943 -0.0474  0.3185  0.0982
 2084TIP3    H2 6259   4.108   4.488   3.996  0.1208  0.3108  0.2685
 2085TIP3   OH2 6260   2.812   5.271   4.934 -0.7743 -0.1478 -0.3559
 2085TIP3    H1 6261   2.900   5.272   4.897 -0.2444 -2.0443  0.6858
 2085TIP3    H2 6262   2.755   5.302   4.864  0.7090  1.1814 -1.0300
 2086TIP3   OH2 6263   2.862   3.851   4.712  0.3501 -0.3794 -0.4594
 2086TIP3    H1 6264   2.890   3.806   4.632  0.7098  0.6853 -0.9626
 2086TIP3    H2 6265   2.882   3.943   4.694 -0.6523  0.0123  0.4091
 2087TIP3   OH2 6266   4.056   1.102   5.136  0.1433  0.0394 -0.7075
 2087TIP3    H1 6267   4.045   1.016   5.095  0.6191 -0.8727  0.9638
 2087TIP3    H2 6268   3.970   1.143   5.128 -0.9826 -1.7879  0.9832
 2088TIP3   OH2 6269   1.802   5.574   2.631 -0.3859  0.2707 -0.3972
 2088TIP3    H1 6270   1.714   5.610   2.641  0.0569  1.1423  0.4694
 2088TIP3    H2 6271   1.833   5.558   2.720  0.6879  0.8493 -0.6467
 2089TIP3   OH2 6272   3.309   4.672   1.731  0.2851  0.3882 -0.5392
 2089TIP3    H1 6273   3.343   4.702   1.815 -1.6055  1.1687 -0.0028
 2089TIP3    H2 6274   3.329   4.742   1.670 -0.1838  0.7710 -0.2606
 2090TIP3   OH2 6275   1.551   2.408   4.424 -0.5953 -0.2834 -0.2205
 2090TIP3    H1 6276   1.459   2.381   4.429 -0.7949  0.3054 -0.5865
 2090TIP3    H2 6277   1.579   2.381   4.337 -0.2668 -0.9240  0.0808
 2091TIP3   OH2 6278   2.986   4.683   2.221 -0.1783 -0.9704  0.0540
 2091TIP3    H1 6279   3.070   4.720   2.193  0.0807 -1.9821 -0.5702
 2091TIP3    H2 6280   2.944   4.656   2.139 -1.2939 -0.1503  0.3212
 2092TIP3   OH2 6281   2.712   2.874   0.186 -0.1159 -0.1893  0.1006
 2092TIP3    H1 6282   2.640   2.931   0.215 -0.9137 -1.6667  1.1589
 2092TIP3    H2 6283   2.736   2.909   0.100 -0.4146  1.8672  0.7764
 2093TIP3   OH2 6284   1.001   3.836   1.417 -0.6593 -0.3580  0.2420
 2093TIP3    H1 6285   0.916   3.804   1.447 -0.7556  0.6741  1.1544
 2093TIP3    H2 6286   1.028   3.774   1.349 -1.3858 -1.6326  1.0740
 2094TIP3   OH2 6287   4.930   2.212   3.899  0.0515  0.2729 -0.4436
 2094TIP3    H1 6288   4.926   2.122   3.933  1.6465  0.5621  0.6546
 2094TIP3    H2 6289   4.849   2.223   3.850  0.4010 -2.2133 -1.7598
 2095TIP3   OH2 6290   0.545   3.655   4.739  0.0809 -0.2426 -0.5705
 2095TIP3    H1 6291   0.549   3.728   4.800  0.1953 -1.8708  1.4661
 2095TIP3    H2 6292   0.460   3.663   4.696 -1.1242 -0.4408  1.6656
 2096TIP3   OH2 6293   6.283   4.739   3.943  0.4725 -0.0385  0.2059
 2096TIP3    H1 6294   6.319   4.828   3.948  1.0644 -0.3253  3.4664
 2096TIP3    H2 6295   6.188   4.752   3.937  0.4363  0.9123  1.9593
 2097TIP3   OH2 6296   2.946   5.278   4.003  0.4794 -0.0866 -0.3518
 2097TIP3    H1 6297   2.989   5.210   4.056  0.0443  0.1849  0.3471
 2097TIP3    H2 6298   3.016   5.340   3.984  0.4071  0.3768  0.8239
 2098TIP3   OH2 6299   2.438   1.661   2.403  0.1356  0.2408 -0.3409
 2098TIP3    H1 6300   2.495   1.601   2.451  0.9042  0.7984 -0.5360
 2098TIP3    H2 6301   2.409   1.725   2.468 -0.4309 -0.1573 -0.1995
 2099TIP3   OH2 6302   5.873   0.323   4.113  0.2998 -0.3102  0.7163
 2099TIP3    H1 6303   5.944   0.317   4.050  0.5609 -2.4666  1.1459
 2099TIP3    H2 6304   5.910   0.292   4.195 -0.7633 -0.1251  1.2917
 2100TIP3   OH2 6305   2.199   2.379   2.855 -1.1057  0.3757  0.3826
 2100TIP3    H1 6306   2.109   2.398   2.882 -1.8012 -4.3571  2.3429
 2100TIP3    H2 6307   2.249   2.377   2.936  0.3698  1.0521 -0.4751
 2101TIP3   OH2 6308   2.220   2.294   2.479  0.0913  0.2573  0.3716
 2101TIP3    H1 6309   2.130   2.324   2.484 -0.0620 -0.1722  0.2614
 2101TIP3    H2 6310   2.266   2.362   2.430 -0.6503 -0.5720 -1.5982
 2102TIP3   OH2 6311   5.899   1.527   4.195 -0.3142  0.1695  0.0128
 2102TIP3    H1 6312   5.868   1.436   4.201 -2.4157  0.8972  1.2702
 2102TIP3    H2 6313   5.933   1.547   4.281  3.0849 -0.3000 -1.0907
 2103TIP3   OH2 6314   0.711   4.896   4.187 -0.4488  0.0704 -0.4179
 2103TIP3    H1 6315   0.668   4.847   4.256  0.1508 -0.0069 -0.0923
 2103TIP3    H2 6316   0.653   4.970   4.170  0.1263  0.9601  1.2636
 2104TIP3   OH2 6317   3.616   4.171   0.846 -0.0251  0.2702  0.2110
 2104TIP3    H1 6318   3.675   4.229   0.892 -0.0479  1.4162 -1.1467
 2104TIP3    H2 6319   3.539   4.225   0.826 -0.3355 -0.3987 -0.4790
 2105TIP3   OH2 6320   3.139   1.023   1.070 -0.2649  0.2527  0.5046
 2105TIP3    H1 6321   3.148   1.053   0.979  1.4213 -1.2052  0.1344
 2105TIP3    H2 6322   3.062   0.967   1.069 -0.4114  0.4519  0.0315
 2106TIP3   OH2 6323   4.092   5.555   0.779 -0.1911  0.1474 -0.2136
 2106TIP3    H1 6324   4.034   5.562   0.704  1.0821  0.5334 -1.2020
 2106TIP3    H2 6325   4.063   5.624   0.839 -0.3903  0.7030 -0.9385
 2107TIP3   OH2 6326   0.834   3.781   2.066  0.4233  0.2696  0.2278
 2107TIP3    H1 6327   0.774   3.744   2.002  0.7506  0.2757 -0.0896
 2107TIP3    H2 6328   0.798   3.757   2.151 -0.4626  0.9627  0.0629
 2108TIP3   OH2 6329   4.696   2.110   4.338  0.1668  0.9163 -0.1837
 2108TIP3    H1 6330   4.752   2.046   4.382 -0.9857  1.0795  1.6033
 2108TIP3    H2 6331   4.731   2.115   4.249  0.7798 -1.5934 -0.1616
 2109TIP3   OH2 6332   0.331   3.036   0.481 -0.4345 -0.3455  0.2290
 2109TIP3    H1 6333   0.316   2.999   0.568  0.0708 -0.5971  0.2130
 2109TIP3    H2 6334   0.245   3.068   0.454 -0.2631  1.4392  1.5795
 2110TIP3   OH2 6335   3.557   5.982   2.569 -0.0307 -0.3454  0.4559
 2110TIP3    H1 6336   3.561   5.925   2.646 -1.0551  0.9808  1.5433
 2110TIP3    H2 6337   3.538   5.923   2.496  1.4439 -1.7017  1.1001
 2111TIP3   OH2 6338   4.153   0.501   2.276  0.0008 -0.4385 -0.4236
 2111TIP3    H1 6339   4.074   0.501   2.223 -0.3868 -0.2197  0.1526
 2111TIP3    H2 6340   4.170   0.409   2.295 -0.2219 -0.4725 -0.3897
 2112TIP3   OH2 6341   5.443   4.740   4.574  0.3063  0.0345  0.0923
 2112TIP3    H1 6342   5.443   4.768   4.482  3.0214 -0.9618 -0.3178
 2112TIP3    H2 6343   5.535   4.724   4.594 -0.2249  0.0070  2.9608
 2113TIP3   OH2 6344   3.935   3.154   4.806 -0.0153 -0.3480 -0.6514
 2113TIP3    H1 6345   3.867   3.089   4.790  1.4674 -1.9655 -0.5904
 2113TIP3    H2 6346   3.975   3.168   4.720  0.8122 -0.8391 -0.3529
 2114TIP3   OH2 6347   4.253   5.269   0.502  0.1439 -0.1977 -0.2212
 2114TIP3    H1 6348   4.258   5.318   0.583  1.5507  1.6853 -1.3727
 2114TIP3    H2 6349   4.231   5.334   0.435 -1.9397 -1.8316 -1.2773
 2115TIP3   OH2 6350   6.277   0.023   0.188  0.0121  0.0209 -0.4433
 2115TIP3    H1 6351   6.363   0.006   0.227 -0.5761  1.3432  1.5967
 2115TIP3    H2 6352   6.290   0.099   0.131  0.1255  0.5230  0.2400
 2116TIP3   OH2 6353   5.033   4.501   3.200  0.2675  0.0165  0.4631
 2116TIP3    H1 6354   4.941   4.477   3.207 -0.1935  1.8853  2.2000
 2116TIP3    H2 6355   5.041   4.580   3.255  1.8168  3.0234 -3.5749
 2117TIP3   OH2 6356   2.698   5.146   1.601  0.0459 -0.1035  1.0519
 2117TIP3    H1 6357   2.680   5.205   1.528 -2.2454 -1.1859  0.6547
 2117TIP3    H2 6358   2.787   5.115   1.585  0.1374  0.8128 -0.4486
 2118TIP3   OH2 6359   1.225   1.526   1.240 -0.0798  0.1285 -0.1495
 2118TIP3    H1 6360   1.195   1.459   1.178 -1.1205 -0.3219  0.7943
 2118TIP3    H2 6361   1.174   1.604   1.218 -1.9370 -0.5848  1.3340
 2119TIP3   OH2 6362   2.220   3.311   5.137  0.1729 -0.0732 -0.0217
 2119TIP3    H1 6363   2.292   3.370   5.159  0.0502 -0.4707  1.5396
 2119TIP3    H2 6364   2.261   3.237   5.092  0.4400  0.7415 -1.1512
 2120TIP3   OH2 6365   4.293   0.762   0.717 -0.4526 -0.0426  0.1908
 2120TIP3    H1 6366   4.321   0.810   0.795  1.0070 -1.8959  0.8620
 2120TIP3    H2 6367   4.364   0.777   0.654 -0.3041 -0.7705  0.1821
 2121TIP3   OH2 6368   6.291   2.550   4.569  0.2062  0.0627  0.1573
 2121TIP3    H1 6369   6.273   2.549   4.475 -0.0451  0.8967  0.1847
 2121TIP3    H2 6370   6.386   2.541   4.576  0.1437 -0.9648 -0.1276
 2122TIP3   OH2 6371   4.251   5.584   5.151  0.0480  0.3983  0.1489
 2122TIP3    H1 6372   4.287   5.671   5.167  0.1117  0.6872 -1.4271
 2122TIP3    H2 6373   4.163   5.600   5.116 -0.5742 -0.2294  1.3420
 2123TIP3   OH2 6374   5.285   0.238   0.114 -0.5961  0.2648  0.8305
 2123TIP3    H1 6375   5.196   0.250   0.081 -0.5359 -0.1266  0.5213
 2123TIP3    H2 6376   5.341   0.244   0.036 -0.1938  2.0891  1.2103
 2124TIP3   OH2 6377   0.266   4.771   4.769 -0.4977 -0.6029  0.4122
 2124TIP3    H1 6378   0.190   4.792   4.823 -1.2588 -0.1699 -0.7829
 2124TIP3    H2 6379   0.288   4.853   4.725 -0.0265 -0.9816 -0.0798
 2125TIP3   OH2 6380   2.279   3.863   3.549  0.0070  0.0989 -0.0430
 2125TIP3    H1 6381   2.352   3.909   3.507  1.2491 -1.1935  0.6059
 2125TIP3    H2 6382   2.226   3.932   3.588  0.8337  1.0851 -0.6261
 2126TIP3   OH2 6383   1.751   4.472   3.858 -0.3613 -0.3314  0.3271
 2126TIP3    H1 6384   1.691   4.408   3.821 -0.8107  0.4330 -0.2949
 2126TIP3    H2 6385   1.695   4.540   3.895  0.0714  1.0228 -1.3562
 2127TIP3   OH2 6386   2.091   0.683   2.074 -0.8390  0.0591 -0.0608
 2127TIP3    H1 6387   2.042   0.637   2.143 -0.0445 -1.9810 -0.7765
 2127TIP3    H2 6388   2.054   0.771   2.073 -2.2031 -0.4338  1.6481
 2128TIP3   OH2 6389   4.297   1.152   2.123 -0.4143  0.0122  0.3411
 2128TIP3    H1 6390   4.382   1.110   2.134 -0.2873  0.3933  0.8419
 2128TIP3    H2 6391   4.300   1.228   2.181 -0.7756  0.5103 -0.2710
 2129TIP3   OH2 6392   1.662   4.809   4.986  0.1837 -0.2850  0.2947
 2129TIP3    H1 6393   1.689   4.765   5.066 -1.6891 -2.4961 -0.1788
 2129TIP3    H2 6394   1.599   4.749   4.945  0.2477  1.2306 -2.2963
 2130TIP3   OH2 6395   5.552   0.731   1.442 -0.5731 -0.5361 -0.5760
 2130TIP3    H1 6396   5.642   0.761   1.431 -0.1846 -1.1989  0.6200
 2130TIP3    H2 6397   5.502   0.811   1.459 -0.1169 -0.2250 -0.6747
 2131TIP3   OH2 6398   1.151   0.940   3.749  0.1399 -0.2505 -0.1740
 2131TIP3    H1 6399   1.115   0.870   3.695  1.8065 -0.2421 -1.3766
 2131TIP3    H2 6400   1.237   0.957   3.712  1.7610 -0.7689  2.9769
 2132TIP3   OH2 6401   2.155   1.425   0.635  0.0907  0.3671 -0.8446
 2132TIP3    H1 6402   2.119   1.477   0.707  1.6958  0.5256 -0.1096
 2132TIP3    H2 6403   2.089   1.431   0.566 -1.1307  0.8766  0.3103
 2133TIP3   OH2 6404   6.153   3.839   0.573  0.6775  0.0603  0.8781
 2133TIP3    H1 6405   6.191   3.752   0.585  0.8099  0.1114  0.8234
 2133TIP3    H2 6406   6.148   3.849   0.478 -0.5393 -0.4221  0.8681
 2134TIP3   OH2 6407   5.737   4.224   5.096 -0.0192  0.5814 -0.2307
 2134TIP3    H1 6408   5.720   4.150   5.154 -0.9871  0.5417 -0.5388
 2134TIP3    H2 6409   5.832   4.237   5.099  0.1895 -0.7912 -0.3152
 2135TIP3   OH2 6410   2.834   3.316   2.373 -0.1985 -0.2005  0.4733
 2135TIP3    H1 6411   2.820   3.226   2.345 -0.5844 -0.2987  0.9676
 2135TIP3    H2 6412   2.929   3.327   2.372 -0.0234 -1.2221  2.2673
 2136TIP3   OH2 6413   0.426   3.921   4.267 -0.0035 -0.3882 -0.1493
 2136TIP3    H1 6414   0.498   3.963   4.314  0.6588 -0.3792 -1.1415
 2136TIP3    H2 6415   0.447   3.827   4.271 -0.0713 -0.4068 -0.2326
 2137TIP3   OH2 6416   0.107   4.951   4.289  0.4283  0.1432 -0.4391
 2137TIP3    H1 6417   0.028   5.005   4.281  1.0567  1.1539  0.0189
 2137TIP3    H2 6418   0.165   4.982   4.220  1.7686  1.8233  1.3071
 2138TIP3   OH2 6419   3.170   5.719   2.121 -0.0711  0.4770  0.0497
 2138TIP3    H1 6420   3.179   5.667   2.201 -1.8035 -1.0139 -0.6565
 2138TIP3    H2 6421   3.092   5.772   2.137 -0.6035 -0.0515 -0.7398
 2139TIP3   OH2 6422   1.545   2.694   4.382  0.0319 -0.2755  0.4940
 2139TIP3    H1 6423   1.551   2.657   4.470 -2.4642 -0.2246  0.7491
 2139TIP3    H2 6424   1.484   2.637   4.336 -1.2225  1.5149 -0.1745
 2140TIP3   OH2 6425   3.660   2.063   4.602 -0.4704  0.8932  0.3309
 2140TIP3    H1 6426   3.653   2.030   4.692 -0.2662 -1.3987 -0.4438
 2140TIP3    H2 6427   3.689   2.154   4.612  1.9600 -0.0235  2.5273
 2141TIP3   OH2 6428   5.059   4.665   0.183  0.4273  0.1826 -0.3322
 2141TIP3    H1 6429   5.143   4.656   0.227  0.6540  0.5513 -0.6898
 2141TIP3    H2 6430   5.033   4.575   0.164 -0.7525 -0.1871  2.5373
 2142TIP3   OH2 6431   5.779   2.595   0.201  0.5973  0.3752 -0.1948
 2142TIP3    H1 6432   5.722   2.591   0.124  0.9935  0.2544 -0.4860
 2142TIP3    H2 6433   5.743   2.530   0.261  0.2852  0.4699 -0.2773
 2143TIP3   OH2 6434   1.303   0.859   2.947  0.3757  0.1001 -0.7413
 2143TIP3    H1 6435   1.331   0.880   3.036  1.8057  0.8563 -1.3360
 2143TIP3    H2 6436   1.240   0.788   2.958  0.9760 -0.2341  0.8353
 2144TIP3   OH2 6437   2.936   1.708   4.233 -0.0729 -0.3207 -0.1054
 2144TIP3    H1 6438   3.001   1.638   4.238 -1.2636 -1.3866  2.0888
 2144TIP3    H2 6439   2.951   1.760   4.313 -1.3567 -0.1007  0.0096
 2145TIP3   OH2 6440   4.514   3.393   3.599  0.1769 -0.6106  0.2375
 2145TIP3    H1 6441   4.577   3.337   3.553  0.9329  1.0403 -0.8317
 2145TIP3    H2 6442   4.437   3.337   3.611  1.6820 -2.6088  1.3429
 2146TIP3   OH2 6443   6.139   0.612   2.132 -0.0409  0.3086 -0.5199
 2146TIP3    H1 6444   6.118   0.538   2.075 -1.1884 -0.9377  1.4007
 2146TIP3    H2 6445   6.222   0.588   2.173 -0.9771 -0.5148  0.9680
 2147TIP3   OH2 6446   5.317   4.122   0.877 -0.0071  0.6196  0.6588
 2147TIP3    H1 6447   5.411   4.108   0.885 -0.1606 -0.6741  0.5112
 2147TIP3    H2 6448   5.292   4.166   0.958  0.6896  0.7836  0.7925
 2148TIP3   OH2 6449   4.627   3.655   4.960  0.3962  0.0371  0.3126
 2148TIP3    H1 6450   4.627   3.666   5.055 -0.2546  0.0783  0.3126
 2148TIP3    H2 6451   4.673   3.572   4.946 -0.2930 -0.4342  0.7334
 2149TIP3   OH2 6452   0.312   1.561   2.626  0.4961  0.2241 -0.4108
 2149TIP3    H1 6453   0.357   1.534   2.706 -0.2019  0.4123  0.0548
 2149TIP3    H2 6454   0.337   1.653   2.614  1.7032 -0.1827 -1.1871
 2150TIP3   OH2 6455   0.700   3.291   0.929  0.6218  0.2095  0.5305
 2150TIP3    H1 6456   0.730   3.345   0.856 -1.5871  0.6180 -0.1506
 2150TIP3    H2 6457   0.707   3.201   0.897 -2.7826  0.4298 -1.3950
 2151TIP3   OH2 6458   1.238   4.217   3.789  0.0560  0.5000 -0.6067
 2151TIP3    H1 6459   1.272   4.189   3.874 -0.7167 -0.1163 -0.4907
 2151TIP3    H2 6460   1.197   4.301   3.806  1.0271  0.9896 -0.6375
 2152TIP3   OH2 6461   4.077   4.892   3.613 -0.1738 -0.1028 -0.0184
 2152TIP3    H1 6462   4.148   4.956   3.602 -0.5432  0.3035 -0.0993
 2152TIP3    H2 6463   4.059   4.861   3.525 -0.5870  0.3451 -0.0997
 2153TIP3   OH2 6464   1.823   5.476   2.888  0.4322  0.0988  0.2757
 2153TIP3    H1 6465   1.815   5.382   2.876  2.1003  0.1008 -1.4284
 2153TIP3    H2 6466   1.882   5.486   2.963 -1.2981 -0.1470  1.7056
 2154TIP3   OH2 6467   1.236   5.803   3.667 -0.2073  0.1638 -0.3477
 2154TIP3    H1 6468   1.302   5.872   3.668  1.1278 -1.0438 -0.4781
 2154TIP3    H2 6469   1.200   5.803   3.756 -0.1121  0.9088 -0.3028
 2155TIP3   OH2 6470   2.878   1.814   3.071 -0.0966 -0.2262  0.2682
 2155TIP3    H1 6471   2.857   1.739   3.014  2.5340  0.5324 -1.9370
 2155TIP3    H2 6472   2.890   1.775   3.158 -0.9710 -2.0134 -0.3536
 2156TIP3   OH2 6473   3.996   0.994   0.677  0.3193 -0.5556 -0.4050
 2156TIP3    H1 6474   4.003   0.949   0.593 -1.1119 -0.7601 -0.4356
 2156TIP3    H2 6475   3.926   0.948   0.723  1.7102 -1.0919  1.3284
 2157TIP3   OH2 6476   4.764   4.578   0.042 -0.1537 -0.1979  0.2163
 2157TIP3    H1 6477   4.699   4.521   0.000 -0.4911  0.6187 -0.4007
 2157TIP3    H2 6478   4.834   4.519   0.069 -1.1267 -1.1091  0.8806
 2158TIP3   OH2 6479   3.011   1.064   4.484  0.1600 -0.4666 -0.0366
 2158TIP3    H1 6480   2.923   1.069   4.523  1.5438  0.1521  3.3929
 2158TIP3    H2 6481   3.031   1.154   4.459 -1.2838 -1.0360 -4.0718
 2159TIP3   OH2 6482   1.291   2.032   3.707  0.2784  0.2717 -0.2376
 2159TIP3    H1 6483   1.363   2.051   3.646  0.9127 -0.8656  0.1121
 2159TIP3    H2 6484   1.332   1.978   3.775 -1.0369 -0.9896 -0.3889
 2160TIP3   OH2 6485   1.127   5.312   4.400 -0.0456  0.5297  0.0026
 2160TIP3    H1 6486   1.094   5.326   4.489 -2.4147  0.0116 -0.7413
 2160TIP3    H2 6487   1.049   5.296   4.347  1.4538 -1.6276 -1.7477
 2161TIP3   OH2 6488   5.804   4.479   2.380 -0.5763  0.0621 -0.6806
 2161TIP3    H1 6489   5.875   4.533   2.345  0.2612 -0.9431 -0.5835
 2161TIP3    H2 6490   5.730   4.539   2.390  0.6529  1.4324  0.5023
 2162TIP3   OH2 6491   0.389   4.641   2.322  0.3749 -0.2233  0.0715
 2162TIP3    H1 6492   0.345   4.715   2.279 -0.0284 -1.3019 -1.4658
 2162TIP3    H2 6493   0.464   4.622   2.266  0.3305 -1.1313  0.3053
 2163TIP3   OH2 6494   5.618   5.504   2.096 -0.7248 -0.2026 -0.0671
 2163TIP3    H1 6495   5.623   5.463   2.182  2.4598 -1.1380 -0.5800
 2163TIP3    H2 6496   5.686   5.570   2.096 -0.7827 -0.0979 -1.8135
 2164TIP3   OH2 6497   0.650   4.649   4.008 -0.7607 -0.5981 -0.2367
 2164TIP3    H1 6498   0.650   4.719   4.073 -0.2518  1.5052 -2.3841
 2164TIP3    H2 6499   0.710   4.583   4.044 -0.7003  0.3589  1.5194
 2165TIP3   OH2 6500   5.132   5.601   0.343 -1.0197 -0.2044 -0.0554
 2165TIP3    H1 6501   5.114   5.508   0.331 -1.9477  0.0015 -0.3494
 2165TIP3    H2 6502   5.159   5.609   0.435 -0.2483 -0.8567 -0.2159
 2166TIP3   OH2 6503   3.927   1.518   0.152  0.0462  0.1867 -0.2761
 2166TIP3    H1 6504   3.946   1.441   0.099 -0.9439 -0.5240  0.3784
 2166TIP3    H2 6505   3.852   1.559   0.109 -0.9640 -0.5679  0.7281
 2167TIP3   OH2 6506   3.685   5.549   1.976 -0.0341 -0.4831  0.2360
 2167TIP3    H1 6507   3.746   5.586   1.912 -0.5350 -1.0275 -0.5692
 2167TIP3    H2 6508   3.739   5.489   2.027  0.1294 -0.9049 -0.4197
 2168TIP3   OH2 6509   1.341   0.954   3.203 -0.5044  0.2368  0.2231
 2168TIP3    H1 6510   1.352   0.897   3.279  0.3559 -0.1179 -0.1504
 2168TIP3    H2 6511   1.270   1.013   3.227 -1.2597 -0.8332  0.7186
 2169TIP3   OH2 6512   1.062   1.656   4.242 -0.1108 -0.0866  0.3227
 2169TIP3    H1 6513   0.968   1.635   4.240  0.2497 -1.8733  0.7356
 2169TIP3    H2 6514   1.100   1.600   4.174  1.0144 -1.3423  1.9429
 2170TIP3   OH2 6515   1.880   1.613   4.891 -0.1345  0.0166  0.0662
 2170TIP3    H1 6516   1.958   1.602   4.836  0.1420 -0.3726  0.5278
 2170TIP3    H2 6517   1.911   1.599   4.980 -0.6626  0.2363  0.2910
 2171TIP3   OH2 6518   0.143   2.159   1.447 -0.1610  0.8458  0.2939
 2171TIP3    H1 6519   0.082   2.216   1.493  1.1543  0.7316  2.3405
 2171TIP3    H2 6520   0.191   2.114   1.517  0.7069 -0.7497 -1.2402
 2172TIP3   OH2 6521   3.105   2.174   2.026 -0.2143  0.5576  0.2901
 2172TIP3    H1 6522   3.068   2.140   2.108  0.6369  1.0571  0.9053
 2172TIP3    H2 6523   3.037   2.231   1.991 -0.6801  0.1613  0.5332
 2173TIP3   OH2 6524   5.070   1.138   2.799  0.3199 -0.2172 -0.8508
 2173TIP3    H1 6525   5.032   1.221   2.827 -1.4325 -0.9224 -1.0356
 2173TIP3    H2 6526   5.095   1.094   2.881  0.7066  0.2276 -0.7259
 2174TIP3   OH2 6527   5.963   0.333   0.423  0.0828 -0.5096 -0.5405
 2174TIP3    H1 6528   6.012   0.254   0.445 -0.6197 -1.5137 -2.2659
 2174TIP3    H2 6529   5.980   0.345   0.329  0.5535  1.6965 -0.2086
 2175TIP3   OH2 6530   5.387   5.816   3.169 -0.0064 -0.3580  0.6200
 2175TIP3    H1 6531   5.456   5.841   3.107  0.3711  0.1077  1.2120
 2175TIP3    H2 6532   5.434   5.790   3.248 -0.4960 -0.4723  0.8795
 2176TIP3   OH2 6533   2.486   3.941   0.353 -0.4222  0.2252  0.0286
 2176TIP3    H1 6534   2.504   4.009   0.288  0.0808  0.3992  0.3494
 2176TIP3    H2 6535   2.396   3.957   0.380 -0.7845 -0.1162 -0.9464
 2177TIP3   OH2 6536   0.462   0.248   0.556  0.3990 -0.3291  0.4449
 2177TIP3    H1 6537   0.483   0.323   0.612 -1.6180 -0.1082  1.0135
 2177TIP3    H2 6538   0.482   0.278   0.467  0.6486  0.4916  0.7666
 2178TIP3   OH2 6539   1.630   1.687   3.023  0.4164  0.2578  0.3269
 2178TIP3    H1 6540   1.708   1.724   2.983 -1.2533  1.8544 -1.7431
 2178TIP3    H2 6541   1.569   1.676   2.950 -1.1266 -1.4264  1.7621
 2179TIP3   OH2 6542   4.706   3.194   3.581 -0.7195  0.1657  0.0194
 2179TIP3    H1 6543   4.734   3.112   3.540 -0.6553 -1.1559  2.5175
 2179TIP3    H2 6544   4.787   3.244   3.592 -0.5952  0.0861 -0.5239
 2180TIP3   OH2 6545   1.248   2.251   3.209 -0.7439  0.3105  0.1089
 2180TIP3    H1 6546   1.273   2.325   3.153  0.6241 -0.0824  0.1523
 2180TIP3    H2 6547   1.324   2.193   3.207 -1.5486 -0.8067  0.5773
 2181TIP3   OH2 6548   1.979   3.384   1.249 -0.1184  0.2783  0.5018
 2181TIP3    H1 6549   2.035   3.438   1.194 -1.6928  0.6376 -0.8208
 2181TIP3    H2 6550   1.979   3.428   1.334  0.6880  0.8896  0.2008
 2182TIP3   OH2 6551   0.253   3.118   4.902 -0.0000  0.6467 -0.3983
 2182TIP3    H1 6552   0.201   3.045   4.935 -2.4573  1.6004 -1.8750
 2182TIP3    H2 6553   0.269   3.095   4.810 -1.6298  2.3116 -1.1526
 2183TIP3   OH2 6554   3.582   1.721   2.188  0.4269 -0.7000 -0.0802
 2183TIP3    H1 6555   3.534   1.803   2.203 -1.3536 -1.6125 -0.4671
 2183TIP3    H2 6556   3.611   1.693   2.275 -0.0547 -0.2997  0.2130
 2184TIP3   OH2 6557   3.524   1.178   4.292  1.0685  0.2369 -0.0950
 2184TIP3    H1 6558   3.611   1.211   4.268  0.8703  0.5648 -0.3679
 2184TIP3    H2 6559   3.476   1.256   4.320  0.3455  0.3190 -1.4894
 2185TIP3   OH2 6560   5.854   2.012   3.711 -0.4621  0.0746  0.1774
 2185TIP3    H1 6561   5.854   1.994   3.805  0.8389  1.7062  0.5339
 2185TIP3    H2 6562   5.790   1.950   3.675  0.0880 -1.6214  1.9139
 2186TIP3   OH2 6563   5.286   0.768   3.363  0.1816 -0.0119 -0.1807
 2186TIP3    H1 6564   5.276   0.677   3.392  1.8752  0.1060  0.9434
 2186TIP3    H2 6565   5.206   0.812   3.392 -1.6066 -1.4813 -2.4869
 2187TIP3   OH2 6566   5.035   4.318   0.935  0.5056 -0.3339  0.2620
 2187TIP3    H1 6567   5.095   4.358   0.872 -1.1121 -0.0672 -1.1927
 2187TIP3    H2 6568   5.018   4.231   0.899 -1.0225  0.0968 -0.1378
 2188TIP3   OH2 6569   5.791   3.905   1.772 -0.0712  0.4725  0.3212
 2188TIP3    H1 6570   5.708   3.952   1.774  0.4738  1.4747  0.0587
 2188TIP3    H2 6571   5.855   3.967   1.806  0.4148 -0.6556  1.5881
 2189TIP3   OH2 6572   6.110   5.186   1.781 -0.2152 -0.2204  0.1772
 2189TIP3    H1 6573   6.104   5.141   1.866  1.5118 -2.1393 -0.6363
 2189TIP3    H2 6574   6.200   5.171   1.752 -0.1942  2.0371 -1.1648
 2190TIP3   OH2 6575   0.738   1.713   3.212 -0.1649  0.5972 -0.9709
 2190TIP3    H1 6576   0.817   1.668   3.180 -0.4226  0.7718 -1.8903
 2190TIP3    H2 6577   0.767   1.802   3.231 -0.0203  0.5072 -0.7666
 2191TIP3   OH2 6578   6.034   0.327   4.778 -0.0307  0.2236  0.2405
 2191TIP3    H1 6579   5.975   0.358   4.709  0.3860 -0.1426 -0.2819
 2191TIP3    H2 6580   6.122   0.347   4.746  0.2367 -1.2683  0.0038
 2192TIP3   OH2 6581   5.148   5.671   2.260 -0.4666  0.0588  0.3529
 2192TIP3    H1 6582   5.152   5.758   2.220  1.4957 -1.0164 -2.0233
 2192TIP3    H2 6583   5.237   5.655   2.291 -1.1005 -0.6487  1.9456
 2193TIP3   OH2 6584   5.946   4.551   1.352  0.0740  0.2914  0.4725
 2193TIP3    H1 6585   5.929   4.638   1.315 -0.8927  0.7630  1.9605
 2193TIP3    H2 6586   5.909   4.554   1.440  2.8962 -0.5571  1.8175
 2194TIP3   OH2 6587   4.999   2.130   4.224 -0.8292 -0.1925 -0.1078
 2194TIP3    H1 6588   5.008   2.131   4.320  0.4742 -1.1093 -0.1965
 2194TIP3    H2 6589   4.995   2.223   4.200  3.8485  0.4229  0.5004
 2195TIP3   OH2 6590   0.069   1.738   0.459 -0.0748 -0.5006 -0.1605
 2195TIP3    H1 6591   0.021   1.749   0.540  0.3028  1.0931 -0.1038
 2195TIP3    H2 6592   0.086   1.828   0.429  0.3708 -1.0456 -1.6445
 2196TIP3   OH2 6593   0.823   5.491   4.882 -0.4254  0.3471  1.1773
 2196TIP3    H1 6594   0.817   5.407   4.837  0.9101  0.8010  0.0719
 2196TIP3    H2 6595   0.765   5.549   4.833 -0.1047  0.4621  0.9246
 2197TIP3   OH2 6596   0.667   0.364   4.713 -0.7529  0.1159  0.3590
 2197TIP3    H1 6597   0.676   0.392   4.804  0.9209  2.9467 -0.5433
 2197TIP3    H2 6598   0.690   0.271   4.713 -1.5684 -0.1513  2.8943
 2198TIP3   OH2 6599   3.962   3.770   1.618 -0.0566  0.0232  0.3178
 2198TIP3    H1 6600   4.052   3.800   1.633 -0.1674  1.3024 -1.3586
 2198TIP3    H2 6601   3.910   3.850   1.611 -0.9729 -0.6372 -0.7339
 2199TIP3   OH2 6602   4.559   3.645   1.259 -0.1003 -0.1454  0.1922
 2199TIP3    H1 6603   4.635   3.600   1.296  0.2101  0.4187  0.2509
 2199TIP3    H2 6604   4.552   3.726   1.310 -0.8370 -0.2674  0.2901
 2200TIP3   OH2 6605   2.901   2.131   4.730 -0.4035  0.2850  0.3173
 2200TIP3    H1 6606   2.932   2.133   4.821 -1.0986  0.4570  0.5603
 2200TIP3    H2 6607   2.868   2.042   4.719  1.1629 -0.2594 -0.2990
 2201TIP3   OH2 6608   1.230   3.878   4.550 -0.2619  0.2420 -0.0340
 2201TIP3    H1 6609   1.150   3.929   4.561 -0.0988  0.6554 -0.6847
 2201TIP3    H2 6610   1.286   3.904   4.624  0.3647  2.0806 -1.0931
 2202TIP3   OH2 6611   4.304   3.943   2.924  0.2307 -0.1907  0.4358
 2202TIP3    H1 6612   4.284   3.947   2.830  0.2380  1.7369  0.4842
 2202TIP3    H2 6613   4.399   3.951   2.928  0.1989  0.0756  0.6261
 2203TIP3   OH2 6614   3.774   4.705   1.488 -0.1661 -0.0727  0.1819
 2203TIP3    H1 6615   3.739   4.775   1.434 -0.3374  0.3531  0.8291
 2203TIP3    H2 6616   3.867   4.725   1.497  0.5188 -1.7074 -2.3081
 2204TIP3   OH2 6617   1.894   0.362   3.260  0.2933 -0.1943  0.2632
 2204TIP3    H1 6618   1.845   0.394   3.184 -1.3502 -0.7447  1.0447
 2204TIP3    H2 6619   1.871   0.270   3.267  0.6744 -0.2335  1.2316
 2205TIP3   OH2 6620   2.165   1.983   0.620 -0.0921 -0.5711 -0.2059
 2205TIP3    H1 6621   2.082   2.030   0.610 -0.6992 -0.8806  2.5288
 2205TIP3    H2 6622   2.217   2.037   0.679  1.1926 -1.0041 -0.8819
 2206TIP3   OH2 6623   0.975   1.480   0.407 -0.1088  0.1972 -1.0022
 2206TIP3    H1 6624   0.905   1.416   0.396  0.7673 -1.5798  2.4174
 2206TIP3    H2 6625   1.024   1.476   0.325 -2.3950 -0.4755 -2.4361
 2207TIP3   OH2 6626   1.302   4.435   4.632  0.1173  0.1914  0.4904
 2207TIP3    H1 6627   1.392   4.413   4.607 -0.0645 -0.1568  0.1228
 2207TIP3    H2 6628   1.248   4.386   4.570 -0.3263  0.3714  0.7333
 2208TIP3   OH2 6629   0.857   4.869   2.274 -0.2695 -0.2043  0.3350
 2208TIP3    H1 6630   0.946   4.897   2.298 -0.1544 -1.3365  1.3728
 2208TIP3    H2 6631   0.848   4.783   2.316 -1.9359 -0.0033  0.4235
 2209TIP3   OH2 6632   1.033   4.009   4.732  0.0188  0.0685  0.4490
 2209TIP3    H1 6633   1.101   3.962   4.781  2.6189  1.0734 -1.9619
 2209TIP3    H2 6634   1.061   4.100   4.733  0.1420  0.1608 -2.6861
 2210TIP3   OH2 6635   5.727   1.987   0.578 -0.9215  0.4164 -0.4502
 2210TIP3    H1 6636   5.785   2.062   0.595 -0.8727  0.5499 -1.1795
 2210TIP3    H2 6637   5.733   1.973   0.484  0.0565 -1.3093 -0.1663
 2211TIP3   OH2 6638   3.081   1.029   2.313 -0.5142  0.4528  0.6949
 2211TIP3    H1 6639   3.169   1.025   2.350 -0.3440  1.3224  0.4093
 2211TIP3    H2 6640   3.063   1.122   2.303 -1.1545  0.2714  0.0005
 2212TIP3   OH2 6641   1.769   3.739   0.883 -0.2105 -0.7937 -0.1361
 2212TIP3    H1 6642   1.806   3.664   0.930  1.6312  0.0939 -0.0831
 2212TIP3    H2 6643   1.677   3.716   0.871  0.1406 -2.7660  0.4647
 2213TIP3   OH2 6644   3.670   0.388   4.760  0.0357 -0.5702 -0.0336
 2213TIP3    H1 6645   3.598   0.330   4.732  0.1360 -0.9216  0.4154
 2213TIP3    H2 6646   3.721   0.334   4.822  1.3417 -0.7208 -1.2008
 2214TIP3   OH2 6647   4.000   1.495   2.063  0.4248  0.0907 -0.5950
 2214TIP3    H1 6648   4.037   1.505   1.975  2.7615  1.4131  0.4601
 2214TIP3    H2 6649   3.942   1.571   2.073  0.9827  0.5277 -0.6298
 2215TIP3   OH2 6650   6.239   0.936   2.076 -0.1541  0.4163 -0.2684
 2215TIP3    H1 6651   6.319   0.890   2.051  0.5181  2.6031 -2.4954
 2215TIP3    H2 6652   6.168   0.884   2.037  0.4413  0.3125 -1.2370
 2216TIP3   OH2 6653   2.795   2.700   2.603 -0.2530 -0.2387 -0.3965
 2216TIP3    H1 6654   2.846   2.774   2.571 -2.6109  1.5717 -0.2459
 2216TIP3    H2 6655   2.728   2.687   2.536 -1.2798 -0.6964  0.6843
 2217TIP3   OH2 6656   2.799   1.689   1.479  0.6859  0.1590  0.0032
 2217TIP3    H1 6657   2.808   1.714   1.387 -0.0254 -2.5922 -0.9089
 2217TIP3    H2 6658   2.709   1.713   1.501  0.3740 -0.5112 -0.5020
 2218TIP3   OH2 6659   6.280   1.730   1.639  0.4171  0.5116 -0.9212
 2218TIP3    H1 6660   6.248   1.801   1.694 -0.8110 -1.5008  1.1525
 2218TIP3    H2 6661   6.202   1.676   1.622  1.0657  0.2879 -3.4705
 2219TIP3   OH2 6662   4.190   4.099   1.412  0.0536  0.0907 -0.2466
 2219TIP3    H1 6663   4.099   4.112   1.383 -0.0788 -1.3974 -0.5425
 2219TIP3    H2 6664   4.182   4.061   1.500  0.3960  0.0041 -0.2529
 2220TIP3   OH2 6665   3.200   2.520   0.662 -0.5878 -0.4645 -0.3908
 2220TIP3    H1 6666   3.137   2.459   0.623 -0.5658 -0.7895  0.0696
 2220TIP3    H2 6667   3.253   2.466   0.720 -0.0068 -0.1559 -0.6325
 2221TIP3   OH2 6668   3.821   3.123   1.002 -0.3716 -0.0941  0.1240
 2221TIP3    H1 6669   3.778   3.178   0.936  0.3589 -1.1935 -1.3345
 2221TIP3    H2 6670   3.914   3.124   0.977 -0.2303 -1.3456  0.5428
 2222TIP3   OH2 6671   0.610   3.382   3.987  0.0128 -0.6519  0.0088
 2222TIP3    H1 6672   0.705   3.391   3.989 -0.1572  1.5084  1.6970
 2222TIP3    H2 6673   0.579   3.437   4.059 -2.5399 -1.1463 -0.6185
 2223TIP3   OH2 6674   5.532   2.007   2.441  0.1935  0.2278  0.2058
 2223TIP3    H1 6675   5.574   1.921   2.440  0.9867  0.5881  1.1518
 2223TIP3    H2 6676   5.438   1.988   2.440  0.3389 -0.7040  1.9415
 2224TIP3   OH2 6677   2.281   5.660   1.341 -0.5723 -0.0203 -0.0776
 2224TIP3    H1 6678   2.198   5.614   1.326 -0.1940 -0.3244 -1.4314
 2224TIP3    H2 6679   2.347   5.590   1.337 -0.1531  0.3812 -0.2231
 2225TIP3   OH2 6680   4.634   1.534   0.581 -0.8678  1.0943 -0.0725
 2225TIP3    H1 6681   4.632   1.530   0.485 -0.5356  1.4641 -0.0964
 2225TIP3    H2 6682   4.728   1.531   0.603 -0.9522  0.7930  0.2489
 2226TIP3   OH2 6683   4.609   2.122   4.725  0.2309  0.1988  0.6398
 2226TIP3    H1 6684   4.649   2.201   4.760 -1.2139  1.1370  0.2613
 2226TIP3    H2 6685   4.562   2.151   4.647  1.4258 -1.4152 -0.7715
 2227TIP3   OH2 6686   3.245   5.392   5.148 -0.2512  0.2782  0.4276
 2227TIP3    H1 6687   3.262   5.374   5.241 -0.7872 -0.0259  0.4664
 2227TIP3    H2 6688   3.159   5.355   5.132 -0.5485  1.1335  0.0302
 2228TIP3   OH2 6689   4.588   3.703   2.242 -0.4390 -0.0084  0.0634
 2228TIP3    H1 6690   4.652   3.656   2.188  0.6720 -0.3899  1.6461
 2228TIP3    H2 6691   4.521   3.637   2.261  0.6956 -0.7773  1.5877
 2229TIP3   OH2 6692   4.833   2.048   3.063  0.2352  0.3470  0.2608
 2229TIP3    H1 6693   4.894   1.992   3.110  0.0234  0.6806  0.9484
 2229TIP3    H2 6694   4.786   1.989   3.003  1.5289  0.1648 -0.6002
 2230TIP3   OH2 6695   2.805   3.598   3.299  0.8620 -0.6233 -0.1488
 2230TIP3    H1 6696   2.726   3.608   3.352  1.9493 -0.0074  1.4518
 2230TIP3    H2 6697   2.783   3.531   3.235 -1.2669  0.2717 -0.4076
 2231TIP3   OH2 6698   0.449   3.139   1.092 -0.3031  0.2797 -0.0773
 2231TIP3    H1 6699   0.534   3.118   1.132  0.0323  1.6934  0.0243
 2231TIP3    H2 6700   0.384   3.105   1.153  0.1803 -0.5390  0.0021
 2232TIP3   OH2 6701   5.717   0.184   1.507  0.2073 -0.2375  0.7436
 2232TIP3    H1 6702   5.799   0.173   1.459  0.5154 -0.1403  1.2382
 2232TIP3    H2 6703   5.726   0.127   1.584  0.5057  0.9942  1.6634
 2233TIP3   OH2 6704   2.298   3.230   3.955  0.0714  0.4466  0.1493
 2233TIP3    H1 6705   2.256   3.306   3.916  1.1043  0.8139 -0.2853
 2233TIP3    H2 6706   2.237   3.158   3.939 -1.0618  1.2261  0.8513
 2234TIP3   OH2 6707   3.411   0.662   2.142 -0.0117 -0.3801  0.8317
 2234TIP3    H1 6708   3.375   0.614   2.216  0.7004 -1.2655  0.6120
 2234TIP3    H2 6709   3.334   0.688   2.090 -0.3625 -2.4512  0.2313
 2235TIP3   OH2 6710   2.759   4.688   4.301  0.3427  0.0323 -0.1864
 2235TIP3    H1 6711   2.827   4.637   4.258  1.8988  1.8349  0.0139
 2235TIP3    H2 6712   2.758   4.771   4.254  0.4982  1.2027  1.7727
 2236TIP3   OH2 6713   4.411   2.842   1.068 -0.2044 -0.2062  0.6270
 2236TIP3    H1 6714   4.350   2.889   1.124 -0.3700  2.3103 -1.4574
 2236TIP3    H2 6715   4.360   2.770   1.031 -1.8315  1.4952 -0.6281
 2237TIP3   OH2 6716   0.059   5.823   4.836  0.3815 -0.5274 -0.4021
 2237TIP3    H1 6717   0.094   5.898   4.883  0.8515 -0.0168 -1.5267
 2237TIP3    H2 6718  -0.036   5.831   4.846  0.4844 -0.9939  1.2656
 2238TIP3   OH2 6719   1.689   3.512   3.072 -0.5484  0.1880 -0.8197
 2238TIP3    H1 6720   1.727   3.424   3.065  0.6492  0.5416  0.7267
 2238TIP3    H2 6721   1.618   3.502   3.136  0.4342  0.5684  0.3691
 2239TIP3   OH2 6722   1.177   3.291   5.078 -0.4621 -0.0817  0.5915
 2239TIP3    H1 6723   1.262   3.249   5.090 -1.4288 -1.7888  1.9005
 2239TIP3    H2 6724   1.147   3.259   4.993  0.1846  0.5180  0.1296
 2240TIP3   OH2 6725   0.275   1.426   2.372  0.8833 -0.7084  0.1580
 2240TIP3    H1 6726   0.289   1.508   2.420 -0.0438 -0.0152 -0.6910
 2240TIP3    H2 6727   0.325   1.437   2.291  0.8079 -1.0120  0.0675
 2241TIP3   OH2 6728   0.232   5.082   4.878  0.3426 -0.4256 -0.4790
 2241TIP3    H1 6729   0.238   5.087   4.974 -0.5103 -0.8455 -0.3869
 2241TIP3    H2 6730   0.322   5.074   4.848  0.8018  1.5972  0.1643
 2242TIP3   OH2 6731   3.228   0.547   3.254  0.8743  0.5991  0.2159
 2242TIP3    H1 6732   3.197   0.477   3.197 -0.5265 -1.0358  2.8173
 2242TIP3    H2 6733   3.150   0.600   3.271  0.9964  0.4149  1.4377
 2243TIP3   OH2 6734   1.020   5.567   0.425 -0.3298 -0.2394  0.1592
 2243TIP3    H1 6735   1.000   5.654   0.389  1.1327  0.1220  0.1737
 2243TIP3    H2 6736   0.971   5.563   0.507 -1.0613  0.2316 -0.2394
 2244TIP3   OH2 6737   0.778   0.275   4.207  0.1693 -0.1369 -0.1288
 2244TIP3    H1 6738   0.810   0.237   4.125  2.4790  1.8656 -0.2811
 2244TIP3    H2 6739   0.825   0.229   4.276  0.9400  0.5889 -0.1596
 2245TIP3   OH2 6740   3.196   4.344   4.107 -0.4288  0.1725  0.5176
 2245TIP3    H1 6741   3.171   4.397   4.031  0.4389  1.2188  0.9364
 2245TIP3    H2 6742   3.248   4.272   4.070 -1.4799 -0.3256 -0.0399
 2246TIP3   OH2 6743   4.210   5.934   4.663  0.4767 -0.7131  0.0438
 2246TIP3    H1 6744   4.224   5.880   4.741  0.8358 -0.5504  0.0965
 2246TIP3    H2 6745   4.180   6.018   4.696 -0.1978 -0.9112 -0.0459
 2247TIP3   OH2 6746   4.537   2.767   2.850  0.4434 -0.7313 -0.0328
 2247TIP3    H1 6747   4.468   2.766   2.917  0.6218 -1.3978  0.1421
 2247TIP3    H2 6748   4.615   2.795   2.896  0.6581 -1.5948  0.1255
 2248TIP3   OH2 6749   2.121   2.396   4.316 -0.2322 -0.3254 -0.6351
 2248TIP3    H1 6750   2.180   2.339   4.267  0.5955  0.0717 -0.1307
 2248TIP3    H2 6751   2.124   2.479   4.268 -1.4921 -0.7080 -1.4129
 2249TIP3   OH2 6752   1.581   0.628   3.468 -0.2546 -0.8289 -0.1674
 2249TIP3    H1 6753   1.569   0.533   3.475 -0.3861 -0.7628  0.5630
 2249TIP3    H2 6754   1.667   0.639   3.428 -0.3941 -1.2529 -0.6046
 2250TIP3   OH2 6755   1.857   1.329   2.429 -0.0425 -0.0915 -0.0779
 2250TIP3    H1 6756   1.807   1.285   2.360  1.4851 -0.2273 -1.1526
 2250TIP3    H2 6757   1.872   1.261   2.495 -0.6515 -0.2403 -0.0890
 2251TIP3   OH2 6758   5.714   5.065   4.205 -0.4001 -0.0051 -0.0508
 2251TIP3    H1 6759   5.804   5.044   4.179 -0.7989 -1.4605 -0.3038
 2251TIP3    H2 6760   5.721   5.152   4.245  1.4614 -0.8541  1.6646
 2252TIP3   OH2 6761   5.280   5.325   0.443  0.2071  0.1743  0.3314
 2252TIP3    H1 6762   5.353   5.264   0.452  0.9137  0.9604  0.0392
 2252TIP3    H2 6763   5.299   5.395   0.506 -0.8740 -0.1599  1.0596
 2253TIP3   OH2 6764   0.937   0.848   2.282 -0.3647 -0.1059  0.1666
 2253TIP3    H1 6765   0.873   0.831   2.352 -1.0126 -1.6321 -0.7656
 2253TIP3    H2 6766   1.017   0.806   2.312 -0.5952 -0.6130  0.0830
 2254TIP3   OH2 6767   2.576   1.797   1.619  0.1250 -0.2456 -0.5027
 2254TIP3    H1 6768   2.501   1.854   1.638  0.8104  0.2957  0.7039
 2254TIP3    H2 6769   2.546   1.709   1.643 -0.1051 -0.0209  0.0687
 2255TIP3   OH2 6770   0.961   3.301   1.336 -0.5006  0.0520  0.4225
 2255TIP3    H1 6771   0.990   3.225   1.285 -0.8724  0.2670 -0.1194
 2255TIP3    H2 6772   0.911   3.354   1.274 -0.6638  0.4957  0.9241
 2256TIP3   OH2 6773   3.662   1.111   0.629  0.4320 -0.1589 -0.1560
 2256TIP3    H1 6774   3.684   1.199   0.660 -0.8420 -0.4114  1.6681
 2256TIP3    H2 6775   3.630   1.066   0.707  0.2444 -1.9820 -1.2245
 2257TIP3   OH2 6776   2.298   1.181   4.855 -0.5928 -0.1042  0.0899
 2257TIP3    H1 6777   2.312   1.087   4.851  0.8507  0.0230  1.2729
 2257TIP3    H2 6778   2.337   1.214   4.774  3.5156 -0.1293  1.7667
 2258TIP3   OH2 6779   4.657   3.489   0.176  0.5707 -0.3749  0.3556
 2258TIP3    H1 6780   4.562   3.494   0.160  0.2632  1.9998  2.3344
 2258TIP3    H2 6781   4.672   3.397   0.199 -1.6697 -0.4102  2.0587
 2259TIP3   OH2 6782   5.015   1.880   1.174  0.9314  0.4381 -0.2248
 2259TIP3    H1 6783   4.948   1.942   1.146  0.2850 -0.9549 -1.9805
 2259TIP3    H2 6784   4.990   1.857   1.264 -1.2298 -0.3289 -0.9580
 2260TIP3   OH2 6785   4.559   1.896   1.409  0.2905 -0.5462 -0.0616
 2260TIP3    H1 6786   4.468   1.885   1.381  0.5045 -1.2608 -0.5056
 2260TIP3    H2 6787   4.601   1.944   1.337  0.8014 -2.2415 -0.9542
 2261TIP3   OH2 6788   5.471   3.177   4.171 -0.0587 -0.0354  0.0065
 2261TIP3    H1 6789   5.383   3.153   4.145  0.3616  0.5477 -2.1834
 2261TIP3    H2 6790   5.462   3.263   4.213 -0.6489 -0.5037  0.8491
 2262TIP3   OH2 6791   4.122   5.305   4.769  0.5445  0.0846 -0.2572
 2262TIP3    H1 6792   4.163   5.384   4.802  2.4081 -0.8824 -0.1356
 2262TIP3    H2 6793   4.191   5.260   4.721 -0.2423 -1.8332  0.3092
 2263TIP3   OH2 6794   2.822   1.108   1.742 -0.2055 -0.1997  0.1345
 2263TIP3    H1 6795   2.912   1.139   1.754 -0.2829  0.4950 -0.8780
 2263TIP3    H2 6796   2.818   1.026   1.790  0.9389 -0.1766  0.3003
 2264TIP3   OH2 6797   6.265   5.835   0.428 -0.1067 -0.0721 -0.0463
 2264TIP3    H1 6798   6.196   5.850   0.363  0.5356  0.0317 -0.7143
 2264TIP3    H2 6799   6.293   5.745   0.414  2.0812  0.8113 -1.9627
 2265TIP3   OH2 6800   2.970   2.565   3.964 -0.0650  0.1570 -0.2697
 2265TIP3    H1 6801   2.986   2.512   3.885 -5.0097 -1.5742 -0.4949
 2265TIP3    H2 6802   2.987   2.505   4.036 -1.7198 -0.4862 -0.3726
 2266TIP3   OH2 6803   2.330   3.097   5.017  0.1697 -0.7534  0.0499
 2266TIP3    H1 6804   2.407   3.088   4.961  0.1740 -1.9342  0.2020
 2266TIP3    H2 6805   2.263   3.044   4.974 -0.0205 -1.1485  0.8063
 2267TIP3   OH2 6806   5.695   1.367   0.068  0.1778  0.3618 -0.0589
 2267TIP3    H1 6807   5.676   1.445   0.016  1.1631  0.5108 -0.2154
 2267TIP3    H2 6808   5.655   1.295   0.019  0.6306  0.5679 -0.7410
 2268TIP3   OH2 6809   4.126   1.410   3.724 -0.3612 -0.0065 -0.2091
 2268TIP3    H1 6810   4.202   1.380   3.674 -0.1818  0.0343  0.0364
 2268TIP3    H2 6811   4.164   1.455   3.800 -0.6292 -0.9770  0.5178
 2269TIP3   OH2 6812   0.970   5.826   5.049  0.2333 -1.0214 -0.1885
 2269TIP3    H1 6813   0.939   5.853   4.963 -0.6726 -0.7629  0.2099
 2269TIP3    H2 6814   0.939   5.895   5.108 -0.3633 -1.9125  0.5480
 2270TIP3   OH2 6815   3.908   0.640   1.810  0.1351 -0.5231 -0.1300
 2270TIP3    H1 6816   3.979   0.678   1.862  0.4143 -0.2994 -0.6542
 2270TIP3    H2 6817   3.905   0.549   1.836 -0.8919 -0.0452  1.5434
 2271TIP3   OH2 6818   2.965   0.888   1.359 -0.4230  0.1509 -0.1798
 2271TIP3    H1 6819   3.047   0.934   1.379 -0.0716 -0.3706 -0.4158
 2271TIP3    H2 6820   2.950   0.831   1.434  0.3336 -1.0118 -0.8787
 2272TIP3   OH2 6821   5.370   2.474   2.525  0.6452 -0.5548 -0.4591
 2272TIP3    H1 6822   5.454   2.459   2.482  0.5669  0.7575 -1.1159
 2272TIP3    H2 6823   5.362   2.569   2.530  0.2399 -0.6675  1.7097
 2273TIP3   OH2 6824   3.428   4.503   0.680 -0.5340 -0.0573  0.8947
 2273TIP3    H1 6825   3.521   4.520   0.665 -0.9143 -0.1735 -2.1837
 2273TIP3    H2 6826   3.408   4.552   0.759  1.7771  1.3416  0.7131
 2274TIP3   OH2 6827   5.833   2.804   0.372  0.8446 -0.1945 -0.6840
 2274TIP3    H1 6828   5.829   2.738   0.303 -0.4924  0.2359 -1.0450
 2274TIP3    H2 6829   5.779   2.876   0.339 -0.1578 -0.1427  0.9571
 2275TIP3   OH2 6830   0.010   0.985   1.152  0.3424 -1.0399 -0.0280
 2275TIP3    H1 6831   0.091   1.036   1.144  0.0454 -0.5201  0.2458
 2275TIP3    H2 6832  -0.011   0.960   1.062  0.4346 -0.5896 -0.1778
 2276TIP3   OH2 6833   4.384   5.679   0.710 -0.1542  0.6807 -0.3472
 2276TIP3    H1 6834   4.335   5.721   0.640  0.4016  4.2910  1.2027
 2276TIP3    H2 6835   4.433   5.609   0.668 -0.0801  2.4773 -3.5092
 2277TIP3   OH2 6836   0.599   2.196   1.902 -0.3943  0.5031  0.0176
 2277TIP3    H1 6837   0.586   2.127   1.967 -0.0429  0.5629  0.1509
 2277TIP3    H2 6838   0.536   2.264   1.927 -0.8838  0.1500 -0.2347
 2278TIP3   OH2 6839   4.487   0.845   5.044  0.4478 -0.1381 -0.7391
 2278TIP3    H1 6840   4.463   0.799   4.964 -1.6439 -0.9929  0.2852
 2278TIP3    H2 6841   4.554   0.789   5.084  0.1641 -0.6721 -0.9983
 2279TIP3   OH2 6842   4.833   5.424   4.858 -0.1910 -0.4922  0.4907
 2279TIP3    H1 6843   4.894   5.451   4.789 -2.1034 -0.2820 -1.2136
 2279TIP3    H2 6844   4.888   5.418   4.936  2.0265 -0.4279 -0.9385
 2280TIP3   OH2 6845   0.853   2.146   1.187  0.1927 -0.3269 -0.5990
 2280TIP3    H1 6846   0.813   2.168   1.103  0.1315  0.4993 -0.3614
 2280TIP3    H2 6847   0.787   2.171   1.252  1.1591  1.2938 -0.1842
 2281TIP3   OH2 6848   2.858   5.279   1.818  0.5003  0.0334 -0.1985
 2281TIP3    H1 6849   2.938   5.226   1.825  2.0544  2.0879 -1.3165
 2281TIP3    H2 6850   2.861   5.336   1.895  1.2399  1.5052 -1.2773
 2282TIP3   OH2 6851   3.106   1.646   0.499  0.2783 -0.2044  0.2466
 2282TIP3    H1 6852   3.022   1.690   0.507  1.1031  1.2624  1.3104
 2282TIP3    H2 6853   3.154   1.669   0.579  3.0815  2.1655 -1.8747
 2283TIP3   OH2 6854   2.278   1.681   5.119 -0.1630 -0.2458  0.0067
 2283TIP3    H1 6855   2.321   1.767   5.113 -1.3649  0.5721  1.9669
 2283TIP3    H2 6856   2.335   1.630   5.176  1.1290 -1.2136 -2.0306
 2284TIP3   OH2 6857   5.084   3.237   0.536  0.0724  0.3134 -0.4016
 2284TIP3    H1 6858   5.031   3.208   0.462  0.4490 -1.4706 -0.0183
 2284TIP3    H2 6859   5.034   3.209   0.613  1.4279 -1.2993 -0.0348
 2285TIP3   OH2 6860   5.419   0.181   2.684 -0.0722  0.1615 -0.3458
 2285TIP3    H1 6861   5.450   0.094   2.709  0.4679  0.6995  0.9495
 2285TIP3    H2 6862   5.328   0.184   2.714  0.0809  0.2380  0.1110
 2286TIP3   OH2 6863   5.154   1.217   2.272  0.5185 -0.8206 -0.0963
 2286TIP3    H1 6864   5.243   1.245   2.293  0.0819  0.3565  0.2855
 2286TIP3    H2 6865   5.120   1.179   2.353 -0.3606  1.5844  0.7590
 2287TIP3   OH2 6866   0.553   5.935   4.079 -0.3013  0.9994 -0.6357
 2287TIP3    H1 6867   0.567   5.869   4.011 -0.1216  1.7355 -1.3304
 2287TIP3    H2 6868   0.627   5.924   4.139  2.2356  3.3106 -3.0308
 2288TIP3   OH2 6869   4.163   5.648   1.564 -0.8255  0.3847  0.7635
 2288TIP3    H1 6870   4.204   5.716   1.511 -1.0238 -0.1714 -0.1142
 2288TIP3    H2 6871   4.215   5.647   1.645  0.0002  0.6767  0.2487
 2289TIP3   OH2 6872   6.305   5.266   2.704 -0.1455 -0.1388 -0.1094
 2289TIP3    H1 6873   6.279   5.356   2.686  1.9754  0.7248  0.8349
 2289TIP3    H2 6874   6.334   5.231   2.620 -0.1609  0.3642 -0.3233
 2290TIP3   OH2 6875   0.196   4.076   2.146  1.3336  0.4947  0.1911
 2290TIP3    H1 6876   0.237   4.096   2.231 -0.0054  0.4813  0.8751
 2290TIP3    H2 6877   0.107   4.048   2.169  0.1487  2.7014 -1.3550
 2291TIP3   OH2 6878   0.604   4.443   3.402 -0.7381  0.2112  0.2822
 2291TIP3    H1 6879   0.537   4.463   3.468 -0.6986  0.3163  0.2915
 2291TIP3    H2 6880   0.680   4.415   3.453 -0.2227  1.6625  0.3727
 2292TIP3   OH2 6881   1.251   4.398   0.233 -0.1009  0.4964 -0.2238
 2292TIP3    H1 6882   1.275   4.490   0.230 -1.3836  0.8370 -2.4205
 2292TIP3    H2 6883   1.309   4.356   0.170  0.1415 -0.1245  0.4010
 2293TIP3   OH2 6884   3.768   3.267   2.820  0.2298 -0.2790  0.3343
 2293TIP3    H1 6885   3.733   3.290   2.734 -2.9387  0.0259  1.5659
 2293TIP3    H2 6886   3.715   3.317   2.882  1.1050 -1.9452  2.5762
 2294TIP3   OH2 6887   2.552   0.633   3.507 -0.1361 -0.2954  0.0860
 2294TIP3    H1 6888   2.539   0.689   3.431 -0.7556 -1.1800 -0.4761
 2294TIP3    H2 6889   2.561   0.694   3.580 -1.5089  0.5245 -0.3935
 2295TIP3   OH2 6890   0.247   2.238   0.325 -0.0558 -0.2162 -0.5267
 2295TIP3    H1 6891   0.327   2.290   0.333 -0.7080  0.7476 -0.1541
 2295TIP3    H2 6892   0.218   2.252   0.234 -1.6229  2.2024  0.2646
 2296TIP3   OH2 6893   2.203   1.580   2.872  0.3712 -0.1561 -0.4359
 2296TIP3    H1 6894   2.222   1.671   2.848 -0.4408  0.3740  0.8362
 2296TIP3    H2 6895   2.109   1.579   2.890  0.2491 -1.4014 -1.0136
 2297TIP3   OH2 6896   2.378   0.152   2.179 -0.2189  0.4915 -0.0651
 2297TIP3    H1 6897   2.301   0.198   2.145 -0.2831  1.8253  1.7646
 2297TIP3    H2 6898   2.343   0.072   2.218 -0.7170  1.1621  0.8894
 2298TIP3   OH2 6899   5.987   5.937   4.387  0.0382  0.3883  0.3563
 2298TIP3    H1 6900   6.023   5.898   4.307 -0.5276 -0.0108  0.2909
 2298TIP3    H2 6901   6.060   5.934   4.450  1.2846  2.9393 -0.8354
 2299TIP3   OH2 6902   3.648   3.838   1.697 -0.3065 -0.3377 -0.0646
 2299TIP3    H1 6903   3.606   3.798   1.621  0.4588 -0.1873 -0.5806
 2299TIP3    H2 6904   3.734   3.866   1.664  1.1705 -2.6986  1.5057
 2300TIP3   OH2 6905   5.000   5.720   5.039 -0.0146 -0.1570 -0.1543
 2300TIP3    H1 6906   4.967   5.805   5.068  2.8638  0.5239  1.5053
 2300TIP3    H2 6907   5.088   5.738   5.006 -0.3363 -2.1390 -2.3950
 2301TIP3   OH2 6908   2.079   4.904   4.772 -0.0284  0.2353 -0.0865
 2301TIP3    H1 6909   2.097   4.887   4.679 -1.0551 -0.1896 -0.2129
 2301TIP3    H2 6910   1.985   4.918   4.776  0.3232  2.8353  0.5131
 2302TIP3   OH2 6911   3.949   4.090   5.106  0.6372  0.2513  0.6978
 2302TIP3    H1 6912   3.866   4.051   5.135  0.2276  0.6848  0.1355
 2302TIP3    H2 6913   3.923   4.157   5.043  1.5157 -1.8373 -2.1136
 2303TIP3   OH2 6914   0.669   5.711   1.643  0.2315 -0.2091 -0.1372
 2303TIP3    H1 6915   0.751   5.706   1.693  0.1030 -0.9436  0.0055
 2303TIP3    H2 6916   0.652   5.621   1.616  0.5732  0.2466 -1.9683
 2304TIP3   OH2 6917   3.736   3.125   2.439 -0.2526  0.0314 -0.4662
 2304TIP3    H1 6918   3.674   3.100   2.507  0.6485  3.0701  1.7014
 2304TIP3    H2 6919   3.799   3.053   2.436 -0.4139 -0.2818  1.8520
 2305TIP3   OH2 6920   2.533   0.594   2.196  0.2621 -0.0909 -0.1651
 2305TIP3    H1 6921   2.615   0.637   2.219  0.0334  0.1076  0.2781
 2305TIP3    H2 6922   2.559   0.523   2.137  1.0140 -1.4461  1.6861
 2306TIP3   OH2 6923   0.994   3.276   4.428  0.3017  0.2128  0.0124
 2306TIP3    H1 6924   1.075   3.229   4.410  1.2514  1.7625 -0.0068
 2306TIP3    H2 6925   0.949   3.280   4.343  1.0044  0.7508 -0.3389
 2307TIP3   OH2 6926   5.481   2.130   2.997  0.5196  0.1907  0.3591
 2307TIP3    H1 6927   5.514   2.075   3.068  1.8550  0.8932  0.3119
 2307TIP3    H2 6928   5.520   2.091   2.918  0.6836  0.6242  0.2265
 2308TIP3   OH2 6929   4.351   1.621   0.347 -0.1867  0.1929 -0.5364
 2308TIP3    H1 6930   4.277   1.562   0.335 -0.0534 -0.1407  0.2266
 2308TIP3    H2 6931   4.316   1.694   0.398  0.3829 -0.8160  1.4088
 2309TIP3   OH2 6932   2.548   2.937   2.331 -0.0222  0.0926 -0.3817
 2309TIP3    H1 6933   2.574   2.846   2.348 -0.1461  0.4430  2.0099
 2309TIP3    H2 6934   2.459   2.931   2.296 -0.7365 -0.6593  1.4672
 2310TIP3   OH2 6935   4.096   0.264   4.834 -0.1506 -0.3704 -0.1635
 2310TIP3    H1 6936   4.095   0.231   4.744 -0.9503 -0.7638 -0.0224
 2310TIP3    H2 6937   4.037   0.340   4.832 -1.1892 -1.1384  0.2885
 2311TIP3   OH2 6938   2.928   5.720   2.481 -0.4623 -0.1759 -0.2700
 2311TIP3    H1 6939   2.969   5.635   2.493 -0.6926 -0.2211  0.2070
 2311TIP3    H2 6940   2.835   5.704   2.496 -0.5370  0.1086 -0.4288
 2312TIP3   OH2 6941   1.064   0.524   5.163 -0.4178 -0.9717  0.3109
 2312TIP3    H1 6942   1.105   0.569   5.089 -0.2835  0.3624  1.1666
 2312TIP3    H2 6943   1.121   0.448   5.178  1.1725  0.2598  0.7933
 2313TIP3   OH2 6944   3.312   3.876   2.863  0.1205 -0.3774 -0.5039
 2313TIP3    H1 6945   3.267   3.919   2.935  0.1053 -0.4660 -0.4602
 2313TIP3    H2 6946   3.249   3.876   2.791  1.1780  2.5435 -1.5694
 2314TIP3   OH2 6947   1.043   0.320   3.954  0.5887  0.1201 -0.2003
 2314TIP3    H1 6948   1.137   0.303   3.957  0.6160  0.3029 -0.0043
 2314TIP3    H2 6949   1.018   0.331   4.045 -0.0396 -2.1494 -0.0412
 2315TIP3   OH2 6950   1.438   5.883   3.091 -0.5269  0.3743 -0.2883
 2315TIP3    H1 6951   1.430   5.909   3.182 -2.1203 -2.1312  0.3953
 2315TIP3    H2 6952   1.504   5.814   3.091 -0.6828  0.2122 -0.9745
 2316TIP3   OH2 6953   4.948   1.400   1.729  0.1340 -0.6464 -0.2414
 2316TIP3    H1 6954   4.870   1.455   1.719  0.0315 -0.9106 -0.9162
 2316TIP3    H2 6955   4.923   1.335   1.795  0.5418  0.6060  1.2269
 2317TIP3   OH2 6956   2.173   1.654   4.829 -1.0058 -0.4543  0.1120
 2317TIP3    H1 6957   2.227   1.721   4.787 -1.4657  0.1642  0.4957
 2317TIP3    H2 6958   2.185   1.669   4.923 -0.7697 -1.1907  0.2048
 2318TIP3   OH2 6959   1.008   0.048   3.531  0.3957 -0.9819 -0.4159
 2318TIP3    H1 6960   1.018   0.084   3.442 -0.6510 -2.3604 -1.1237
 2318TIP3    H2 6961   0.957  -0.032   3.519  0.1032 -1.1186  1.4664
 2319TIP3   OH2 6962   1.441   4.645   2.176  0.5844  0.4131  0.1721
 2319TIP3    H1 6963   1.380   4.573   2.190  1.4616 -0.3665  0.0798
 2319TIP3    H2 6964   1.440   4.660   2.082  1.1026 -0.1245  0.0742
 2320TIP3   OH2 6965   1.278   0.091   2.098  0.4081  0.4636 -0.4325
 2320TIP3    H1 6966   1.213   0.022   2.111  0.2961  0.5668 -0.4433
 2320TIP3    H2 6967   1.290   0.129   2.185  0.5805  0.3318 -0.3986
 2321TIP3   OH2 6968   3.607   0.445   3.367 -0.1196 -0.3124 -0.2685
 2321TIP3    H1 6969   3.602   0.424   3.274 -3.1488 -0.5111 -0.1614
 2321TIP3    H2 6970   3.517   0.443   3.397  0.5062  2.0994  2.1948
 2322TIP3   OH2 6971   6.117   3.168   4.651 -0.1331 -0.1461 -0.0257
 2322TIP3    H1 6972   6.049   3.155   4.717  0.5506 -0.1973  0.6935
 2322TIP3    H2 6973   6.191   3.115   4.682  0.4698  0.4453 -0.4150
 2323TIP3   OH2 6974   1.119   5.644   3.985  0.2375  0.4081  0.1751
 2323TIP3    H1 6975   1.090   5.608   3.901 -0.5625 -1.0617  1.0336
 2323TIP3    H2 6976   1.188   5.584   4.014  0.4656  0.8637  0.5870
 2324TIP3   OH2 6977   0.195   4.447   2.208  0.0445  0.8496 -0.5091
 2324TIP3    H1 6978   0.276   4.497   2.213  0.7351 -0.2659 -0.1520
 2324TIP3    H2 6979   0.212   4.368   2.260 -0.9239  0.1299 -1.2437
 2325TIP3   OH2 6980   5.158   2.529   4.985  0.1612 -0.5219  0.0817
 2325TIP3    H1 6981   5.183   2.454   4.932 -0.7864 -0.4911 -0.4176
 2325TIP3    H2 6982   5.127   2.491   5.068 -1.6549 -0.8053 -0.6771
 2326TIP3   OH2 6983   3.738   2.013   0.980 -0.0627 -0.0341  0.3591
 2326TIP3    H1 6984   3.659   1.962   1.000 -1.1466  1.7128  0.7087
 2326TIP3    H2 6985   3.759   2.058   1.062  0.2570  0.8919 -0.2190
 2327TIP3   OH2 6986   1.325   4.451   1.049 -0.3006  0.3005 -0.0129
 2327TIP3    H1 6987   1.420   4.452   1.038 -0.0002 -2.4356  1.5309
 2327TIP3    H2 6988   1.293   4.412   0.968  0.0331 -0.2267  0.1047
 2328TIP3   OH2 6989   3.093   0.879   0.623  0.0640 -0.0231 -0.5617
 2328TIP3    H1 6990   3.162   0.845   0.680 -0.0790  0.5410 -0.0393
 2328TIP3    H2 6991   3.011   0.857   0.668 -0.2344 -2.3603 -2.0748
 2329TIP3   OH2 6992   5.146   5.826   3.752 -0.6403 -0.1142 -0.5955
 2329TIP3    H1 6993   5.083   5.840   3.823  0.3699 -1.6299  0.6690
 2329TIP3    H2 6994   5.219   5.884   3.774  0.3870 -1.7817  0.5808
 2330TIP3   OH2 6995   2.159   4.915   1.916 -0.1123 -0.0943 -0.3876
 2330TIP3    H1 6996   2.233   4.879   1.867 -0.1536  0.7130 -1.0652
 2330TIP3    H2 6997   2.199   4.949   1.996  0.2851  0.4321 -0.7968
 2331TIP3   OH2 6998   5.660   3.355   2.901  0.2285 -0.2160 -0.6614
 2331TIP3    H1 6999   5.738   3.366   2.846  0.7187 -0.8500 -0.1091
 2331TIP3    H2 7000   5.608   3.434   2.885  2.6939  2.1380  1.7358
 2332TIP3   OH2 7001   0.586   1.114   4.460 -0.3239 -0.2056  0.2782
 2332TIP3    H1 7002   0.641   1.061   4.402 -0.7082 -1.1389  0.7484
 2332TIP3    H2 7003   0.565   1.056   4.533 -1.0784  0.4760  0.6157
 2333TIP3   OH2 7004   0.697   0.645   2.206  0.6410  0.1353  0.0250
 2333TIP3    H1 7005   0.670   0.736   2.195 -1.2662 -0.3661  0.0356
 2333TIP3    H2 7006   0.785   0.640   2.169  0.4535  1.8085 -0.6992
 2334TIP3   OH2 7007   3.476   5.890   1.717  0.0052  0.7094 -0.2700
 2334TIP3    H1 7008   3.557   5.906   1.669  2.2186 -1.8403  2.2120
 2334TIP3    H2 7009   3.475   5.957   1.786  0.1287  0.5891 -0.1515
 2335TIP3   OH2 7010   2.436   2.749   4.508  0.3934 -0.2073  0.0327
 2335TIP3    H1 7011   2.460   2.671   4.459  0.1402 -0.4822  0.3423
 2335TIP3    H2 7012   2.517   2.777   4.551  0.2802 -0.8436  0.6739
 2336TIP3   OH2 7013   1.070   5.482   0.154 -0.0262 -0.1086 -0.1067
 2336TIP3    H1 7014   1.136   5.545   0.123  2.4425 -2.3430  0.1989
 2336TIP3    H2 7015   1.047   5.512   0.242  1.0425  0.4464  0.0062
 2337TIP3   OH2 7016   2.740   4.751   1.518 -0.2152  0.0339 -0.6580
 2337TIP3    H1 7017   2.826   4.789   1.501  0.9952 -1.8675  0.7940
 2337TIP3    H2 7018   2.747   4.712   1.605 -2.6372 -0.0157 -0.4044
 2338TIP3   OH2 7019   1.366   4.710   2.763  0.1016 -0.1338 -0.2194
 2338TIP3    H1 7020   1.299   4.708   2.695 -0.0498 -2.2829 -0.0568
 2338TIP3    H2 7021   1.449   4.701   2.716  0.0407 -0.9617 -0.1699
 2339TIP3   OH2 7022   1.353   4.898   2.486 -0.3695  0.4370  0.2281
 2339TIP3    H1 7023   1.395   4.816   2.512  1.2735  1.9413  2.8263
 2339TIP3    H2 7024   1.282   4.910   2.549 -0.8959  0.8274 -0.4189
 2340TIP3   OH2 7025   2.364   0.257   2.473  0.5465  0.6271  0.1216
 2340TIP3    H1 7026   2.352   0.218   2.386 -3.1502  0.4799  0.5194
 2340TIP3    H2 7027   2.423   0.197   2.519  1.5878  0.0615 -1.8554
 2341TIP3   OH2 7028   5.446   2.635   4.448 -0.1106  0.1276 -0.6100
 2341TIP3    H1 7029   5.421   2.561   4.503  0.2704 -0.1403 -0.7912
 2341TIP3    H2 7030   5.365   2.663   4.407 -0.0182 -1.2092 -1.7741
 2342TIP3   OH2 7031   1.364   0.985   3.596 -0.1606 -0.1014  0.2174
 2342TIP3    H1 7032   1.344   1.058   3.537 -0.0986 -0.7710 -0.6623
 2342TIP3    H2 7033   1.458   0.991   3.611 -0.1322 -0.0849  0.0337
 2343TIP3   OH2 7034   1.465   2.566   0.950  0.2491 -0.8982 -0.7367
 2343TIP3    H1 7035   1.456   2.547   1.043 -1.0542 -0.3046 -0.7064
 2343TIP3    H2 7036   1.438   2.486   0.906 -1.8031 -0.3565 -0.5852
 2344TIP3   OH2 7037   4.428   5.188   3.317  0.5814 -0.0531  0.3295
 2344TIP3    H1 7038   4.468   5.245   3.251  2.0001 -0.8914  0.4167
 2344TIP3    H2 7039   4.377   5.125   3.266  0.1381  0.4470  0.1524
 2345TIP3   OH2 7040   2.693   2.461   1.904  0.1548 -0.2040  0.2294
 2345TIP3    H1 7041   2.779   2.496   1.879  0.4177  1.3122  2.8856
 2345TIP3    H2 7042   2.631   2.531   1.882 -0.5874 -1.5407 -2.2748
 2346TIP3   OH2 7043   0.531   0.088   4.540 -0.4542  0.6689  0.0517
 2346TIP3    H1 7044   0.537   0.169   4.488  0.7083 -0.1541 -1.1615
 2346TIP3    H2 7045   0.600   0.096   4.605 -0.4261  0.6986  0.0180
 2347TIP3   OH2 7046   1.856   5.668   0.596 -0.1581  0.4599 -0.1426
 2347TIP3    H1 7047   1.854   5.689   0.502  1.3004 -0.4198 -0.4022
 2347TIP3    H2 7048   1.792   5.597   0.605 -0.8810  1.0733 -0.3093
 2348TIP3   OH2 7049   5.582   4.145   3.447 -0.4004  0.2287  0.0302
 2348TIP3    H1 7050   5.553   4.067   3.399 -2.0685  0.5420  0.4510
 2348TIP3    H2 7051   5.502   4.197   3.457  0.9817  2.8765 -1.7883
 2349TIP3   OH2 7052   0.633   1.477   1.923  0.0490 -0.0185 -0.3278
 2349TIP3    H1 7053   0.698   1.533   1.967 -0.7029  1.5816 -1.1780
 2349TIP3    H2 7054   0.566   1.462   1.989  0.4254 -0.2213  0.0149
 2350TIP3   OH2 7055   5.381   5.484   1.459  0.3342  0.1170  0.4710
 2350TIP3    H1 7056   5.426   5.470   1.543 -0.2365  4.0355  1.6176
 2350TIP3    H2 7057   5.288   5.485   1.481  0.0197 -1.0894 -0.6828
 2351TIP3   OH2 7058   2.749   1.852   3.423  0.5853 -0.3934 -0.0687
 2351TIP3    H1 7059   2.737   1.832   3.516 -0.8925  0.9899  0.0918
 2351TIP3    H2 7060   2.773   1.769   3.383 -1.0756 -1.5420  1.1920
 2352TIP3   OH2 7061   2.111   5.823   0.282 -0.2608 -0.2207 -0.1460
 2352TIP3    H1 7062   2.016   5.820   0.291 -0.2016  0.2228  0.8294
 2352TIP3    H2 7063   2.129   5.913   0.255 -0.0009  0.3208  1.7086
 2353TIP3   OH2 7064   0.079   3.512   0.009 -0.0527  0.5038  0.4437
 2353TIP3    H1 7065   0.171   3.515   0.036 -0.1841  0.5584  0.8913
 2353TIP3    H2 7066   0.065   3.422  -0.020 -0.7063 -0.4731  3.4305
 2354TIP3   OH2 7067   5.410   1.127   0.922 -0.3306  0.1262 -0.1334
 2354TIP3    H1 7068   5.493   1.082   0.907 -0.6574 -0.2149 -0.9298
 2354TIP3    H2 7069   5.420   1.164   1.010  0.8863  0.5821 -0.4310
 2355TIP3   OH2 7070   1.861   5.760   1.199  0.1917  0.7488 -0.0944
 2355TIP3    H1 7071   1.787   5.704   1.176  0.0818 -0.0223  1.9272
 2355TIP3    H2 7072   1.905   5.778   1.116 -0.6167 -1.1529 -0.9798
 2356TIP3   OH2 7073   2.697   4.676   3.942  1.0075  0.8955 -0.2644
 2356TIP3    H1 7074   2.780   4.629   3.940  1.2603  1.2295  1.1527
 2356TIP3    H2 7075   2.722   4.768   3.934  0.6066  0.8930 -1.8216
 2357TIP3   OH2 7076   0.254   0.364   3.766  1.3259 -0.0475 -0.0545
 2357TIP3    H1 7077   0.181   0.378   3.706  2.0685  1.1117 -0.7144
 2357TIP3    H2 7078   0.290   0.279   3.741  1.0749  0.0194 -0.6570
 2358TIP3   OH2 7079   3.170   5.681   1.819 -0.7589  1.0682 -0.1410
 2358TIP3    H1 7080   3.250   5.628   1.819 -1.8642 -0.6553  0.8509
 2358TIP3    H2 7081   3.177   5.734   1.899 -1.4289 -0.4442  0.9663
 2359TIP3   OH2 7082   2.681   4.387   1.287  0.0188 -0.2544  0.0668
 2359TIP3    H1 7083   2.705   4.478   1.265 -3.0121  0.3973 -1.0690
 2359TIP3    H2 7084   2.695   4.380   1.381  1.9392  0.8203 -0.0963
 2360TIP3   OH2 7085   3.980   2.688   2.195 -0.3786  0.2807  0.1099
 2360TIP3    H1 7086   4.068   2.652   2.203 -0.1474  0.6902 -0.4906
 2360TIP3    H2 7087   3.932   2.652   2.269  0.2794  0.0134  0.4105
 2361TIP3   OH2 7088   3.856   0.619   3.886  0.0478  0.3352 -0.0508
 2361TIP3    H1 7089   3.893   0.687   3.942 -0.0329  0.5532 -0.2639
 2361TIP3    H2 7090   3.874   0.648   3.797  2.3876 -1.2126 -0.1601
 2362TIP3   OH2 7091   1.203   3.130   4.358 -0.4965 -0.5825 -0.5529
 2362TIP3    H1 7092   1.239   3.069   4.293  0.6511 -0.3095 -0.2102
 2362TIP3    H2 7093   1.271   3.134   4.426  0.3983  2.5209 -1.4525
 2363TIP3   OH2 7094   2.435   0.960   0.392 -0.5777  0.2140  0.1129
 2363TIP3    H1 7095   2.436   1.031   0.457 -0.3771 -1.3113  1.8714
 2363TIP3    H2 7096   2.363   0.981   0.334 -0.5051  1.8683  0.5713
 2364TIP3   OH2 7097   6.234   4.473   3.903 -0.0826  0.7528 -0.5740
 2364TIP3    H1 7098   6.320   4.464   3.862  0.3207  0.7120  0.2705
 2364TIP3    H2 7099   6.232   4.562   3.938  0.7701 -0.1364  1.9301
 2365TIP3   OH2 7100   2.692   2.584   3.053  0.8545 -0.6661  0.3948
 2365TIP3    H1 7101   2.718   2.493   3.037  1.2533 -0.5109  0.1556
 2365TIP3    H2 7102   2.625   2.578   3.121 -0.1974 -1.2634 -0.6520
 2366TIP3   OH2 7103   5.378   1.530   3.348  0.4322 -0.5015 -0.0191
 2366TIP3    H1 7104   5.334   1.488   3.274  1.4962 -1.7679  0.0139
 2366TIP3    H2 7105   5.317   1.596   3.379 -1.4597 -2.2003  0.0490
 2367TIP3   OH2 7106   4.057   3.483   4.128 -0.4787  0.2121  0.2340
 2367TIP3    H1 7107   4.101   3.568   4.119 -1.8191  0.9186  0.1256
 2367TIP3    H2 7108   3.981   3.489   4.071 -2.0083 -0.0999  2.1441
 2368TIP3   OH2 7109   5.098  -0.028   4.848 -0.0640  0.0212 -0.7829
 2368TIP3    H1 7110   5.049   0.053   4.834 -1.2890 -0.5481  0.0128
 2368TIP3    H2 7111   5.168  -0.025   4.783  0.6279  2.2429 -0.0525
 2369TIP3   OH2 7112   2.792   2.789   3.918 -0.1779  0.1097  0.2265
 2369TIP3    H1 7113   2.834   2.703   3.912 -0.0909  0.0774  1.1579
 2369TIP3    H2 7114   2.751   2.790   4.005  0.8862  1.4775  0.7483
 2370TIP3   OH2 7115   1.128   4.557   4.078  0.0956  0.1380  0.6203
 2370TIP3    H1 7116   1.131   4.538   4.172  3.0723  1.7146  0.9508
 2370TIP3    H2 7117   1.109   4.651   4.073  1.2281  0.3323 -0.2928
 2371TIP3   OH2 7118   4.326   3.718   1.078  0.0999  0.3054  0.1733
 2371TIP3    H1 7119   4.316   3.811   1.099  0.4415  0.5952 -0.8809
 2371TIP3    H2 7120   4.395   3.687   1.137  0.6973  0.9756 -0.1630
 2372TIP3   OH2 7121   1.692   2.157   0.276  0.5197  0.7601 -0.4007
 2372TIP3    H1 7122   1.690   2.201   0.191  1.1800 -1.0226 -1.3781
 2372TIP3    H2 7123   1.770   2.102   0.274 -1.1323 -1.7918  0.0380
 2373TIP3   OH2 7124   4.682   1.108   5.097  0.1986  0.4815 -0.5727
 2373TIP3    H1 7125   4.596   1.131   5.133  0.6573  0.1324  0.7721
 2373TIP3    H2 7126   4.732   1.075   5.171  1.4583  0.5274 -1.3685
 2374TIP3   OH2 7127   5.772   2.812   3.979  0.1025  0.1574 -0.0561
 2374TIP3    H1 7128   5.804   2.748   3.916 -1.3072 -1.7263  1.0262
 2374TIP3    H2 7129   5.689   2.843   3.942  1.2755  2.2102 -1.0760
 2375TIP3   OH2 7130   2.471   2.246   1.928  0.3055  0.6050 -0.2652
 2375TIP3    H1 7131   2.466   2.312   1.997  0.1741 -0.4924  0.8035
 2375TIP3    H2 7132   2.560   2.255   1.894 -0.0343  2.0282 -0.8812
 2376TIP3   OH2 7133   3.326   4.502   4.311 -0.2470  0.1526  0.2649
 2376TIP3    H1 7134   3.291   4.456   4.235  0.3162  0.8643 -0.4335
 2376TIP3    H2 7135   3.272   4.471   4.384 -0.1265 -1.3133 -0.2380
 2377TIP3   OH2 7136   1.871   3.221   1.848  0.3783  0.1493 -0.0330
 2377TIP3    H1 7137   1.905   3.165   1.917  0.5278  1.1191  0.6973
 2377TIP3    H2 7138   1.903   3.182   1.767  0.8484 -0.5562  0.4849
 2378TIP3   OH2 7139   0.164   5.354   0.060  0.2391 -0.5460  0.3175
 2378TIP3    H1 7140   0.080   5.394   0.036  0.8939  0.6650 -0.0596
 2378TIP3    H2 7141   0.155   5.333   0.153  0.0287  0.9594  0.6596
 2379TIP3   OH2 7142   2.292   5.014   0.858 -0.1247  0.0143  0.0151
 2379TIP3    H1 7143   2.311   4.922   0.875  0.4059 -0.3398 -2.2445
 2379TIP3    H2 7144   2.207   5.029   0.901  0.2528 -1.2149  1.2692
 2380TIP3   OH2 7145   4.054   0.288   0.231 -0.0949  0.0752 -0.5221
 2380TIP3    H1 7146   4.064   0.293   0.136  0.6511  2.6343 -0.3822
 2380TIP3    H2 7147   3.983   0.350   0.251 -0.3733 -0.5740  0.5919
 2381TIP3   OH2 7148   5.377   3.481   3.733  0.6294 -0.0590  0.0440
 2381TIP3    H1 7149   5.318   3.506   3.805  0.9131 -1.5518  0.8258
 2381TIP3    H2 7150   5.420   3.563   3.709 -3.3527  1.6672 -2.1934
 2382TIP3   OH2 7151   0.746   0.346   3.475  0.1655 -0.0813  0.0744
 2382TIP3    H1 7152   0.739   0.252   3.464 -0.5368 -0.0484  0.2041
 2382TIP3    H2 7153   0.767   0.380   3.388  0.0239 -0.3159 -0.0496
 2383TIP3   OH2 7154   3.824   0.064   0.233 -0.3594  0.8022 -0.1178
 2383TIP3    H1 7155   3.819   0.157   0.251  0.3520  0.9361 -0.5663
 2383TIP3    H2 7156   3.836   0.058   0.138  1.7681  0.3618  0.1206
 2384TIP3   OH2 7157   2.186   3.495   0.899 -0.3041 -0.2928 -0.2026
 2384TIP3    H1 7158   2.169   3.401   0.905 -1.6048 -0.2149 -1.7447
 2384TIP3    H2 7159   2.244   3.504   0.824  1.0156  0.0446  0.8292
 2385TIP3   OH2 7160   5.308   2.813   1.168  0.1189  0.0678 -0.2616
 2385TIP3    H1 7161   5.343   2.731   1.202 -0.3418  0.3676  1.0092
 2385TIP3    H2 7162   5.383   2.872   1.165 -0.0165  0.3629  1.3361
 2386TIP3   OH2 7163   3.596   2.436   0.675 -0.0756 -0.3738  0.4131
 2386TIP3    H1 7164   3.521   2.412   0.730 -0.5403 -0.6023 -0.3189
 2386TIP3    H2 7165   3.669   2.386   0.711 -0.6995 -1.6716 -0.1020
 2387TIP3   OH2 7166   5.147   0.639   5.097  0.2834  0.2345 -0.9135
 2387TIP3    H1 7167   5.184   0.553   5.116  0.9024  1.0512  2.1378
 2387TIP3    H2 7168   5.176   0.694   5.170 -1.6123  2.5909 -1.8049
 2388TIP3   OH2 7169   0.127   1.152   4.179 -0.2278  0.8516  0.1859
 2388TIP3    H1 7170   0.141   1.241   4.211  1.3250  0.7463 -0.1233
 2388TIP3    H2 7171   0.167   1.096   4.245 -1.6752  0.3269  0.6533
 2389TIP3   OH2 7172   4.777   4.587   0.537  0.5804  0.0472 -0.0253
 2389TIP3    H1 7173   4.852   4.644   0.521  2.3389 -2.3945 -1.0974
 2389TIP3    H2 7174   4.784   4.562   0.629  1.1283 -0.1976 -0.1298
 2390TIP3   OH2 7175   3.010   2.119   2.271 -0.1558 -0.2466  0.4135
 2390TIP3    H1 7176   3.067   2.145   2.343  1.9699  1.2863 -1.6590
 2390TIP3    H2 7177   2.928   2.166   2.288  0.8132  1.3071  1.1038
 2391TIP3   OH2 7178   4.859   1.357   2.789  0.5637 -0.3004 -0.2898
 2391TIP3    H1 7179   4.918   1.403   2.730 -0.1326  1.1162  0.0754
 2391TIP3    H2 7180   4.851   1.415   2.865  2.0651 -2.4172  1.6087
 2392TIP3   OH2 7181   6.316   4.329   4.235 -0.1907  0.6656  0.3588
 2392TIP3    H1 7182   6.349   4.415   4.210  0.2161  0.7362  1.1119
 2392TIP3    H2 7183   6.386   4.290   4.287 -0.8847  0.4029  1.1241
 2393TIP3   OH2 7184   3.845   2.648   2.429  0.2238  0.4005  0.4372
 2393TIP3    H1 7185   3.847   2.729   2.479 -1.5031  0.8082 -0.1020
 2393TIP3    H2 7186   3.834   2.579   2.495 -0.4892  0.7967  0.7373
 2394TIP3   OH2 7187   3.037   3.204   0.618 -0.4595  0.1211 -0.3967
 2394TIP3    H1 7188   3.029   3.201   0.522 -1.0623 -1.4383 -0.3395
 2394TIP3    H2 7189   2.947   3.195   0.649 -0.0440 -3.0552  0.2737
 2395TIP3   OH2 7190   3.625   5.494   2.785 -0.4174 -0.0151 -0.4775
 2395TIP3    H1 7191   3.570   5.438   2.841  0.6588 -0.6699 -0.0443
 2395TIP3    H2 7192   3.566   5.522   2.714 -1.4726 -0.1825  0.3054
 2396TIP3   OH2 7193   4.689   4.767   0.223 -0.2744 -0.3325 -0.3684
 2396TIP3    H1 7194   4.749   4.766   0.297 -1.5751 -1.3067  0.7347
 2396TIP3    H2 7195   4.714   4.691   0.171  0.2106 -0.0368 -0.5725
 2397TIP3   OH2 7196   1.068   1.755   1.258  0.1321 -0.1594  0.3934
 2397TIP3    H1 7197   1.002   1.723   1.196 -1.1207 -2.0315  2.5143
 2397TIP3    H2 7198   1.018   1.791   1.331  1.3007 -2.0283  2.2783
 2398TIP3   OH2 7199   6.200   1.011   3.477  0.0637  0.2031 -0.2092
 2398TIP3    H1 7200   6.291   0.981   3.488  1.0986  2.8063 -0.8871
 2398TIP3    H2 7201   6.186   1.070   3.551 -0.7616  0.5709 -0.6508
 2399TIP3   OH2 7202   1.182   1.618   2.071 -0.1249 -0.2673  0.2536
 2399TIP3    H1 7203   1.134   1.700   2.072 -1.0432 -0.7795  2.1410
 2399TIP3    H2 7204   1.203   1.603   1.978 -0.8311  1.5456 -0.2325
 2400TIP3   OH2 7205   4.785   5.539   2.944 -0.1139  0.0540  0.1911
 2400TIP3    H1 7206   4.836   5.587   2.879 -0.2944  0.5588  0.4212
 2400TIP3    H2 7207   4.814   5.575   3.028  1.8608 -2.1758  0.5881
 2401TIP3   OH2 7208   4.257   1.817   2.833 -0.2287  0.5334 -0.5680
 2401TIP3    H1 7209   4.208   1.852   2.759 -0.3985 -1.2927 -1.3855
 2401TIP3    H2 7210   4.194   1.762   2.879  0.4309 -0.0336 -0.3206
 2402TIP3   OH2 7211   5.653   1.740   2.537 -0.2241  0.0099  0.5358
 2402TIP3    H1 7212   5.744   1.723   2.561 -0.0564  0.2607  0.1024
 2402TIP3    H2 7213   5.636   1.679   2.464  0.2634  1.3756 -0.7723
 2403TIP3   OH2 7214   1.487   3.737   3.100  0.0950 -0.2807 -0.1038
 2403TIP3    H1 7215   1.491   3.794   3.023 -1.5430 -1.5742 -1.2438
 2403TIP3    H2 7216   1.468   3.650   3.063  4.0334 -1.9931  1.3862
 2404TIP3   OH2 7217   1.598   4.420   0.977 -0.1775 -1.0851  0.7121
 2404TIP3    H1 7218   1.607   4.419   0.882  1.3083 -2.1246  0.8276
 2404TIP3    H2 7219   1.626   4.333   1.005 -1.6304 -1.1838  2.0466
 2405TIP3   OH2 7220   4.285   3.985   3.702  0.2402  0.4539 -0.4230
 2405TIP3    H1 7221   4.372   3.947   3.689  0.1161 -1.2396  2.6702
 2405TIP3    H2 7222   4.302   4.069   3.745  0.4392 -0.5836  1.6715
 2406TIP3   OH2 7223   3.293   5.773   4.094  0.2561  0.4543 -0.0797
 2406TIP3    H1 7224   3.301   5.733   4.008 -2.9930 -0.1805 -0.1830
 2406TIP3    H2 7225   3.352   5.721   4.149  0.0297 -1.1868 -1.2887
 2407TIP3   OH2 7226   2.049   0.938   4.420  0.6887  0.1670  0.2170
 2407TIP3    H1 7227   2.015   1.027   4.421  0.2060 -0.0017  2.0162
 2407TIP3    H2 7228   2.106   0.933   4.496 -0.7565 -1.5854  1.2616
 2408TIP3   OH2 7229   0.709   2.374   0.195  0.4640  0.3579 -0.7807
 2408TIP3    H1 7230   0.775   2.396   0.261  0.1518  1.4845 -0.8270
 2408TIP3    H2 7231   0.701   2.453   0.143  1.1675 -0.6941 -2.5918
 2409TIP3   OH2 7232   5.038   5.399   5.051  0.3069  0.3887 -0.1080
 2409TIP3    H1 7233   5.120   5.354   5.033  0.0584  0.2307 -0.9090
 2409TIP3    H2 7234   5.042   5.478   4.996 -0.0841  0.3698 -0.1676
 2410TIP3   OH2 7235   3.451   1.001   1.877 -0.0410 -0.0113  0.1848
 2410TIP3    H1 7236   3.533   0.961   1.848  0.0586  0.0761  0.3395
 2410TIP3    H2 7237   3.447   1.085   1.830  0.6608  0.6257  1.2270
 2411TIP3   OH2 7238   3.048   0.957   4.237  0.2991 -0.2869 -0.4910
 2411TIP3    H1 7239   3.052   0.988   4.327  3.5462 -1.7526  0.0330
 2411TIP3    H2 7240   3.079   1.031   4.184 -1.4547  0.5168 -0.4816
 2412TIP3   OH2 7241   0.046   5.960   4.231  0.1213  0.1002 -0.3386
 2412TIP3    H1 7242   0.133   5.925   4.250  1.1759  1.9523 -1.4104
 2412TIP3    H2 7243   0.052   6.052   4.256 -2.2051 -0.1405  1.4500
 2413TIP3   OH2 7244   3.854   3.644   3.411 -0.0132  0.2999  0.1066
 2413TIP3    H1 7245   3.809   3.613   3.489 -1.8147  1.1916 -0.5095
 2413TIP3    H2 7246   3.939   3.676   3.442 -0.4032 -0.0507  1.5711
 2414TIP3   OH2 7247   0.666   0.911   0.237  0.3670 -0.2484 -0.0432
 2414TIP3    H1 7248   0.697   0.990   0.193  0.6213 -1.3412 -1.9189
 2414TIP3    H2 7249   0.688   0.925   0.329 -1.4984  2.7676  0.0935
 2415TIP3   OH2 7250   1.427   1.162   0.133  0.2771  0.5264  0.4376
 2415TIP3    H1 7251   1.408   1.069   0.149  0.5839  0.3607 -0.1151
 2415TIP3    H2 7252   1.346   1.198   0.098  0.4613  0.2101 -0.3481
 2416TIP3   OH2 7253   5.621   3.295   3.502  0.2894  0.3101  0.1569
 2416TIP3    H1 7254   5.673   3.337   3.571 -0.1263  0.9084  0.1182
 2416TIP3    H2 7255   5.551   3.357   3.485 -1.1321 -1.0036  1.0229
 2417TIP3   OH2 7256   4.543   1.909   5.150  0.4428 -0.0103 -1.1768
 2417TIP3    H1 7257   4.544   1.817   5.176 -1.4380 -0.4534 -2.4128
 2417TIP3    H2 7258   4.581   1.956   5.224 -0.4231 -1.6070  0.3650
 2418TIP3   OH2 7259   2.660   0.014   2.928  0.3237  0.2933  0.2084
 2418TIP3    H1 7260   2.607  -0.066   2.926 -0.1419  0.6107 -0.4462
 2418TIP3    H2 7261   2.618   0.070   2.992  1.1683 -0.3276  1.3326
 2419TIP3   OH2 7262   5.302   4.956   0.925  0.1352 -0.1782  0.3440
 2419TIP3    H1 7263   5.395   4.949   0.947  0.1733  0.4727  0.3865
 2419TIP3    H2 7264   5.296   5.034   0.870 -0.4946  0.2006  0.9341
 2420TIP3   OH2 7265   5.311   2.510   0.726  0.2150  0.8370 -0.0116
 2420TIP3    H1 7266   5.247   2.480   0.790 -0.8980  2.8501 -0.0956
 2420TIP3    H2 7267   5.395   2.475   0.758 -0.2002  2.1575  2.8574
 2421TIP3   OH2 7268   1.383   3.523   4.596 -0.1602 -0.6293 -0.1082
 2421TIP3    H1 7269   1.393   3.603   4.546 -0.7849 -0.6942 -0.3446
 2421TIP3    H2 7270   1.291   3.499   4.586 -0.1111 -1.0739  0.4151
 2422TIP3   OH2 7271   5.289   5.185   0.042  0.1833  0.6048 -0.0325
 2422TIP3    H1 7272   5.253   5.115   0.096  0.5120  0.8629  0.5270
 2422TIP3    H2 7273   5.369   5.148   0.005  0.0653  0.4966 -0.1802
 2423TIP3   OH2 7274   4.759   3.632   0.399 -0.2997  0.2086 -0.5270
 2423TIP3    H1 7275   4.749   3.722   0.370 -0.5509 -0.3033 -2.0984
 2423TIP3    H2 7276   4.701   3.581   0.343 -0.9322 -0.8290  0.9952
 2424TIP3   OH2 7277   3.291   4.507   1.364  0.2818  0.3098  0.4873
 2424TIP3    H1 7278   3.244   4.564   1.304 -0.4538 -3.1156 -2.5628
 2424TIP3    H2 7279   3.383   4.527   1.349  0.0532  2.7640  1.8929
 2425TIP3   OH2 7280   3.499   0.688   2.772  0.2675 -0.0309  0.3104
 2425TIP3    H1 7281   3.477   0.781   2.786 -0.3405 -0.3173  1.4580
 2425TIP3    H2 7282   3.563   0.669   2.840  0.7338 -0.3467 -0.2138
 2426TIP3   OH2 7283   1.798   4.760   4.274 -0.1096  0.1147 -0.2271
 2426TIP3    H1 7284   1.722   4.717   4.312 -0.5001  0.6044 -0.4542
 2426TIP3    H2 7285   1.868   4.746   4.338 -0.0482 -1.4317 -0.5898
 2427TIP3   OH2 7286   3.359   2.656   4.191 -0.3908 -0.2774 -0.5301
 2427TIP3    H1 7287   3.325   2.569   4.171 -1.3980  0.0551 -0.3258
 2427TIP3    H2 7288   3.394   2.688   4.108  0.5889 -1.1265 -0.4593
 2428TIP3   OH2 7289   0.518   2.101   1.514  0.7448 -0.0393 -0.2097
 2428TIP3    H1 7290   0.532   2.148   1.432  0.0193  1.7141  0.6368
 2428TIP3    H2 7291   0.479   2.165   1.573 -0.9082 -1.8503  0.8130
 2429TIP3   OH2 7292   3.749   1.207   1.018 -0.2335  0.2274 -0.1488
 2429TIP3    H1 7293   3.754   1.239   0.928  1.1503 -0.5935 -0.3943
 2429TIP3    H2 7294   3.809   1.263   1.067 -1.3610  1.0016  0.3994
 2430TIP3   OH2 7295   2.709   4.528   3.340 -0.2296  0.2955  0.2664
 2430TIP3    H1 7296   2.736   4.566   3.256 -1.3820 -0.0170 -0.2650
 2430TIP3    H2 7297   2.681   4.603   3.392 -2.8436  0.2567 -0.9084
 2431TIP3   OH2 7298   4.858   2.336   2.682  0.6685 -0.2673 -0.5175
 2431TIP3    H1 7299   4.787   2.398   2.695 -0.7638 -1.6350 -1.3878
 2431TIP3    H2 7300   4.897   2.325   2.769 -1.5524 -1.0141  0.4715
 2432TIP3   OH2 7301   0.400   3.934   0.749  0.1414  0.7889 -0.1747
 2432TIP3    H1 7302   0.377   3.919   0.658 -0.3280  1.0787 -0.1053
 2432TIP3    H2 7303   0.495   3.924   0.752 -0.0051 -0.9914 -0.3525
 2433TIP3   OH2 7304   4.837   0.465   3.659 -0.0037 -0.0073  0.4857
 2433TIP3    H1 7305   4.876   0.512   3.585 -1.4671 -0.2016 -0.4491
 2433TIP3    H2 7306   4.800   0.386   3.620 -3.9327  1.5354  0.6856
 2434TIP3   OH2 7307   1.918   3.489   0.925 -0.3230 -0.4531  0.5760
 2434TIP3    H1 7308   1.912   3.419   0.990  0.5334 -1.5235 -0.4476
 2434TIP3    H2 7309   2.011   3.512   0.922 -0.5130  0.3494  0.4953
 2435TIP3   OH2 7310   0.783   5.839   0.538 -0.0825  0.0644 -0.3219
 2435TIP3    H1 7311   0.759   5.829   0.446  0.4922  1.9374 -0.7115
 2435TIP3    H2 7312   0.859   5.896   0.537 -2.0331  2.9446  1.4527
 2436TIP3   OH2 7313   1.492   3.526   0.167  0.3576 -0.3691 -0.7500
 2436TIP3    H1 7314   1.516   3.444   0.125 -0.4159 -0.2384 -1.4740
 2436TIP3    H2 7315   1.574   3.575   0.174  0.8814 -1.3339  0.0093
 2437TIP3   OH2 7316   5.370   4.605   0.695 -0.0949 -0.2987 -0.1930
 2437TIP3    H1 7317   5.302   4.549   0.657 -0.7146  1.3169 -1.5932
 2437TIP3    H2 7318   5.396   4.560   0.775 -1.4057 -1.9628 -0.6443
 2438TIP3   OH2 7319   4.272   5.607   0.050 -0.6042 -0.1365 -0.2947
 2438TIP3    H1 7320   4.339   5.673   0.031 -0.9922  0.7368  1.1822
 2438TIP3    H2 7321   4.266   5.556  -0.030  1.5785 -0.0364 -0.6009
 2439TIP3   OH2 7322   3.887   3.413   4.903 -0.7767 -0.4936 -0.1476
 2439TIP3    H1 7323   3.893   3.395   4.997 -0.8022  0.3822  0.0294
 2439TIP3    H2 7324   3.912   3.331   4.861  1.3268 -0.2855  0.6179
 2440TIP3   OH2 7325   4.853   1.671   4.439  0.5037 -0.4689 -0.8015
 2440TIP3    H1 7326   4.838   1.623   4.520 -0.1120  2.2671  0.8155
 2440TIP3    H2 7327   4.944   1.651   4.415  1.2453 -0.0535  1.4913
 2441TIP3   OH2 7328   2.867   2.716   0.364 -0.7702 -0.7062  0.1103
 2441TIP3    H1 7329   2.813   2.765   0.302 -0.2369 -0.2268  0.0216
 2441TIP3    H2 7330   2.837   2.745   0.450 -0.0412  0.2429  0.0545
 2442TIP3   OH2 7331   6.128   1.468   1.648 -0.3721  0.8630 -0.5383
 2442TIP3    H1 7332   6.169   1.388   1.618  0.2236  1.6325 -1.8470
 2442TIP3    H2 7333   6.087   1.444   1.731  1.8959 -0.1704  0.3684
 2443TIP3   OH2 7334   4.533   2.575   1.543  0.0450  0.1664  0.2593
 2443TIP3    H1 7335   4.583   2.496   1.521  0.0754  0.1496  0.3872
 2443TIP3    H2 7336   4.562   2.597   1.632 -0.6722 -0.2332  0.5990
 2444TIP3   OH2 7337   2.037   2.070   2.795 -0.6741 -0.0619  0.5082
 2444TIP3    H1 7338   2.031   2.143   2.857 -0.7488 -0.4762  0.9935
 2444TIP3    H2 7339   1.955   2.022   2.808 -1.1002  0.3503 -0.5545
 2445TIP3   OH2 7340   2.092   5.237   2.846 -0.2046  0.1995  0.2161
 2445TIP3    H1 7341   2.165   5.278   2.800 -1.5304  1.5075 -0.8262
 2445TIP3    H2 7342   2.068   5.299   2.915  0.0653 -0.5244  0.9817
 2446TIP3   OH2 7343   2.539   5.929   3.094  0.4133 -0.2827 -0.2012
 2446TIP3    H1 7344   2.621   5.880   3.091  0.6771  0.1204  0.2392
 2446TIP3    H2 7345   2.473   5.865   3.119  0.7688 -0.4067  0.4363
 2447TIP3   OH2 7346   1.366   0.106   1.251  0.0211 -0.2047  0.5284
 2447TIP3    H1 7347   1.456   0.081   1.231  0.7492  1.3224  1.6483
 2447TIP3    H2 7348   1.335   0.150   1.172  0.6545  0.2337  0.5198
 2448TIP3   OH2 7349   3.908   4.651   3.336 -0.1987 -0.2224  0.5021
 2448TIP3    H1 7350   3.858   4.643   3.417 -0.4647 -1.0078  0.2643
 2448TIP3    H2 7351   3.996   4.675   3.365 -0.3277 -0.3555  1.0200
 2449TIP3   OH2 7352   1.273   5.231   3.143 -0.2601  0.3953  0.0389
 2449TIP3    H1 7353   1.348   5.255   3.088 -1.3968  0.0725 -1.7592
 2449TIP3    H2 7354   1.280   5.136   3.153 -0.3458  0.3833 -0.0118
 2450TIP3   OH2 7355   4.352   5.942   0.402 -0.1465 -0.1626 -0.4974
 2450TIP3    H1 7356   4.370   5.849   0.386 -1.5632 -0.8347  1.4875
 2450TIP3    H2 7357   4.437   5.978   0.430  0.3411 -0.8888 -0.9929
 2451TIP3   OH2 7358   3.260   4.467   2.293  0.5139  0.2822 -0.5789
 2451TIP3    H1 7359   3.293   4.555   2.312 -2.6127  1.1684  1.5313
 2451TIP3    H2 7360   3.235   4.470   2.200  0.8769  1.4478 -0.6556
 2452TIP3   OH2 7361   3.962   5.564   3.938 -0.3501  0.0081  0.0998
 2452TIP3    H1 7362   3.957   5.479   3.894 -1.0383  0.1276 -0.0635
 2452TIP3    H2 7363   4.033   5.553   4.002  0.0411 -0.4583 -0.4036
 2453TIP3   OH2 7364   5.007   3.584   4.705 -0.2253 -0.3308 -0.4897
 2453TIP3    H1 7365   4.983   3.631   4.785 -2.2900 -0.4133 -1.0077
 2453TIP3    H2 7366   5.099   3.560   4.718 -0.6109 -0.6940  2.0152
 2454TIP3   OH2 7367   2.437   3.316   3.447  0.5935  0.2869 -0.4408
 2454TIP3    H1 7368   2.361   3.349   3.496  0.3386 -0.1824 -0.5135
 2454TIP3    H2 7369   2.512   3.343   3.499  0.3040 -0.7652  0.5626
 2455TIP3   OH2 7370   1.501   1.708   3.264 -0.0438  0.2896 -0.3676
 2455TIP3    H1 7371   1.549   1.709   3.181  1.6307 -0.1143  0.5518
 2455TIP3    H2 7372   1.430   1.646   3.250  0.3114  0.1136 -1.4615
 2456TIP3   OH2 7373   5.902   5.651   0.315  0.0801 -0.3554  0.2743
 2456TIP3    H1 7374   5.940   5.739   0.315 -2.0651  0.6379 -0.3514
 2456TIP3    H2 7375   5.874   5.638   0.406 -2.4124  0.9954 -0.2031
 2457TIP3   OH2 7376   6.043   3.957   5.105  0.0871 -0.6492 -0.0984
 2457TIP3    H1 7377   6.016   3.925   5.191 -1.9118 -1.6580 -1.0330
 2457TIP3    H2 7378   5.980   3.918   5.044  1.5238 -0.0663 -2.0475
 2458TIP3   OH2 7379   2.302   5.974   4.307  0.2557 -0.2369 -0.3784
 2458TIP3    H1 7380   2.381   5.963   4.360  1.9582 -0.0419 -2.7232
 2458TIP3    H2 7381   2.303   5.899   4.247 -0.7453  0.3494 -1.1607
 2459TIP3   OH2 7382   3.451   3.709   0.642  0.0646  0.6306  0.0004
 2459TIP3    H1 7383   3.504   3.784   0.615 -0.7833  1.0650 -0.4975
 2459TIP3    H2 7384   3.491   3.634   0.598  0.5192  0.8863 -0.0290
 2460TIP3   OH2 7385   0.300   3.551   3.033  0.1265 -1.0487  0.0339
 2460TIP3    H1 7386   0.278   3.560   3.126 -0.0846 -0.1231 -0.0973
 2460TIP3    H2 7387   0.272   3.634   2.994  2.0416 -0.6045 -0.5050
 2461TIP3   OH2 7388   3.325   1.725   3.446  0.3495 -0.1103  0.2699
 2461TIP3    H1 7389   3.306   1.736   3.353 -1.4921 -0.3493  0.5799
 2461TIP3    H2 7390   3.310   1.632   3.463  0.7686 -0.0877  0.7884
 2462TIP3   OH2 7391   1.860   1.155   4.420  0.6008  0.1634 -0.3868
 2462TIP3    H1 7392   1.771   1.139   4.451  0.6747  1.5643  0.6674
 2462TIP3    H2 7393   1.909   1.179   4.499  1.7504  0.0808 -1.0440
 2463TIP3   OH2 7394   3.806   5.261   3.739 -0.6856 -0.5306 -0.0686
 2463TIP3    H1 7395   3.741   5.262   3.809 -1.0081  1.3597 -0.3359
 2463TIP3    H2 7396   3.757   5.288   3.661  0.2406  0.1333 -0.4346
 2464TIP3   OH2 7397   1.093   1.091   4.725 -0.0147 -0.1402 -0.3700
 2464TIP3    H1 7398   1.064   1.051   4.643 -0.9209  1.1016 -0.6711
 2464TIP3    H2 7399   1.021   1.076   4.786  1.0005 -1.8214  0.5074
 2465TIP3   OH2 7400   2.088   5.147   0.983 -0.2448  0.7171 -0.5342
 2465TIP3    H1 7401   2.126   5.118   1.065 -3.1420 -0.0701  0.6818
 2465TIP3    H2 7402   2.098   5.242   0.983  0.8014  0.6210  0.1362
 2466TIP3   OH2 7403   1.758   0.406  -0.013  0.1541  0.0705  0.4442
 2466TIP3    H1 7404   1.838   0.373   0.028  1.4941  1.1093 -1.2122
 2466TIP3    H2 7405   1.756   0.499   0.009  0.0804  0.3140 -0.5558
 2467TIP3   OH2 7406   0.272   5.646   4.896 -0.3402 -0.1406 -0.3788
 2467TIP3    H1 7407   0.196   5.686   4.854 -0.4388  0.2925  0.1951
 2467TIP3    H2 7408   0.241   5.620   4.982 -0.0589 -0.7416 -0.4532
 2468TIP3   OH2 7409   2.082   3.867   4.879  0.5874 -0.0805 -0.2831
 2468TIP3    H1 7410   2.093   3.936   4.944 -0.4286  1.0361 -1.2363
 2468TIP3    H2 7411   2.166   3.821   4.878  0.5005 -0.4205  2.0793
 2469TIP3   OH2 7412   4.517   1.681   2.520  0.3999 -0.2987 -0.3666
 2469TIP3    H1 7413   4.552   1.604   2.566  0.1722  0.7973  1.7501
 2469TIP3    H2 7414   4.423   1.676   2.535  0.5431  1.3224  1.3857
 2470TIP3   OH2 7415   2.377   2.762   5.196 -0.1950  0.2940  0.9553
 2470TIP3    H1 7416   2.390   2.849   5.233 -0.3819  0.1114  1.4690
 2470TIP3    H2 7417   2.372   2.776   5.102  2.5398  0.5232  0.7634
 2471TIP3   OH2 7418   6.040   0.850   0.770  0.1336  0.0618  0.6230
 2471TIP3    H1 7419   6.036   0.917   0.703  0.6403  1.5873  2.0405
 2471TIP3    H2 7420   5.950   0.818   0.779 -0.3383  1.3525  0.6735
 2472TIP3   OH2 7421   4.770   1.078   2.645  0.2765 -0.5767  0.3408
 2472TIP3    H1 7422   4.738   1.002   2.692  0.5970 -0.4761  0.7286
 2472TIP3    H2 7423   4.858   1.093   2.681 -0.0909  0.4626  0.8536
 2473TIP3   OH2 7424   3.321   3.053   0.558 -0.6395 -0.3938 -0.2501
 2473TIP3    H1 7425   3.244   3.108   0.543  0.3228  0.9370 -0.5055
 2473TIP3    H2 7426   3.306   3.012   0.643 -1.3840  0.2639 -0.0593
 2474TIP3   OH2 7427   2.035   3.130   0.619  0.4438 -0.2968  0.2561
 2474TIP3    H1 7428   1.972   3.087   0.561  1.6788 -1.0546 -0.5797
 2474TIP3    H2 7429   1.991   3.135   0.703 -1.9110  1.9720 -0.9709
 2475TIP3   OH2 7430   3.617   3.573   1.987 -0.7675  0.0738  0.4411
 2475TIP3    H1 7431   3.535   3.574   2.037 -0.9905 -2.1599  0.2124
 2475TIP3    H2 7432   3.605   3.504   1.923  0.7919  0.6694 -0.5384
 2476TIP3   OH2 7433   3.128   0.092   2.926  0.2981 -0.2755  0.3611
 2476TIP3    H1 7434   3.197   0.076   2.862 -1.4919 -0.3679 -1.6190
 2476TIP3    H2 7435   3.161   0.050   3.006  2.5248 -0.2821 -0.4763
 2477TIP3   OH2 7436   6.258   3.062   3.918  0.7656 -0.0025 -0.3463
 2477TIP3    H1 7437   6.249   3.144   3.869  0.9318 -0.5889 -1.4036
 2477TIP3    H2 7438   6.172   3.020   3.911  1.1876 -0.7674 -1.4569
 2478TIP3   OH2 7439   0.616   0.763   1.793  0.3441 -0.4542  0.2069
 2478TIP3    H1 7440   0.603   0.837   1.734  1.6632 -0.5944 -0.3045
 2478TIP3    H2 7441   0.693   0.718   1.758 -1.3696 -3.0509 -0.5114
 2479TIP3   OH2 7442   6.141   1.968   0.237  0.1527  0.0058 -0.0247
 2479TIP3    H1 7443   6.229   1.933   0.221 -0.2702 -0.8405 -0.6146
 2479TIP3    H2 7444   6.101   1.970   0.150 -0.3167  0.6420  0.2050
 2480TIP3   OH2 7445   2.069   2.458   1.364 -0.3156 -0.4060 -0.1189
 2480TIP3    H1 7446   2.133   2.387   1.354  0.1025 -0.1331  0.5459
 2480TIP3    H2 7447   2.000   2.420   1.419  0.8899  0.2832  1.9882
 2481TIP3   OH2 7448   2.817   2.187   3.816  0.3157 -0.2858 -0.2371
 2481TIP3    H1 7449   2.804   2.266   3.763 -3.3027 -0.3740  0.2576
 2481TIP3    H2 7450   2.874   2.132   3.764 -0.3744  1.0075 -2.4791
 2482TIP3   OH2 7451   6.039   2.164   1.466 -0.1138  0.3052  0.3499
 2482TIP3    H1 7452   6.056   2.083   1.417 -0.5911  1.1650 -1.3332
 2482TIP3    H2 7453   5.994   2.220   1.403 -0.0893  1.7621  1.5901
 2483TIP3   OH2 7454   3.518   2.617   4.407  0.4032  0.4990 -0.2906
 2483TIP3    H1 7455   3.494   2.688   4.466 -0.4974  0.0917 -0.1464
 2483TIP3    H2 7456   3.459   2.627   4.332 -1.5241 -1.5215  0.8106
 2484TIP3   OH2 7457   3.021   2.221   4.963  0.3623 -0.0785 -0.4159
 2484TIP3    H1 7458   3.040   2.236   5.056 -1.5329 -0.2295  0.0436
 2484TIP3    H2 7459   2.954   2.285   4.942 -0.7389 -1.4069 -1.1046
 2485TIP3   OH2 7460   0.258   3.548   1.551  0.2262  0.0435 -0.1584
 2485TIP3    H1 7461   0.214   3.557   1.466 -1.2218 -0.2158  0.5322
 2485TIP3    H2 7462   0.267   3.637   1.584 -0.6076  0.0524  0.0769
 2486TIP3   OH2 7463   0.965   0.415   1.176 -0.3007  0.0885 -0.4978
 2486TIP3    H1 7464   0.872   0.391   1.176 -0.0477 -0.9183 -0.0416
 2486TIP3    H2 7465   1.001   0.369   1.101  0.2152 -1.1450  0.4653
 2487TIP3   OH2 7466   2.508   1.528   0.174  0.0683  0.3197 -0.2329
 2487TIP3    H1 7467   2.602   1.536   0.191  0.1735  0.0598 -0.6547
 2487TIP3    H2 7468   2.503   1.494   0.084 -0.4102 -0.4896  0.0850
 2488TIP3   OH2 7469   2.947   5.301   3.143 -0.3761  0.4089 -0.3020
 2488TIP3    H1 7470   2.861   5.342   3.150  0.1260  1.4194  0.2454
 2488TIP3    H2 7471   2.936   5.231   3.078 -1.5893  0.5410 -0.2561
 2489TIP3   OH2 7472   2.172   5.023   2.652  0.6032  0.4098  0.5314
 2489TIP3    H1 7473   2.113   5.058   2.586  0.3006 -0.0248  0.5731
 2489TIP3    H2 7474   2.164   5.084   2.726 -0.1361  0.1116  0.7097
 2490TIP3   OH2 7475   0.112   1.092   2.837 -0.3366  0.0260 -0.0793
 2490TIP3    H1 7476   0.031   1.130   2.802  0.6506  1.9144 -0.4511
 2490TIP3    H2 7477   0.180   1.121   2.776  0.9677  0.6231  1.5800
 2491TIP3   OH2 7478   4.261   1.561   2.601  0.5117  0.0051 -0.0980
 2491TIP3    H1 7479   4.328   1.510   2.648  0.3622  0.5794  0.7569
 2491TIP3    H2 7480   4.195   1.581   2.667  0.6011  1.3748 -0.4003
 2492TIP3   OH2 7481   1.026   3.713   4.836 -0.8334  0.2307  0.0380
 2492TIP3    H1 7482   1.053   3.751   4.753  0.2265 -0.1988  0.1769
 2492TIP3    H2 7483   0.966   3.642   4.811  0.5727 -0.8256 -0.4581
 2493TIP3   OH2 7484   6.356   4.202   1.264 -0.1691 -0.1405 -0.1605
 2493TIP3    H1 7485   6.340   4.255   1.342 -1.3093 -0.8626  0.1220
 2493TIP3    H2 7486   6.269   4.174   1.236  0.4250 -2.6012  0.2182
 2494TIP3   OH2 7487   2.944   1.139   3.512 -0.0007 -0.0433 -0.2338
 2494TIP3    H1 7488   2.951   1.232   3.492 -0.5303 -0.3037 -1.7030
 2494TIP3    H2 7489   2.979   1.095   3.435 -0.9021 -1.0803 -0.0607
 2495TIP3   OH2 7490   2.490   4.479   2.093 -0.1052  0.6028  0.6397
 2495TIP3    H1 7491   2.407   4.510   2.131  0.3458  1.4498  0.9763
 2495TIP3    H2 7492   2.537   4.440   2.167  0.1056  0.8044  0.6132
 2496TIP3   OH2 7493   0.582   4.173   0.855  0.2245  0.1113 -1.0284
 2496TIP3    H1 7494   0.618   4.089   0.827  1.1648  0.8911 -2.2755
 2496TIP3    H2 7495   0.508   4.189   0.797 -1.0050 -0.5885  0.2825
 2497TIP3   OH2 7496   5.972   1.196   4.489  0.8388  0.5544 -0.1016
 2497TIP3    H1 7497   5.915   1.124   4.462  0.0053 -0.4383  3.7888
 2497TIP3    H2 7498   6.054   1.182   4.441  0.4476 -2.5516 -0.0105
 2498TIP3   OH2 7499   5.316   2.497   0.153  0.2213 -0.0369 -0.6443
 2498TIP3    H1 7500   5.277   2.522   0.069  0.0430  1.9916 -0.0135
 2498TIP3    H2 7501   5.291   2.567   0.212  0.0203 -1.6116  1.2341
 2499TIP3   OH2 7502   3.624   0.643   4.143 -0.1249 -0.6428  0.0329
 2499TIP3    H1 7503   3.571   0.657   4.065  0.8439  0.1056 -0.5209
 2499TIP3    H2 7504   3.639   0.731   4.178 -0.8261 -1.0001  1.2573
 2500TIP3   OH2 7505   4.052   3.757   3.605 -0.2756  0.6706 -0.2564
 2500TIP3    H1 7506   4.092   3.681   3.562  1.2768  1.3257 -0.0387
 2500TIP3    H2 7507   4.126   3.815   3.624 -1.1818  1.3755  1.3131
 2501TIP3   OH2 7508   3.434   4.146   4.808 -0.7473  0.2425  0.1051
 2501TIP3    H1 7509   3.489   4.097   4.869  3.0614  1.7837 -1.7906
 2501TIP3    H2 7510   3.421   4.086   4.735  0.9699  0.7874 -0.6940
 2502TIP3   OH2 7511   4.939   1.928   1.940  0.2221  0.5763  0.4219
 2502TIP3    H1 7512   4.895   1.904   1.858  0.7687 -0.0758  0.3091
 2502TIP3    H2 7513   4.990   2.006   1.917  1.1598 -0.1759 -0.1461
 2503TIP3   OH2 7514   0.845   4.507   2.020  0.7010  0.0986  0.1642
 2503TIP3    H1 7515   0.892   4.472   2.096  1.0591 -0.2578 -0.2122
 2503TIP3    H2 7516   0.880   4.456   1.946 -1.0666 -0.9610  0.0098
 2504TIP3   OH2 7517   1.347   2.845   3.843  0.3683  0.1911 -0.4743
 2504TIP3    H1 7518   1.390   2.835   3.928 -1.4392  1.0095  0.5953
 2504TIP3    H2 7519   1.372   2.766   3.795  2.7388  0.4591  0.1797
 2505TIP3   OH2 7520   4.771   2.919   4.584  0.6284 -0.4854  0.3749
 2505TIP3    H1 7521   4.754   3.011   4.564  0.1244 -0.3728  1.2553
 2505TIP3    H2 7522   4.769   2.914   4.680  2.4859 -1.0745  0.4339
 2506TIP3   OH2 7523   5.310   3.865   2.871  0.0946 -0.3116  0.2628
 2506TIP3    H1 7524   5.315   3.961   2.872  1.7788 -0.3594  0.3448
 2506TIP3    H2 7525   5.226   3.845   2.830  0.3809  1.2058 -1.1734
 2507TIP3   OH2 7526   1.681   3.285   0.626 -0.2720 -0.4987 -0.2278
 2507TIP3    H1 7527   1.688   3.190   0.636 -1.4762 -0.7306 -1.4523
 2507TIP3    H2 7528   1.587   3.302   0.623 -0.0503  0.6146 -1.0920
 2508TIP3   OH2 7529   3.655   0.867   1.747  0.1462 -0.4050  0.2454
 2508TIP3    H1 7530   3.735   0.916   1.727 -0.3765  0.7927  0.9740
 2508TIP3    H2 7531   3.614   0.853   1.662  0.6582 -0.1953 -0.0477
 2509TIP3   OH2 7532   5.733   2.953   0.658  0.1808  0.2581  0.4779
 2509TIP3    H1 7533   5.652   2.903   0.670  0.5443 -0.7112 -0.8468
 2509TIP3    H2 7534   5.719   3.035   0.705 -1.1912 -0.3005  1.0707
 2510TIP3   OH2 7535   4.772   5.771   1.989 -0.0392 -0.0022  0.3098
 2510TIP3    H1 7536   4.736   5.684   1.976 -0.4208  0.4106 -1.8306
 2510TIP3    H2 7537   4.861   5.757   2.020  0.3181 -1.2037 -1.1660
 2511TIP3   OH2 7538   3.967   2.373   4.919 -0.0661  0.6312 -0.2429
 2511TIP3    H1 7539   4.028   2.440   4.948  0.9397 -0.9682  1.6092
 2511TIP3    H2 7540   4.009   2.332   4.843 -0.1726  1.3598 -0.6988
 2512TIP3   OH2 7541   3.701   5.753   4.168 -0.0371  0.3260  0.4578
 2512TIP3    H1 7542   3.786   5.787   4.140 -1.5458  2.2675 -2.2526
 2512TIP3    H2 7543   3.659   5.725   4.087 -1.8112 -1.0576  1.7911
 2513TIP3   OH2 7544   2.393   4.004   2.956  0.5404 -0.0018 -0.0741
 2513TIP3    H1 7545   2.418   4.087   2.915  0.2238  0.3685  0.4662
 2513TIP3    H2 7546   2.304   3.988   2.925 -1.1303  2.0580  3.0414
 2514TIP3   OH2 7547   5.961   3.742   4.396  0.4982 -0.8770 -0.1754
 2514TIP3    H1 7548   5.920   3.727   4.311  0.7162 -0.3496 -0.3782
 2514TIP3    H2 7549   5.929   3.671   4.451 -1.9232  0.3323  0.1108
 2515TIP3   OH2 7550   4.402   2.703   2.482 -0.4764  0.0958 -0.0385
 2515TIP3    H1 7551   4.356   2.784   2.461 -0.3372  0.1463 -0.1460
 2515TIP3    H2 7552   4.368   2.678   2.569 -4.4864 -2.4913 -2.0014
 2516TIP3   OH2 7553   4.361   3.788   5.080 -0.5158  0.0938  0.7613
 2516TIP3    H1 7554   4.326   3.877   5.070 -0.2711  0.3981  2.3995
 2516TIP3    H2 7555   4.408   3.772   4.998  0.9770  2.2083  1.1152
 2517TIP3   OH2 7556   4.052   4.775   0.721  0.3570 -0.3327  0.2547
 2517TIP3    H1 7557   4.147   4.777   0.711  0.3637  0.6502  0.4740
 2517TIP3    H2 7558   4.020   4.737   0.639  0.8420  0.9531 -0.5549
 2518TIP3   OH2 7559   3.401   2.149   3.053 -0.2466 -0.5159  0.3631
 2518TIP3    H1 7560   3.330   2.211   3.068 -0.7811 -1.1666  0.5702
 2518TIP3    H2 7561   3.461   2.164   3.127 -0.4363 -0.3404  0.4845
 2519TIP3   OH2 7562   0.554   0.517   2.450  0.1677 -0.0045  0.0368
 2519TIP3    H1 7563   0.571   0.502   2.357  2.3031  0.9811  0.2021
 2519TIP3    H2 7564   0.584   0.607   2.465  0.7568 -0.4648  1.8558
 2520TIP3   OH2 7565   0.068   4.939   1.326 -0.3346 -0.1158 -0.0653
 2520TIP3    H1 7566   0.086   4.877   1.255  1.0207  0.7186 -0.4998
 2520TIP3    H2 7567   0.149   4.989   1.334 -1.2072  1.2189  0.6532
 2521TIP3   OH2 7568   4.471   1.725   0.683 -0.1654 -0.0315  0.1314
 2521TIP3    H1 7569   4.380   1.716   0.653 -0.2777  2.2465 -0.3953
 2521TIP3    H2 7570   4.518   1.655   0.640 -1.0119  0.9883 -2.6343
 2522TIP3   OH2 7571   1.748   1.210   2.214 -0.2375  0.1989 -0.5605
 2522TIP3    H1 7572   1.749   1.264   2.134  0.9659 -0.1744 -0.8319
 2522TIP3    H2 7573   1.681   1.144   2.197  1.5204 -1.2834 -2.2990
 2523TIP3   OH2 7574   3.749   3.439   0.202 -0.4461  0.0451  0.3310
 2523TIP3    H1 7575   3.793   3.357   0.225  0.5317  0.7226  0.9667
 2523TIP3    H2 7576   3.744   3.437   0.107  0.7977 -0.1702  0.2432
 2524TIP3   OH2 7577   0.371   0.477   3.348  0.1080  0.1383 -0.6262
 2524TIP3    H1 7578   0.365   0.572   3.360 -0.9572  0.5104 -3.3538
 2524TIP3    H2 7579   0.456   0.463   3.306  0.3180 -0.1411 -0.1141
 2525TIP3   OH2 7580   6.293   1.319   0.932 -0.6969 -0.3341  0.1564
 2525TIP3    H1 7581   6.374   1.367   0.953 -0.7192 -0.2715  0.1022
 2525TIP3    H2 7582   6.284   1.254   1.001  0.5134 -1.7269 -0.9235
 2526TIP3   OH2 7583   2.402   0.974   3.670  0.5168 -0.0026 -0.1515
 2526TIP3    H1 7584   2.336   1.022   3.722 -0.1182 -1.0047 -0.0101
 2526TIP3    H2 7585   2.359   0.957   3.586  0.8104 -0.1532 -0.2726
 2527TIP3   OH2 7586   0.693   2.607   0.083  0.3566  0.2134  0.4311
 2527TIP3    H1 7587   0.784   2.637   0.079  0.8217 -0.8483  2.2265
 2527TIP3    H2 7588   0.642   2.685   0.058  1.6821  1.3278  1.0513
 2528TIP3   OH2 7589   4.747   2.116   5.134  0.1156  0.0146  0.6859
 2528TIP3    H1 7590   4.670   2.110   5.076 -0.1019  1.3076  0.8084
 2528TIP3    H2 7591   4.753   2.209   5.156  2.0822  0.0505  0.1962
 2529TIP3   OH2 7592   2.944   1.441   1.569 -0.3035 -0.3257  0.3565
 2529TIP3    H1 7593   2.944   1.444   1.664 -0.0930  0.2163  0.3389
 2529TIP3    H2 7594   2.899   1.521   1.542 -0.2088 -0.3901 -0.0040
 2530TIP3   OH2 7595   5.793   0.328   3.390 -0.2280  0.3125 -0.4334
 2530TIP3    H1 7596   5.816   0.235   3.384  0.8138  0.4636  0.6988
 2530TIP3    H2 7597   5.859   0.372   3.336  0.6927  0.5419  0.8129
 2531TIP3   OH2 7598   5.258   3.840   3.587  0.4533  0.3070 -0.7456
 2531TIP3    H1 7599   5.240   3.919   3.638  0.5896  1.4582 -2.3789
 2531TIP3    H2 7600   5.337   3.803   3.627  2.2371  2.7267 -1.7202
 2532TIP3   OH2 7601   0.040   2.135   5.078 -0.0234  0.1346 -0.2400
 2532TIP3    H1 7602   0.111   2.104   5.021 -0.2704  0.8146 -0.9327
 2532TIP3    H2 7603   0.048   2.230   5.077 -1.0895  0.2307 -0.5085
 2533TIP3   OH2 7604   5.230   2.395   4.485 -0.2288  0.6608  0.4975
 2533TIP3    H1 7605   5.231   2.411   4.391  0.8596 -0.4943  0.2808
 2533TIP3    H2 7606   5.151   2.439   4.516  0.2267  2.4260 -0.6827
 2534TIP3   OH2 7607   0.247   3.025   3.498  0.2892  0.3512  0.8875
 2534TIP3    H1 7608   0.329   3.065   3.468 -0.0235  0.6243  0.3978
 2534TIP3    H2 7609   0.184   3.043   3.428 -0.3892  0.7853  1.6045
 2535TIP3   OH2 7610   6.152   5.916   4.593 -0.8709  0.6351  0.0381
 2535TIP3    H1 7611   6.118   5.896   4.681 -1.5759  2.5770  0.2547
 2535TIP3    H2 7612   6.210   5.990   4.607 -2.1592  1.9624 -1.3014
 2536TIP3   OH2 7613   5.094   4.708   4.064  0.4191  0.4678 -0.6719
 2536TIP3    H1 7614   5.186   4.736   4.059 -0.0946  2.1958 -1.4598
 2536TIP3    H2 7615   5.058   4.758   4.137 -0.1696  0.7794 -1.1603
 2537TIP3   OH2 7616   3.168   2.103   1.308  0.2395 -0.8155 -0.2717
 2537TIP3    H1 7617   3.084   2.056   1.308 -0.2628  0.0540 -0.5820
 2537TIP3    H2 7618   3.190   2.111   1.215  0.4579 -0.6890 -0.2077
 2538TIP3   OH2 7619   2.939   5.265   2.550  0.0338  0.0502  0.0053
 2538TIP3    H1 7620   2.945   5.215   2.631  0.0091  1.1527  0.6981
 2538TIP3    H2 7621   2.871   5.221   2.499 -1.0328  0.2583  1.2288
 2539TIP3   OH2 7622   2.641   3.773   4.290  0.2325  0.5911  0.1490
 2539TIP3    H1 7623   2.576   3.839   4.266 -1.0632 -0.1881  1.4324
 2539TIP3    H2 7624   2.725   3.814   4.268 -0.6577  1.4575 -1.9246
 2540TIP3   OH2 7625   4.804   0.762   2.139 -0.4003 -0.0768  0.6504
 2540TIP3    H1 7626   4.797   0.710   2.219 -1.7572  0.0784  0.6441
 2540TIP3    H2 7627   4.746   0.719   2.077  0.6916 -0.2406 -0.3036
 2541TIP3   OH2 7628   0.310   0.219   3.382  0.4799  0.1387  0.0217
 2541TIP3    H1 7629   0.220   0.244   3.361  0.6014  0.0593 -0.5973
 2541TIP3    H2 7630   0.359   0.302   3.379  0.5021  0.1235 -0.0405
 2542TIP3   OH2 7631   5.141   4.657   4.440 -0.4124  0.0024 -0.1669
 2542TIP3    H1 7632   5.162   4.660   4.533  0.4584  0.9357 -0.3724
 2542TIP3    H2 7633   5.215   4.701   4.397 -0.2191 -1.4035 -1.4000
 2543TIP3   OH2 7634   5.530   2.574   3.464 -0.0306 -0.6544  0.3891
 2543TIP3    H1 7635   5.593   2.629   3.418 -2.6434  0.6600 -1.9297
 2543TIP3    H2 7636   5.481   2.531   3.394 -1.6411 -1.6754  2.0661
 2544TIP3   OH2 7637   1.985   0.313   3.797  0.0478  0.1095  0.1219
 2544TIP3    H1 7638   1.949   0.387   3.748  2.1164  1.9714  1.2254
 2544TIP3    H2 7639   2.068   0.294   3.753 -0.0573 -0.9788  0.3784
 2545TIP3   OH2 7640   1.748   5.055   4.579  0.6019 -0.1372  0.0315
 2545TIP3    H1 7641   1.789   5.045   4.665 -0.2489  1.4180  0.6585
 2545TIP3    H2 7642   1.788   5.135   4.543 -0.6045  0.4357 -0.0689
 2546TIP3   OH2 7643   6.184   4.019   3.486  0.1423  1.0100  0.2815
 2546TIP3    H1 7644   6.161   4.112   3.484  2.8338  1.7669  0.7587
 2546TIP3    H2 7645   6.279   4.017   3.469  0.8384 -1.3600  3.4911
 2547TIP3   OH2 7646   2.167   0.695   0.221  0.1768  0.3371  0.0983
 2547TIP3    H1 7647   2.217   0.634   0.166 -0.1284  1.0448 -0.9971
 2547TIP3    H2 7648   2.149   0.645   0.301 -1.3661 -1.5774 -1.3376
 2548TIP3   OH2 7649   3.624   2.889   0.548 -0.1273 -0.1885  0.4597
 2548TIP3    H1 7650   3.590   2.959   0.603 -1.6019 -1.6763  1.5583
 2548TIP3    H2 7651   3.578   2.811   0.578  0.9063 -1.5117 -1.2107
 2549TIP3   OH2 7652   4.027   3.209   3.464  0.2112 -0.0181  0.4934
 2549TIP3    H1 7653   3.992   3.278   3.519 -0.1886  0.7170 -0.6535
 2549TIP3    H2 7654   3.960   3.195   3.397  0.3904 -1.3494  0.5614
 2550TIP3   OH2 7655   2.701   0.421   2.051  0.0599  0.3893  0.0484
 2550TIP3    H1 7656   2.784   0.385   2.082  0.7050  1.5904 -0.2249
 2550TIP3    H2 7657   2.689   0.383   1.964  0.4962  0.4812 -0.0511
 2551TIP3   OH2 7658   4.490   4.724   1.452 -0.5571  0.5192 -0.1053
 2551TIP3    H1 7659   4.475   4.817   1.441 -1.0854  0.6118  1.2681
 2551TIP3    H2 7660   4.448   4.702   1.534 -0.7262 -1.0077 -0.5671
 2552TIP3   OH2 7661   2.826   2.155   1.200 -0.0445 -0.0567 -0.8387
 2552TIP3    H1 7662   2.870   2.079   1.238  1.0875  0.3327 -1.3447
 2552TIP3    H2 7663   2.891   2.195   1.142 -1.2434  0.2246 -2.0397
 2553TIP3   OH2 7664   5.559   0.772   4.933 -0.2869  0.0661  0.2796
 2553TIP3    H1 7665   5.541   0.750   5.024 -0.8251 -0.9605 -0.0591
 2553TIP3    H2 7666   5.638   0.723   4.911 -0.4036 -0.0294  0.0685
 2554TIP3   OH2 7667   3.576   0.666   1.055 -0.1356  0.5782 -0.0765
 2554TIP3    H1 7668   3.612   0.647   1.141  0.7627  1.1135 -0.3236
 2554TIP3    H2 7669   3.619   0.747   1.028  1.5113 -0.8822 -2.1031
 2555TIP3   OH2 7670   1.143   3.684   1.224 -0.2315 -0.0679  0.5993
 2555TIP3    H1 7671   1.152   3.588   1.222  1.4068  0.0560 -0.1539
 2555TIP3    H2 7672   1.230   3.715   1.248 -0.4280  1.2733 -0.3374
 2556TIP3   OH2 7673   1.393   4.513   3.510 -1.1603 -0.1354 -0.3003
 2556TIP3    H1 7674   1.313   4.469   3.481  0.0016 -1.3621 -1.8131
 2556TIP3    H2 7675   1.457   4.494   3.442  1.1558 -1.3040  2.0154
 2557TIP3   OH2 7676   0.519   5.996   0.201  0.1085 -0.5949  0.0987
 2557TIP3    H1 7677   0.450   5.974   0.139 -2.0821  0.2551  2.1039
 2557TIP3    H2 7678   0.586   5.929   0.186 -0.9830 -1.3064 -2.0884
 2558TIP3   OH2 7679   3.339   0.245   4.957 -0.3260 -0.5857 -0.1153
 2558TIP3    H1 7680   3.387   0.189   4.895 -1.2928 -0.7214 -0.7696
 2558TIP3    H2 7681   3.400   0.316   4.977  0.2172 -0.8486 -0.7812
 2559TIP3   OH2 7682   4.691   4.111   3.128  0.1316 -0.1109 -0.0932
 2559TIP3    H1 7683   4.631   4.176   3.092  2.7064  1.9441 -0.9392
 2559TIP3    H2 7684   4.689   4.039   3.065 -1.7705 -0.3836  0.1905
 2560TIP3   OH2 7685   2.055   5.060   1.359  0.5977  0.3171  0.2886
 2560TIP3    H1 7686   2.064   4.992   1.292  1.1592 -2.7248  3.2016
 2560TIP3    H2 7687   1.962   5.081   1.360  0.2299 -1.1799 -0.0130
 2561TIP3   OH2 7688   4.780   3.790   3.857  0.2245  0.0179  0.1845
 2561TIP3    H1 7689   4.756   3.711   3.809 -0.6968  1.5684 -2.1069
 2561TIP3    H2 7690   4.866   3.815   3.822 -0.5501  1.2825 -0.9404
 2562TIP3   OH2 7691   1.373   5.502   3.998  0.1183 -0.1465  0.0431
 2562TIP3    H1 7692   1.390   5.473   3.909  1.0605  0.4458  0.0274
 2562TIP3    H2 7693   1.348   5.422   4.045 -2.4589 -0.1789 -1.1954
 2563TIP3   OH2 7694   2.519   1.952   3.276 -0.1437 -0.6611  0.2732
 2563TIP3    H1 7695   2.557   1.998   3.201 -0.0934  0.5412  1.0140
 2563TIP3    H2 7696   2.595   1.920   3.326 -0.0106  1.8020  1.7911
 2564TIP3   OH2 7697   3.250   1.082   3.400  0.4985 -0.3160  0.2075
 2564TIP3    H1 7698   3.167   1.034   3.390 -0.0079  0.8416 -1.5768
 2564TIP3    H2 7699   3.317   1.016   3.384 -0.0889 -1.1289  1.0042
 2565TIP3   OH2 7700   1.775   4.116   3.312 -0.9136 -0.0363  0.1741
 2565TIP3    H1 7701   1.711   4.076   3.254 -3.5343  0.3685  2.5972
 2565TIP3    H2 7702   1.789   4.204   3.275  0.0567 -0.8887 -1.6192
 2566TIP3   OH2 7703   3.297   0.162   0.516 -0.3071  0.0053 -0.0441
 2566TIP3    H1 7704   3.269   0.232   0.456  1.5123  0.8091 -0.0228
 2566TIP3    H2 7705   3.380   0.132   0.479  0.1144 -0.4995  1.2745
 2567TIP3   OH2 7706   1.537   4.651   4.020  0.0332 -0.1828 -0.2929
 2567TIP3    H1 7707   1.511   4.560   4.003  0.1393 -0.1653 -0.5664
 2567TIP3    H2 7708   1.456   4.701   4.015 -0.2082 -0.4129  1.0166
 2568TIP3   OH2 7709   6.042   4.438   3.288 -0.1932  0.2044 -0.5299
 2568TIP3    H1 7710   6.031   4.377   3.215 -0.9836  0.8445 -0.9570
 2568TIP3    H2 7711   5.962   4.490   3.288 -0.7471 -0.5741  1.5491
 2569TIP3   OH2 7712   2.583   0.821   4.894 -0.2576  0.0075  0.7197
 2569TIP3    H1 7713   2.617   0.853   4.810  0.7687 -1.6082  0.4681
 2569TIP3    H2 7714   2.622   0.879   4.960  0.0051  0.4564  0.1785
 2570TIP3   OH2 7715   1.089   4.749   3.729 -0.2561  0.2714  0.0985
 2570TIP3    H1 7716   0.994   4.751   3.725 -0.2921 -0.8308  0.0504
 2570TIP3    H2 7717   1.111   4.777   3.818 -0.8234 -2.8632  1.3502
 2571TIP3   OH2 7718   0.232   5.320   3.268  0.1186  0.0831  0.1584
 2571TIP3    H1 7719   0.314   5.283   3.298  0.4449  1.3024  0.8240
 2571TIP3    H2 7720   0.201   5.259   3.201  1.5065 -0.4440 -0.0297
 2572TIP3   OH2 7721   5.351   4.042   4.532  0.5676 -0.4068  0.1636
 2572TIP3    H1 7722   5.349   3.958   4.577  1.7629 -0.4324  0.2064
 2572TIP3    H2 7723   5.360   4.107   4.602 -0.0118 -0.2678  0.1107
 2573TIP3   OH2 7724   0.902   0.068   5.032 -0.5265 -0.1197  0.5998
 2573TIP3    H1 7725   0.932   0.158   5.041 -0.9153  0.1306 -0.4699
 2573TIP3    H2 7726   0.960   0.029   4.967 -0.7392 -0.4646  0.6125
 2574TIP3   OH2 7727   4.620   0.075   0.985 -0.4085 -0.0847  0.1088
 2574TIP3    H1 7728   4.532   0.065   1.023 -0.1052 -1.1236  0.5849
 2574TIP3    H2 7729   4.614   0.032   0.900 -0.9068  1.6694 -0.7916
 2575TIP3   OH2 7730   3.510   2.405   2.392  0.0042 -0.5949  1.0415
 2575TIP3    H1 7731   3.468   2.491   2.404 -1.4961 -1.1017 -0.2403
 2575TIP3    H2 7732   3.528   2.400   2.298  1.1855 -1.2261  1.2787
 2576TIP3   OH2 7733   4.726   2.588   2.417 -0.2682 -0.4108  0.1790
 2576TIP3    H1 7734   4.822   2.592   2.419 -0.2855  0.1006  0.1715
 2576TIP3    H2 7735   4.698   2.635   2.496 -0.5163 -0.2391 -0.0083
 2577TIP3   OH2 7736   1.016   3.353   2.140  0.5639 -0.0061  0.3023
 2577TIP3    H1 7737   0.946   3.340   2.203 -0.3979 -2.3117 -1.1309
 2577TIP3    H2 7738   1.082   3.403   2.188 -1.4032  1.0069  2.1280
 2578TIP3   OH2 7739   2.338   2.820   0.908  0.0282 -0.0740 -0.1134
 2578TIP3    H1 7740   2.374   2.752   0.850 -1.6557 -1.0589 -0.0941
 2578TIP3    H2 7741   2.246   2.827   0.881 -0.3004  0.8345  1.1681
 2579TIP3   OH2 7742   1.837   0.310   1.166 -0.6829 -0.8441  0.0611
 2579TIP3    H1 7743   1.833   0.214   1.160 -0.7373 -0.9536  1.4817
 2579TIP3    H2 7744   1.929   0.331   1.150 -0.2183 -1.3420  1.8582
 2580TIP3   OH2 7745   4.376   4.351   4.401  0.0177  0.1603  0.3118
 2580TIP3    H1 7746   4.411   4.413   4.464  0.4854 -1.8509  2.1491
 2580TIP3    H2 7747   4.453   4.304   4.368 -0.3860  0.0205 -0.4582
 2581TIP3   OH2 7748   2.017   0.597   0.717 -0.7145  0.2267  0.6942
 2581TIP3    H1 7749   1.941   0.646   0.748 -0.7397  1.1984 -0.7713
 2581TIP3    H2 7750   2.042   0.541   0.790 -4.5817 -2.3355  0.3347
 2582TIP3   OH2 7751   1.057   5.072   3.472  0.1658  0.0948 -0.3769
 2582TIP3    H1 7752   1.080   5.165   3.468  1.0795 -0.1603 -1.3884
 2582TIP3    H2 7753   1.025   5.059   3.562  3.7419  0.5640  1.1065
 2583TIP3   OH2 7754   0.607   3.452   2.075  0.2892 -0.7038  0.5063
 2583TIP3    H1 7755   0.523   3.487   2.047 -0.1897 -1.6937  0.6699
 2583TIP3    H2 7756   0.588   3.363   2.104  1.4218 -1.0160  0.3513
 2584TIP3   OH2 7757   0.765   3.386   1.170  0.1606 -0.2245 -0.0174
 2584TIP3    H1 7758   0.735   3.348   1.087 -2.0140  2.8727 -0.8772
 2584TIP3    H2 7759   0.703   3.353   1.235 -1.7271  1.5609 -0.7569
 2585TIP3   OH2 7760   2.474   0.663   4.507 -0.4260 -0.4393  0.3487
 2585TIP3    H1 7761   2.490   0.643   4.414 -1.9184  0.3929 -0.1273
 2585TIP3    H2 7762   2.561   0.668   4.546  0.1813 -2.4685 -0.6298
 2586TIP3   OH2 7763   1.652   2.235   4.856 -0.2873  0.2477 -0.1077
 2586TIP3    H1 7764   1.733   2.255   4.904  1.3123 -0.4754 -2.3162
 2586TIP3    H2 7765   1.677   2.244   4.764 -2.4305 -1.1456 -0.8918
 2587TIP3   OH2 7766   1.088   2.996   2.012  0.4062  0.4825 -0.6373
 2587TIP3    H1 7767   1.150   3.005   2.084  0.7035 -0.1557 -0.8094
 2587TIP3    H2 7768   1.085   3.083   1.972 -0.2716  1.0332  0.5449
 2588TIP3   OH2 7769   6.066   0.093   1.187 -0.4817  0.4075 -0.4743
 2588TIP3    H1 7770   6.138   0.131   1.137  0.4639 -3.0794 -2.0391
 2588TIP3    H2 7771   5.989   0.103   1.130  0.0509 -1.1281 -1.5342
 2589TIP3   OH2 7772   5.338   1.770   0.823 -0.1315  0.0948 -0.7092
 2589TIP3    H1 7773   5.301   1.719   0.896  0.5205  0.3275 -0.2138
 2589TIP3    H2 7774   5.331   1.711   0.748  0.6917 -0.7712 -0.1271
 2590TIP3   OH2 7775   3.160   3.582   3.689 -0.3650 -0.0154 -0.3081
 2590TIP3    H1 7776   3.094   3.617   3.749 -0.1660  1.5081 -0.9217
 2590TIP3    H2 7777   3.111   3.556   3.611 -0.5585 -1.5156  0.2816
 2591TIP3   OH2 7778   5.416   0.587   1.985 -0.4842  0.1192  0.3999
 2591TIP3    H1 7779   5.346   0.527   1.963 -1.1207  0.7269  0.7353
 2591TIP3    H2 7780   5.466   0.598   1.904  0.1212 -1.4651  0.5213
 2592TIP3   OH2 7781   2.677   4.191   0.524  0.4698 -0.2647 -0.1379
 2592TIP3    H1 7782   2.612   4.186   0.595  0.2526  1.8648 -0.1026
 2592TIP3    H2 7783   2.645   4.130   0.458 -1.3898  0.4214  0.0468
 2593TIP3   OH2 7784   5.831   2.658   2.351 -0.0413 -0.1140 -0.0232
 2593TIP3    H1 7785   5.923   2.633   2.361 -0.4520 -1.0821  1.6114
 2593TIP3    H2 7786   5.833   2.724   2.281  1.7604 -0.7813 -0.6884
 2594TIP3   OH2 7787   1.649   4.482   4.772  0.6513  0.1399  0.0129
 2594TIP3    H1 7788   1.719   4.508   4.712  0.1645 -2.1319 -1.6835
 2594TIP3    H2 7789   1.664   4.389   4.787 -0.5997  0.1552  1.6356
 2595TIP3   OH2 7790   6.147   2.625   1.851 -0.0957 -0.3452  0.3703
 2595TIP3    H1 7791   6.149   2.703   1.906 -0.4093 -0.8299  1.0917
 2595TIP3    H2 7792   6.205   2.645   1.778 -2.3078  1.6856 -1.0001
 2596TIP3   OH2 7793   3.169   2.741   5.044 -0.1908 -0.3730  0.1386
 2596TIP3    H1 7794   3.149   2.733   5.138  2.0702  0.7258  0.7943
 2596TIP3    H2 7795   3.239   2.677   5.029 -0.6306 -0.6302 -0.8325
 2597TIP3   OH2 7796   4.879   3.158   3.209  0.1282 -0.5319  0.0084
 2597TIP3    H1 7797   4.820   3.207   3.267  1.5967  1.1379  0.1725
 2597TIP3    H2 7798   4.822   3.123   3.140 -1.2433 -0.2096  0.9468
 2598TIP3   OH2 7799   2.133   5.339   2.163  0.5299 -0.4773 -0.0155
 2598TIP3    H1 7800   2.202   5.277   2.137  0.6050 -0.2363 -0.3958
 2598TIP3    H2 7801   2.144   5.413   2.103 -0.3512 -0.6300 -0.3840
 2599TIP3   OH2 7802   5.011   4.705   2.493  0.0589 -0.3905  0.4060
 2599TIP3    H1 7803   5.101   4.691   2.466 -0.2989 -1.0710 -0.4987
 2599TIP3    H2 7804   5.009   4.678   2.585  0.8394 -0.0443  0.5318
 2600TIP3   OH2 7805   2.279   3.884   2.455  0.0424 -0.3109 -0.7409
 2600TIP3    H1 7806   2.235   3.882   2.370 -1.6919  1.0061  0.0661
 2600TIP3    H2 7807   2.242   3.960   2.499  0.6802 -1.1408  1.3186
 2601TIP3   OH2 7808   3.489   5.228   2.116  0.1777 -0.7427 -0.1782
 2601TIP3    H1 7809   3.563   5.245   2.059  1.6130  1.0880  2.0604
 2601TIP3    H2 7810   3.445   5.312   2.125 -0.7881 -1.2832  0.4070
 2602TIP3   OH2 7811   1.852   3.048   4.749  0.4369 -0.3571 -0.0516
 2602TIP3    H1 7812   1.875   3.116   4.685  1.2209 -0.2622  0.3186
 2602TIP3    H2 7813   1.827   3.097   4.827  2.3531 -0.4752  0.6779
 2603TIP3   OH2 7814   0.630   1.076   0.686 -0.0821  0.7903  0.1758
 2603TIP3    H1 7815   0.633   1.032   0.771 -0.2717 -1.2052 -0.7784
 2603TIP3    H2 7816   0.651   1.167   0.704 -0.2023  0.4199  2.3602
 2604TIP3   OH2 7817   5.443   3.242   2.021 -0.0519 -0.3539  0.3216
 2604TIP3    H1 7818   5.427   3.231   2.115 -0.7826  1.8787  0.5044
 2604TIP3    H2 7819   5.536   3.223   2.011 -0.0292 -0.9308  1.4396
 2605TIP3   OH2 7820   4.986   1.372   0.349 -0.2103  0.3483 -0.0257
 2605TIP3    H1 7821   4.953   1.462   0.340 -0.5007  0.2778  0.3107
 2605TIP3    H2 7822   5.047   1.377   0.422  0.3762  0.4334 -0.5121
 2606TIP3   OH2 7823   4.643   2.369   4.808 -0.2049  0.0730 -0.2897
 2606TIP3    H1 7824   4.587   2.339   4.880  2.2974 -3.1564  0.5812
 2606TIP3    H2 7825   4.691   2.443   4.845  1.3525 -1.7829  1.7003
 2607TIP3   OH2 7826   5.988   1.380   3.778  0.1943 -0.0282 -0.7210
 2607TIP3    H1 7827   6.029   1.433   3.846  0.3772 -0.2066 -0.6919
 2607TIP3    H2 7828   5.898   1.369   3.808 -0.5031  2.1116 -1.7882
 2608TIP3   OH2 7829   1.848   4.374   3.169  0.1096 -0.2188  0.2658
 2608TIP3    H1 7830   1.914   4.323   3.122 -0.9464 -1.6934  0.3081
 2608TIP3    H2 7831   1.888   4.460   3.181  1.8308 -0.9279 -0.0939
 2609TIP3   OH2 7832   4.179   5.327   4.406 -0.2604  0.0872 -0.2631
 2609TIP3    H1 7833   4.252   5.384   4.385  0.1586 -0.3159  0.0850
 2609TIP3    H2 7834   4.129   5.375   4.472  1.8346 -1.2273  2.4574
 2610TIP3   OH2 7835   6.046   2.591   1.314  0.0883 -0.6966 -0.2416
 2610TIP3    H1 7836   6.077   2.651   1.246  0.3914  1.0045  1.3155
 2610TIP3    H2 7837   5.987   2.644   1.368 -0.4454 -2.0959  0.6119
 2611TIP3   OH2 7838   5.815   0.826   4.575 -0.5958 -0.1874  0.8123
 2611TIP3    H1 7839   5.831   0.835   4.669  0.7200  0.8405  0.5198
 2611TIP3    H2 7840   5.787   0.913   4.547  0.3832 -0.1071  0.0254
 2612TIP3   OH2 7841   5.337   4.306   1.156  0.3409  0.4857 -0.3191
 2612TIP3    H1 7842   5.381   4.223   1.173 -2.4328 -0.8135  1.3498
 2612TIP3    H2 7843   5.408   4.369   1.142  2.5749 -1.8837 -0.3357
 2613TIP3   OH2 7844   0.664   2.389   3.364  0.1498  0.4473  0.2059
 2613TIP3    H1 7845   0.658   2.319   3.300 -3.3444  0.7656  0.0334
 2613TIP3    H2 7846   0.722   2.454   3.324  1.0052 -0.9532 -0.9284
 2614TIP3   OH2 7847   6.062   5.673   1.003  0.0174  0.3303 -0.6787
 2614TIP3    H1 7848   6.030   5.752   1.046 -0.0186  0.9306 -1.7790
 2614TIP3    H2 7849   6.008   5.603   1.039 -0.8294  0.9851 -0.6358
 2615TIP3   OH2 7850   5.045   5.323   0.273  0.1198  0.1252 -0.1683
 2615TIP3    H1 7851   5.029   5.231   0.252 -1.3247 -0.7044  3.7579
 2615TIP3    H2 7852   5.108   5.320   0.345 -1.3326  2.0578  1.2664
 2616TIP3   OH2 7853   6.138   4.350   1.779 -0.0503  0.2349  0.3015
 2616TIP3    H1 7854   6.202   4.293   1.736  0.4582  0.4317  0.7924
 2616TIP3    H2 7855   6.187   4.393   1.849 -0.7407  0.3142  0.7468
 2617TIP3   OH2 7856   2.313   5.142   3.613  0.0199 -0.3438 -0.2499
 2617TIP3    H1 7857   2.338   5.049   3.612  0.9076 -0.1073 -1.2835
 2617TIP3    H2 7858   2.218   5.140   3.629 -0.0643 -1.4568 -0.7314
 2618TIP3   OH2 7859   0.153   0.231   3.010  0.1903 -0.2751 -0.1272
 2618TIP3    H1 7860   0.248   0.232   2.995  0.1410 -0.2129 -0.4445
 2618TIP3    H2 7861   0.139   0.303   3.072  0.3785 -0.4452  0.1201
 2619TIP3   OH2 7862   4.105   3.487   0.649  0.1811  0.2196  0.0265
 2619TIP3    H1 7863   4.029   3.447   0.692 -0.6984  0.9263 -0.8292
 2619TIP3    H2 7864   4.101   3.455   0.559 -0.3671  1.9508 -0.5906
 2620TIP3   OH2 7865   2.834   3.850   4.969  0.2839 -0.1558 -0.0201
 2620TIP3    H1 7866   2.874   3.847   4.882  0.4725 -1.4517  0.0841
 2620TIP3    H2 7867   2.747   3.886   4.954  0.8186  0.9916 -0.5190
 2621TIP3   OH2 7868   3.902   5.685   1.131 -0.1482  0.3477  0.2739
 2621TIP3    H1 7869   3.812   5.717   1.136 -0.5557 -0.2928 -1.7719
 2621TIP3    H2 7870   3.894   5.591   1.119  0.8015  0.2468  0.3197
 2622TIP3   OH2 7871   1.666   0.946   1.546 -0.5269  0.0264 -0.2162
 2622TIP3    H1 7872   1.648   0.852   1.542  0.6341 -0.2288  0.0789
 2622TIP3    H2 7873   1.740   0.958   1.486 -1.1181  0.8786 -0.7909
 2623TIP3   OH2 7874   4.743   4.843   4.934  0.9215 -0.2813 -0.3238
 2623TIP3    H1 7875   4.808   4.820   5.001 -2.0975 -0.8966  2.6234
 2623TIP3    H2 7876   4.766   4.933   4.908  1.7108  0.3447  2.2664
 2624TIP3   OH2 7877   0.527   0.063   4.261  0.1396  0.4017 -0.1157
 2624TIP3    H1 7878   0.622   0.054   4.250  0.3163  1.8336  0.1412
 2624TIP3    H2 7879   0.500  -0.020   4.300  1.3664  0.1895  0.3108
 2625TIP3   OH2 7880   4.441   5.117  -0.008  0.4277 -0.7770 -0.9550
 2625TIP3    H1 7881   4.451   5.055   0.064  2.1927  1.9366  1.3487
 2625TIP3    H2 7882   4.349   5.144  -0.004  0.6821 -0.0310  0.9607
 2626TIP3   OH2 7883   2.752   0.629   4.503  0.1208  0.1443  0.2042
 2626TIP3    H1 7884   2.754   0.537   4.478 -1.1511 -0.0147  0.5985
 2626TIP3    H2 7885   2.819   0.670   4.449  1.5706 -1.1988  0.8772
 2627TIP3   OH2 7886   1.030   5.772   1.537 -0.2234  0.4914  0.2760
 2627TIP3    H1 7887   0.999   5.776   1.628  0.2790 -0.7083  0.5213
 2627TIP3    H2 7888   0.954   5.743   1.487  0.4616 -2.8691  0.9355
 2628TIP3   OH2 7889   5.783   3.938   1.127 -0.2547  0.1878 -0.5221
 2628TIP3    H1 7890   5.765   4.031   1.114 -0.1379  0.0249 -2.0614
 2628TIP3    H2 7891   5.856   3.919   1.068  1.4261 -0.3628  1.6157
 2629TIP3   OH2 7892   5.831   5.113   0.133  0.3480  0.1482 -0.7296
 2629TIP3    H1 7893   5.893   5.159   0.078  0.7581 -0.7399 -1.0343
 2629TIP3    H2 7894   5.885   5.069   0.199  0.0606 -0.5716 -0.9551
 2630TIP3   OH2 7895   1.612   3.726   4.690  0.3680 -0.0456 -0.7544
 2630TIP3    H1 7896   1.546   3.738   4.622 -0.9987 -0.5627  0.4353
 2630TIP3    H2 7897   1.572   3.762   4.768  1.4543 -0.4781  0.0167
 2631TIP3   OH2 7898   6.007   0.201   4.365 -0.3875 -0.4590  0.3553
 2631TIP3    H1 7899   6.072   0.132   4.379  0.2142 -0.0090 -0.1648
 2631TIP3    H2 7900   6.055   0.283   4.374 -0.7292 -0.1255 -0.6793
 2632TIP3   OH2 7901   1.934   0.226   4.347  0.0673 -0.0628 -0.1159
 2632TIP3    H1 7902   1.860   0.176   4.383  0.2745  0.4325  1.0290
 2632TIP3    H2 7903   1.905   0.250   4.259 -0.6035 -0.9879 -0.1749
 2633TIP3   OH2 7904   5.791   5.662   3.286  0.2175  0.1949  0.1186
 2633TIP3    H1 7905   5.765   5.595   3.349 -3.6630  1.7281  0.4451
 2633TIP3    H2 7906   5.748   5.636   3.205  1.6671  0.4693 -0.7751
 2634TIP3   OH2 7907   4.599   0.580   1.200  0.4475  0.1023 -0.0878
 2634TIP3    H1 7908   4.525   0.542   1.152  2.2690 -1.7802 -1.6083
 2634TIP3    H2 7909   4.667   0.590   1.134  1.6103  1.6566  1.2844
 2635TIP3   OH2 7910   0.489   2.321   1.673  0.1264  0.2560 -0.4434
 2635TIP3    H1 7911   0.544   2.295   1.747  0.3772  1.5994 -0.1229
 2635TIP3    H2 7912   0.517   2.410   1.653 -0.2486  0.0774 -1.8859
 2636TIP3   OH2 7913   0.337   0.498   1.310  0.4946  0.1811 -0.6292
 2636TIP3    H1 7914   0.384   0.487   1.393 -0.7140 -2.2596 -0.1510
 2636TIP3    H2 7915   0.404   0.486   1.243  0.9570 -1.3760  0.0403
 2637TIP3   OH2 7916   4.290   4.073   0.196 -0.0824  0.1866  0.5738
 2637TIP3    H1 7917   4.210   4.119   0.224  0.0831  0.3739  0.7348
 2637TIP3    H2 7918   4.279   4.065   0.101  0.9031  2.5540  0.1851
 2638TIP3   OH2 7919   0.483   0.204   2.702  0.3781 -0.0064 -0.7000
 2638TIP3    H1 7920   0.423   0.276   2.680 -0.1588 -0.7953 -1.8806
 2638TIP3    H2 7921   0.445   0.127   2.660  0.9335 -1.0072  0.5638
 2639TIP3   OH2 7922   2.323   3.667   2.229 -0.3729 -0.5281 -0.5990
 2639TIP3    H1 7923   2.290   3.624   2.151  0.0465 -0.2686 -0.9231
 2639TIP3    H2 7924   2.244   3.698   2.275 -0.5833  1.3752 -2.1012
 2640TIP3   OH2 7925   3.938   3.823   2.107  0.1575 -0.1120 -0.2938
 2640TIP3    H1 7926   3.995   3.772   2.050 -2.5599 -2.2162 -1.3809
 2640TIP3    H2 7927   3.858   3.836   2.056 -2.0952 -1.3261  2.6013
 2641TIP3   OH2 7928   1.999   1.901   3.122  0.1362 -0.0375 -0.0785
 2641TIP3    H1 7929   2.092   1.899   3.145  0.7402 -1.6475 -2.3166
 2641TIP3    H2 7930   1.982   1.991   3.097  0.5288  0.7484  2.2262
 2642TIP3   OH2 7931   3.931   1.274   0.769  0.0132  0.2229  0.3666
 2642TIP3    H1 7932   3.968   1.195   0.730  0.0674  1.3168 -1.9545
 2642TIP3    H2 7933   4.006   1.323   0.803  0.1280 -0.0187  0.4599
 2643TIP3   OH2 7934   2.644   2.236   4.652  0.0153 -0.1764  0.5351
 2643TIP3    H1 7935   2.727   2.190   4.666 -0.0040 -0.5637 -0.5206
 2643TIP3    H2 7936   2.670   2.328   4.644  0.5803 -0.4498 -1.3462
 2644TIP3   OH2 7937   0.041   2.911   1.293  0.1608  0.1074  0.3106
 2644TIP3    H1 7938   0.019   2.896   1.385 -1.4008 -0.2256 -0.0730
 2644TIP3    H2 7939   0.100   2.986   1.294 -1.7049  1.6698  1.4741
 2645TIP3   OH2 7940   5.409   2.769   2.523 -0.1819  0.1163  0.0991
 2645TIP3    H1 7941   5.325   2.745   2.562 -0.5597 -1.0062 -1.3289
 2645TIP3    H2 7942   5.414   2.864   2.532 -0.9736  0.0490  1.4048
 2646TIP3   OH2 7943   1.710   5.838   0.784  0.1329  0.1863  0.1515
 2646TIP3    H1 7944   1.641   5.776   0.809  0.8629 -1.6830 -2.1129
 2646TIP3    H2 7945   1.685   5.868   0.696  1.6629  0.2409 -0.2969
 2647TIP3   OH2 7946   3.969   0.749   4.522  0.2824 -0.4688  0.0240
 2647TIP3    H1 7947   4.035   0.818   4.528  0.4751 -0.4281 -1.9546
 2647TIP3    H2 7948   3.997   0.683   4.585 -0.0360  1.3008  2.1454
 2648TIP3   OH2 7949   0.947   3.132   0.658  0.2321  0.1219  0.1835
 2648TIP3    H1 7950   1.030   3.178   0.669  0.2473 -0.0347  0.8015
 2648TIP3    H2 7951   0.883   3.201   0.637  0.6685  0.1401 -1.1515
 2649TIP3   OH2 7952   4.232   5.433   2.089 -0.2589 -0.0649  0.7882
 2649TIP3    H1 7953   4.309   5.408   2.039  0.0173  0.4204  0.9637
 2649TIP3    H2 7954   4.160   5.431   2.026 -0.2655 -1.3751  0.8234
 2650TIP3   OH2 7955   2.499   5.823   2.602  0.2798  0.5635  0.5878
 2650TIP3    H1 7956   2.499   5.892   2.535  0.0242  1.5992  1.6223
 2650TIP3    H2 7957   2.587   5.825   2.638  0.9045 -1.0541 -0.7330
 2651TIP3   OH2 7958   3.267   1.604   0.723  0.4315  0.0038  0.1993
 2651TIP3    H1 7959   3.350   1.618   0.677 -0.1225  1.2162 -0.4823
 2651TIP3    H2 7960   3.280   1.523   0.772  1.2119 -1.0975 -1.7242
 2652TIP3   OH2 7961   5.564   2.698   1.858 -0.2762  0.0684  0.0461
 2652TIP3    H1 7962   5.582   2.647   1.779 -0.5974  0.7838 -0.4934
 2652TIP3    H2 7963   5.531   2.633   1.921 -2.1158 -0.1938 -1.1112
 2653TIP3   OH2 7964   0.396   1.248   2.878  0.9031  0.0113 -0.0714
 2653TIP3    H1 7965   0.427   1.338   2.881  0.6346  0.1006  0.0234
 2653TIP3    H2 7966   0.466   1.197   2.919  0.3980  0.3612  1.2795
 2654TIP3   OH2 7967   5.348   0.868   1.232 -0.0094 -0.1494 -0.7419
 2654TIP3    H1 7968   5.328   0.780   1.263  2.1843 -1.4390 -2.6233
 2654TIP3    H2 7969   5.430   0.892   1.276 -1.1569  1.4841  0.6129
 2655TIP3   OH2 7970   5.295   3.911   3.975 -0.6142 -0.0515  0.3720
 2655TIP3    H1 7971   5.282   3.929   3.882 -2.2470  0.0941  0.6100
 2655TIP3    H2 7972   5.368   3.967   4.000  0.4016 -0.6791 -0.9807
 2656TIP3   OH2 7973   0.321   2.480   2.629 -0.5116 -0.1634 -0.4956
 2656TIP3    H1 7974   0.336   2.386   2.621  0.8821 -0.2484  1.9225
 2656TIP3    H2 7975   0.226   2.490   2.623 -0.9488 -2.1068  1.6817
 2657TIP3   OH2 7976   5.805   4.199   1.076 -0.1851 -0.4000  0.5581
 2657TIP3    H1 7977   5.830   4.250   1.000 -0.9725  0.5452  0.9025
 2657TIP3    H2 7978   5.881   4.202   1.134 -0.1804  0.3151  0.5263
 2658TIP3   OH2 7979   3.421   4.629   0.929 -0.5895 -0.5966  0.0610
 2658TIP3    H1 7980   3.471   4.693   0.981 -3.3629 -0.2245  2.5935
 2658TIP3    H2 7981   3.431   4.547   0.976 -1.6906 -0.6777  0.1819
 2659TIP3   OH2 7982   0.395   0.823   4.216  0.0710  0.1963 -0.1266
 2659TIP3    H1 7983   0.412   0.833   4.123 -0.2408  0.6468 -0.1380
 2659TIP3    H2 7984   0.441   0.743   4.241 -0.4886 -0.3552 -0.8303
 2660TIP3   OH2 7985   1.752   2.618   2.103 -0.3376  0.1897 -0.2650
 2660TIP3    H1 7986   1.779   2.709   2.089 -1.8237  0.3176 -3.0382
 2660TIP3    H2 7987   1.668   2.611   2.058 -0.6515 -2.3839  0.5589
 2661TIP3   OH2 7988   5.000   3.760   3.706  0.4710  0.8462 -0.0975
 2661TIP3    H1 7989   4.931   3.711   3.661 -0.0431 -0.9265  2.4308
 2661TIP3    H2 7990   5.079   3.744   3.653 -0.5290  0.8390 -1.6466
 2662TIP3   OH2 7991   2.251   3.689   3.877 -0.5166 -0.0838 -0.3205
 2662TIP3    H1 7992   2.333   3.689   3.827  0.2364  2.9247  0.7227
 2662TIP3    H2 7993   2.219   3.779   3.872 -1.3843 -0.0535  2.9754
 2663TIP3   OH2 7994   1.425   3.339   4.203  0.0537 -0.3552  0.0377
 2663TIP3    H1 7995   1.332   3.361   4.209 -0.6545 -2.5835 -1.6177
 2663TIP3    H2 7996   1.463   3.412   4.154 -1.0907 -0.0639 -0.4630
 2664TIP3   OH2 7997   5.996   4.221   5.029 -0.3997  0.1290 -0.8111
 2664TIP3    H1 7998   6.014   4.139   5.076 -1.0119  0.4109 -0.0653
 2664TIP3    H2 7999   6.064   4.226   4.962  0.2328 -0.4922 -0.2233
 2665TIP3   OH2 8000   5.060   2.142   5.131 -0.3870  0.1608 -0.0622
 2665TIP3    H1 8001   5.126   2.077   5.108 -1.3662 -1.2271  0.9477
 2665TIP3    H2 8002   4.999   2.142   5.058 -0.5619 -0.2905  0.0856
 2666TIP3   OH2 8003   3.934   2.203   0.234  0.0114  0.3524 -0.1839
 2666TIP3    H1 8004   3.971   2.131   0.182  1.5970 -0.7355  2.2220
 2666TIP3    H2 8005   3.996   2.213   0.307 -0.1707  4.1945 -0.3840
 2667TIP3   OH2 8006   5.036   0.546   3.485  0.2726 -0.1878  0.3136
 2667TIP3    H1 8007   5.027   0.451   3.490 -0.3140 -0.0880  2.6324
 2667TIP3    H2 8008   5.117   0.565   3.532  0.2740  0.4695  0.0613
 2668TIP3   OH2 8009   2.145   2.330   0.573  0.0535 -0.2721  0.4302
 2668TIP3    H1 8010   2.102   2.287   0.647  1.0537  0.2538  1.3474
 2668TIP3    H2 8011   2.235   2.297   0.575  0.3231  0.4093 -0.0088
 2669TIP3   OH2 8012   1.533   0.513   5.134  0.6100  0.0242 -0.1406
 2669TIP3    H1 8013   1.463   0.483   5.191 -0.4943  0.2731 -1.3211
 2669TIP3    H2 8014   1.522   0.463   5.053  0.7157  1.2680 -0.9607
 2670TIP3   OH2 8015   0.086   0.818   2.672  0.5330 -0.0432 -0.4482
 2670TIP3    H1 8016   0.058   0.894   2.621  1.1623  1.3346  1.1545
 2670TIP3    H2 8017   0.013   0.802   2.732 -0.4215 -1.9717 -2.0147
 2671TIP3   OH2 8018   1.354   3.684   3.607 -0.1651 -0.1118  0.3409
 2671TIP3    H1 8019   1.401   3.765   3.627 -1.0233  0.5109 -0.1106
 2671TIP3    H2 8020   1.423   3.618   3.597  0.4947  0.3735  1.5510
 2672TIP3   OH2 8021   4.752   3.955   4.109  0.0848 -0.1251  0.1423
 2672TIP3    H1 8022   4.741   4.005   4.028 -1.4114 -2.3750 -1.1445
 2672TIP3    H2 8023   4.847   3.949   4.120  0.3116  1.7215 -0.4364
 2673TIP3   OH2 8024   6.052   3.174   4.164 -0.0117  0.5130  0.5944
 2673TIP3    H1 8025   6.128   3.228   4.142 -0.3052  0.5114 -0.4875
 2673TIP3    H2 8026   5.977   3.231   4.149 -0.2912  0.0335  0.1068
 2674TIP3   OH2 8027   1.890   1.658   3.218  0.2059  0.1251  0.2203
 2674TIP3    H1 8028   1.926   1.745   3.200 -1.1981  0.6924  0.0903
 2674TIP3    H2 8029   1.968   1.603   3.229  1.1341  1.4645  0.7399
 2675TIP3   OH2 8030   5.871   3.316   4.016  0.2037 -0.7089 -0.0752
 2675TIP3    H1 8031   5.806   3.262   3.970 -1.6187  0.8193  0.5686
 2675TIP3    H2 8032   5.899   3.380   3.951  1.6230 -1.7505 -0.5441
 2676TIP3   OH2 8033   1.509   0.982   4.194  0.1118  0.1556 -0.8078
 2676TIP3    H1 8034   1.458   1.014   4.268 -0.6430 -0.2088 -1.1583
 2676TIP3    H2 8035   1.584   1.042   4.188  0.2077  0.1474  0.2710
 2677TIP3   OH2 8036   2.137   1.104   5.109  0.4122 -0.6595  0.6578
 2677TIP3    H1 8037   2.139   1.108   5.013 -1.1517  1.7472  0.6486
 2677TIP3    H2 8038   2.175   1.187   5.137 -0.8800 -0.4986  2.0522
 2678TIP3   OH2 8039   0.767   2.119   4.673 -0.4885  0.2358 -0.4226
 2678TIP3    H1 8040   0.674   2.136   4.654 -0.2465  1.3534 -0.7156
 2678TIP3    H2 8041   0.768   2.080   4.760 -1.3973 -1.9375 -1.3110
 2679TIP3   OH2 8042   4.657   0.282   3.962 -0.3709  0.0780 -0.5187
 2679TIP3    H1 8043   4.619   0.194   3.963 -0.8893  0.2891 -1.2477
 2679TIP3    H2 8044   4.587   0.339   3.993 -0.3003  0.3360 -0.8310
 2680TIP3   OH2 8045   5.243   3.919   4.916 -0.2891 -0.5691 -0.5576
 2680TIP3    H1 8046   5.291   3.868   4.981  0.6063  1.9186  0.8917
 2680TIP3    H2 8047   5.249   3.868   4.836  0.6273 -2.6314  0.7314
 2681TIP3   OH2 8048   5.578   1.097   3.556 -0.7017 -0.1303  0.0842
 2681TIP3    H1 8049   5.535   1.121   3.638 -0.8874 -2.7291  0.8530
 2681TIP3    H2 8050   5.507   1.062   3.502 -0.1743 -0.9514 -0.1014
 2682TIP3   OH2 8051   0.258   0.498   4.211 -0.1878  0.2877 -0.5154
 2682TIP3    H1 8052   0.302   0.413   4.208 -0.9990 -0.1488 -0.3593
 2682TIP3    H2 8053   0.262   0.531   4.121  0.5249  0.3016 -0.4875
 2683TIP3   OH2 8054   2.958   5.767   0.317  0.1793 -0.0154 -0.0206
 2683TIP3    H1 8055   3.018   5.838   0.335 -1.8031  1.8340 -0.2899
 2683TIP3    H2 8056   2.975   5.743   0.226  3.3371 -2.5257  1.0333
 2684TIP3   OH2 8057   4.840   5.712   4.779 -0.1545  0.3020  0.0104
 2684TIP3    H1 8058   4.920   5.690   4.730 -0.0464  2.4791 -0.9165
 2684TIP3    H2 8059   4.863   5.694   4.870  1.2770  0.4727 -0.2821
 2685TIP3   OH2 8060   3.387   4.796   3.968 -0.5702 -0.2303 -0.2731
 2685TIP3    H1 8061   3.444   4.805   4.045  0.3938  0.1720 -1.0192
 2685TIP3    H2 8062   3.377   4.885   3.934 -1.5261 -0.3181 -0.2510
 2686TIP3   OH2 8063   1.853   2.486   1.145  0.4680 -0.0283 -0.7913
 2686TIP3    H1 8064   1.857   2.407   1.201 -0.9262 -0.2470 -0.9823
 2686TIP3    H2 8065   1.890   2.555   1.200 -0.8737 -0.2368  0.4441
 2687TIP3   OH2 8066   1.491   2.616   1.369 -0.2846 -0.1813  0.2131
 2687TIP3    H1 8067   1.442   2.698   1.360  0.4948  0.2845  0.1041
 2687TIP3    H2 8068   1.463   2.580   1.453 -2.9508 -1.3899 -1.0872
 2688TIP3   OH2 8069   5.678   1.480   1.706  0.1444  0.2832  0.0022
 2688TIP3    H1 8070   5.742   1.412   1.729  0.6086  0.9434  0.7326
 2688TIP3    H2 8071   5.594   1.445   1.736  0.4210  0.1446  0.6356
 2689TIP3   OH2 8072   3.910   1.042   4.505 -0.3143  0.5981  0.1358
 2689TIP3    H1 8073   3.848   0.978   4.471  2.3599 -1.8599 -0.5255
 2689TIP3    H2 8074   3.926   1.015   4.595 -1.0113  1.9611  0.7094
 2690TIP3   OH2 8075   1.414   1.093   0.864 -1.0407  0.3442 -0.0104
 2690TIP3    H1 8076   1.466   1.019   0.833  0.7258  1.3978  0.3285
 2690TIP3    H2 8077   1.412   1.083   0.959 -0.9510  0.6145  0.0218
 2691TIP3   OH2 8078   1.444   3.634   1.825  0.2109 -0.2200  0.6345
 2691TIP3    H1 8079   1.433   3.690   1.748 -1.3573  1.6331  2.1190
 2691TIP3    H2 8080   1.536   3.648   1.850  1.2116 -2.0211 -1.6747
 2692TIP3   OH2 8081   0.419   1.415  -0.010 -0.7101  0.2052 -0.4551
 2692TIP3    H1 8082   0.405   1.330   0.031 -0.8876  0.3845 -0.1362
 2692TIP3    H2 8083   0.428   1.476   0.064 -1.9521  0.6803 -0.6652
 2693TIP3   OH2 8084   2.149   1.674   2.194  0.0324 -0.3186 -0.2430
 2693TIP3    H1 8085   2.100   1.627   2.262 -0.2268 -0.7411 -0.7139
 2693TIP3    H2 8086   2.239   1.643   2.203 -0.1195 -0.8290 -0.4889
 2694TIP3   OH2 8087   3.312   2.363   4.131  0.6918 -0.0458 -0.2224
 2694TIP3    H1 8088   3.297   2.323   4.217  1.2254 -2.0091 -0.9668
 2694TIP3    H2 8089   3.395   2.325   4.101  0.1232 -0.0475 -1.9275
 2695TIP3   OH2 8090   4.616   2.372   4.346  0.0410  0.4504 -0.3632
 2695TIP3    H1 8091   4.636   2.445   4.404  1.4378 -1.1699  1.2925
 2695TIP3    H2 8092   4.679   2.304   4.369 -1.2736 -1.3480 -1.7589
 2696TIP3   OH2 8093   0.141   5.800   1.531 -0.1903  0.2319  0.0569
 2696TIP3    H1 8094   0.115   5.878   1.482 -1.7512  0.1787  0.7376
 2696TIP3    H2 8095   0.131   5.825   1.623  1.4178 -0.0912  0.3465
 2697TIP3   OH2 8096   5.341   4.309   3.533  0.4024  0.0151 -0.5960
 2697TIP3    H1 8097   5.301   4.391   3.562 -0.4906 -0.8583  0.7980
 2697TIP3    H2 8098   5.268   4.254   3.508  0.9353 -0.6104 -0.8092
 2698TIP3   OH2 8099   5.866   4.042   3.430  0.1161 -0.0420 -0.3995
 2698TIP3    H1 8100   5.926   4.080   3.365 -0.5114 -0.0529 -0.9911
 2698TIP3    H2 8101   5.889   3.949   3.432  0.3137  0.0052 -0.4063
 2699TIP3   OH2 8102   1.501   5.315   2.998  0.5869 -0.4072 -0.4164
 2699TIP3    H1 8103   1.575   5.276   2.953  1.8148  0.8602  0.4180
 2699TIP3    H2 8104   1.471   5.385   2.941  1.2141  0.2531  0.0434
 2700TIP3   OH2 8105   2.023   3.052   1.217  0.4529 -0.8180 -0.0374
 2700TIP3    H1 8106   2.009   3.040   1.311 -1.6713 -0.1661 -0.2098
 2700TIP3    H2 8107   2.036   3.147   1.207 -0.6389 -0.7062 -0.5123
 2701TIP3   OH2 8108   0.300   2.519   3.962 -0.0131 -0.0290 -0.6131
 2701TIP3    H1 8109   0.379   2.493   4.009 -0.0502  1.1115  0.1494
 2701TIP3    H2 8110   0.229   2.507   4.026 -0.1070  1.2602 -0.4313
 2702TIP3   OH2 8111   3.278   2.856   1.553  0.0355  0.3754  0.0356
 2702TIP3    H1 8112   3.238   2.941   1.534 -2.2327 -0.3362  1.3481
 2702TIP3    H2 8113   3.276   2.809   1.470 -0.6932  0.8234 -0.2057
 2703TIP3   OH2 8114   4.586   1.171   3.208  0.1161  0.3201  0.2518
 2703TIP3    H1 8115   4.530   1.246   3.229 -0.6201  0.0083 -0.5183
 2703TIP3    H2 8116   4.620   1.141   3.292 -1.2831  0.2152  0.7939
 2704TIP3   OH2 8117   4.511   1.042   1.696  0.4099  0.1657  0.5139
 2704TIP3    H1 8118   4.471   1.027   1.611  0.6148 -2.1675  0.7734
 2704TIP3    H2 8119   4.604   1.021   1.683  0.7103  1.1474  0.9912
 2705TIP3   OH2 8120   3.815   0.128   1.861 -0.4485  0.0336  0.3508
 2705TIP3    H1 8121   3.762   0.149   1.784 -0.3616 -0.5131  0.1331
 2705TIP3    H2 8122   3.880   0.065   1.829 -0.5701 -0.3946  0.9229
 2706TIP3   OH2 8123   4.427   3.336   4.043 -0.2479  0.2856 -0.2677
 2706TIP3    H1 8124   4.438   3.267   3.978 -2.1640 -0.4011  0.0789
 2706TIP3    H2 8125   4.448   3.294   4.126 -2.8321 -0.3919  0.1252
 2707TIP3   OH2 8126   5.545   1.769   5.058 -0.0229 -0.0878 -0.9892
 2707TIP3    H1 8127   5.611   1.700   5.057 -1.0198 -1.1195  0.5812
 2707TIP3    H2 8128   5.462   1.723   5.048 -0.5915  1.0994 -1.9751
 2708TIP3   OH2 8129   2.879   2.784   4.268  0.3185 -0.1582  0.2882
 2708TIP3    H1 8130   2.900   2.862   4.217 -0.2544  1.3678  2.2218
 2708TIP3    H2 8131   2.800   2.748   4.227  1.3737 -0.5651 -1.4516
 2709TIP3   OH2 8132   2.507   0.623   4.237 -0.2130  0.6098 -0.2318
 2709TIP3    H1 8133   2.428   0.579   4.204  0.7370 -1.1903 -0.2300
 2709TIP3    H2 8134   2.567   0.625   4.162 -0.1963  1.8868 -0.2078
 2710TIP3   OH2 8135   5.433   3.075   3.750  0.3729 -0.0033  0.0645
 2710TIP3    H1 8136   5.467   2.996   3.709  1.3393  0.7534 -0.6365
 2710TIP3    H2 8137   5.358   3.101   3.695  1.2890  0.6668 -0.9022
 2711TIP3   OH2 8138   2.242   5.528   4.866 -0.4135 -0.4260  0.3337
 2711TIP3    H1 8139   2.307   5.495   4.927 -1.7610 -0.1593  1.9669
 2711TIP3    H2 8140   2.161   5.483   4.888 -1.6709  1.8825  0.8445
 2712TIP3   OH2 8141   3.192   4.662   4.686 -0.3154  0.1502  0.4778
 2712TIP3    H1 8142   3.101   4.679   4.661 -0.4891  0.5066  1.3129
 2712TIP3    H2 8143   3.235   4.747   4.679  0.4907 -0.3787 -1.9293
 2713TIP3   OH2 8144   4.356   5.153   4.780  0.4472  0.0886 -0.4117
 2713TIP3    H1 8145   4.306   5.148   4.862  0.2597  0.3379 -0.5097
 2713TIP3    H2 8146   4.412   5.230   4.791  1.1413 -0.4462 -0.1201
 2714TIP3   OH2 8147   1.524   2.962   1.898  0.2073 -0.6752  0.3949
 2714TIP3    H1 8148   1.481   2.917   1.971 -1.5396  1.1025  0.5359
 2714TIP3    H2 8149   1.532   3.053   1.926  0.5342 -0.1732 -1.1912
 2715TIP3   OH2 8150   6.070   1.406   1.050 -0.0855  0.0468 -0.0775
 2715TIP3    H1 8151   6.003   1.451   0.999 -0.4527 -0.2052  0.1777
 2715TIP3    H2 8152   6.140   1.388   0.987 -0.7140 -0.6425 -0.6041
 2716TIP3   OH2 8153   2.380   4.172   1.612  0.2726  0.2326  0.1213
 2716TIP3    H1 8154   2.460   4.142   1.656 -0.0976 -1.0829 -0.0596
 2716TIP3    H2 8155   2.330   4.217   1.680 -0.3378 -1.8456  1.1353
 2717TIP3   OH2 8156   0.350   2.814   0.680  0.2298 -0.1057  0.2134
 2717TIP3    H1 8157   0.258   2.787   0.675 -0.3293  1.8588 -2.1998
 2717TIP3    H2 8158   0.356   2.860   0.763 -0.8341 -0.7117  0.6539
 2718TIP3   OH2 8159   5.967   3.029   2.643 -0.0179 -0.0806  0.0775
 2718TIP3    H1 8160   5.894   2.981   2.603  0.2912 -0.4044 -0.1124
 2718TIP3    H2 8161   6.026   3.047   2.570 -0.1411  0.6201  0.1439
 2719TIP3   OH2 8162   0.396   2.306   4.152 -0.1111 -0.1621  0.1588
 2719TIP3    H1 8163   0.415   2.244   4.223 -2.1661 -0.7012  0.3058
 2719TIP3    H2 8164   0.316   2.272   4.111  0.5878  0.5672 -1.9458
 2720TIP3   OH2 8165   3.117   0.443   0.040 -0.3279  0.3441 -0.2662
 2720TIP3    H1 8166   3.065   0.451   0.119 -0.7525  0.6655 -0.5703
 2720TIP3    H2 8167   3.151   0.532   0.025  2.3114 -0.3103  1.2554
 2721TIP3   OH2 8168   1.886   5.424   3.577 -0.2073  0.0896 -0.4371
 2721TIP3    H1 8169   1.881   5.379   3.492  0.8434 -2.7456  0.8748
 2721TIP3    H2 8170   1.941   5.500   3.561  0.4164 -0.6887 -2.1905
 2722TIP3   OH2 8171   5.772   2.921   5.009  0.3874 -0.3958  0.0111
 2722TIP3    H1 8172   5.720   2.921   4.928  2.0471 -0.1850 -1.1059
 2722TIP3    H2 8173   5.801   2.830   5.019 -0.4903 -0.5926  0.8413
 2723TIP3   OH2 8174   1.022   4.368   0.661  0.2561 -0.3322 -0.0560
 2723TIP3    H1 8175   0.957   4.383   0.592 -0.2537  0.5471  0.5905
 2723TIP3    H2 8176   0.970   4.356   0.741  0.8645 -0.1913  0.3695
 2724TIP3   OH2 8177   0.743   2.793   4.746 -0.4661 -0.0944  0.8458
 2724TIP3    H1 8178   0.735   2.699   4.731 -1.6368 -0.1819  1.8018
 2724TIP3    H2 8179   0.710   2.805   4.835  1.2335  1.0223  1.3557
 2725TIP3   OH2 8180   0.768   0.062   3.381  0.0246  0.2147 -0.2850
 2725TIP3    H1 8181   0.674   0.046   3.380  0.3575 -2.2432 -1.4650
 2725TIP3    H2 8182   0.788   0.090   3.291  0.4790  0.1204 -0.2160
 2726TIP3   OH2 8183   2.660   1.830   3.694  0.5078  0.0606  0.2691
 2726TIP3    H1 8184   2.698   1.767   3.754  2.5127  1.3433  0.4680
 2726TIP3    H2 8185   2.608   1.888   3.749 -0.6095 -0.8574  0.2100
 2727TIP3   OH2 8186   3.386   0.801   0.239 -0.2588  0.8699 -0.4515
 2727TIP3    H1 8187   3.292   0.783   0.244  0.1082 -0.9367  0.6100
 2727TIP3    H2 8188   3.412   0.818   0.329  0.4829  1.2201 -0.7254
 2728TIP3   OH2 8189   3.996   5.047   2.158 -0.5941  0.1162 -0.5828
 2728TIP3    H1 8190   3.910   5.087   2.152  0.7026  3.1102 -0.8039
 2728TIP3    H2 8191   4.010   5.032   2.251 -1.3111 -0.3458 -0.5434
 2729TIP3   OH2 8192   4.638   4.403   3.404 -0.3469  0.2866  0.0013
 2729TIP3    H1 8193   4.639   4.325   3.460  0.0710  0.5054  0.3030
 2729TIP3    H2 8194   4.603   4.472   3.460 -1.4312  0.1635 -0.4865
 2730TIP3   OH2 8195   4.399   1.593   3.328 -0.5251  0.4004  0.3118
 2730TIP3    H1 8196   4.344   1.664   3.360 -0.5299 -0.6251  2.8451
 2730TIP3    H2 8197   4.457   1.634   3.264 -1.7585  2.2795  0.3344
 2731TIP3   OH2 8198   5.937   3.732   0.392  0.2324  0.1754 -0.3050
 2731TIP3    H1 8199   5.855   3.768   0.424 -0.3968 -0.1690 -1.4892
 2731TIP3    H2 8200   5.951   3.775   0.307  0.0796 -1.4394 -1.1906
 2732TIP3   OH2 8201   1.104   0.401   0.166 -0.2942  0.3372  0.2635
 2732TIP3    H1 8202   1.112   0.424   0.258  0.8016 -1.4719  0.6708
 2732TIP3    H2 8203   1.022   0.352   0.160 -1.1086  1.6901 -0.0351
 2733TIP3   OH2 8204   4.814   0.926   1.104 -0.5803 -0.5564  0.4030
 2733TIP3    H1 8205   4.830   0.891   1.191  2.5283 -0.4093 -0.0055
 2733TIP3    H2 8206   4.845   1.017   1.108  0.9560 -0.9561 -1.1536
 2734TIP3   OH2 8207   0.758   0.826   3.762  0.2037  0.3098  0.2680
 2734TIP3    H1 8208   0.730   0.779   3.683  0.5780 -0.0313  0.3329
 2734TIP3    H2 8209   0.729   0.916   3.748  1.4647  0.5710 -0.9008
 2735TIP3   OH2 8210   4.374   2.400   1.156 -0.6599  0.2113 -0.8804
 2735TIP3    H1 8211   4.343   2.466   1.219  2.9843  1.2155  0.0782
 2735TIP3    H2 8212   4.354   2.437   1.070 -0.1027  1.8713 -0.3328
 2736TIP3   OH2 8213   3.337   2.886   3.261  0.1014 -0.4282  0.2964
 2736TIP3    H1 8214   3.334   2.946   3.187 -0.6353 -0.4365  0.3168
 2736TIP3    H2 8215   3.430   2.879   3.283  0.2050  0.6028  0.2106
 2737TIP3   OH2 8216   3.239   4.356   0.405  0.2704  0.5765 -0.0933
 2737TIP3    H1 8217   3.157   4.307   0.400  0.9673 -0.9040  1.8953
 2737TIP3    H2 8218   3.238   4.395   0.493  1.8660  0.1663  0.1389
 2738TIP3   OH2 8219   5.829   2.200   1.875  0.7417 -0.0555 -0.1858
 2738TIP3    H1 8220   5.920   2.174   1.863  0.8508  0.5413 -0.7053
 2738TIP3    H2 8221   5.779   2.137   1.824  0.9582  0.3680 -0.9320
 2739TIP3   OH2 8222   3.168   3.408   1.682 -0.3027  0.2671 -0.4962
 2739TIP3    H1 8223   3.096   3.371   1.733  0.0591 -0.8586 -0.7670
 2739TIP3    H2 8224   3.140   3.497   1.662 -0.0346  1.1574  2.5329
 2740TIP3   OH2 8225   5.564   4.615   2.397 -0.3983 -0.1246 -0.6838
 2740TIP3    H1 8226   5.500   4.582   2.460  0.8051  0.5736  0.9819
 2740TIP3    H2 8227   5.515   4.626   2.316 -1.9247 -1.3773  0.0318
 2741TIP3   OH2 8228   1.217   0.305   4.857  0.0752  0.0031  0.0229
 2741TIP3    H1 8229   1.168   0.383   4.886  0.5994  0.7888 -1.1280
 2741TIP3    H2 8230   1.203   0.302   4.762  1.7554 -0.0949 -0.2566
 2742TIP3   OH2 8231   1.746   5.904   2.477  0.2548  0.1315  0.0617
 2742TIP3    H1 8232   1.826   5.955   2.474 -0.2290  1.0764  1.7272
 2742TIP3    H2 8233   1.720   5.905   2.569 -0.6175 -1.8393 -0.0995
 2743TIP3   OH2 8234   3.042   1.650   4.661  0.1755  0.1126  0.5934
 2743TIP3    H1 8235   3.044   1.602   4.744  0.0419 -0.2204  0.4043
 2743TIP3    H2 8236   3.121   1.622   4.615 -0.3188 -0.5345  0.1409
 2744TIP3   OH2 8237   3.363   5.440   4.478  0.1363 -0.3463  0.0136
 2744TIP3    H1 8238   3.395   5.526   4.504  0.8588 -1.5888  3.9344
 2744TIP3    H2 8239   3.438   5.398   4.435  0.3820  0.2689 -0.1699
 2745TIP3   OH2 8240   3.659   0.480   0.869 -0.4195  0.0858  0.1079
 2745TIP3    H1 8241   3.655   0.410   0.934 -1.2438  0.7583  0.8105
 2745TIP3    H2 8242   3.663   0.560   0.921  1.3936  0.5430 -0.6766
 2746TIP3   OH2 8243   0.448   4.736   3.521  0.6979  0.3891  0.2144
 2746TIP3    H1 8244   0.539   4.745   3.491  0.3650 -1.5537 -1.6148
 2746TIP3    H2 8245   0.442   4.646   3.552 -1.3224 -0.6417 -2.7243
 2747TIP3   OH2 8246   5.099   2.888   1.350  0.1252  0.0203  0.5178
 2747TIP3    H1 8247   5.167   2.896   1.283  0.5634  0.0804  0.9657
 2747TIP3    H2 8248   5.092   2.794   1.366 -0.0519 -0.0017  0.3180
 2748TIP3   OH2 8249   2.285   5.329   4.002 -0.0784  0.3370  0.0292
 2748TIP3    H1 8250   2.341   5.346   4.077  0.1209  0.1865 -0.0833
 2748TIP3    H2 8251   2.197   5.323   4.038 -0.3639  2.8884 -0.0688
 2749TIP3   OH2 8252   5.907   4.538   4.288 -0.2117  0.3555 -0.1680
 2749TIP3    H1 8253   5.964   4.461   4.294  0.0380  0.4467 -1.1557
 2749TIP3    H2 8254   5.958   4.607   4.330 -0.1645  0.1313  0.1525
 2750TIP3   OH2 8255   4.762   4.809   1.083 -0.3395  0.3795  0.2150
 2750TIP3    H1 8256   4.711   4.855   1.149  0.1066  0.9185  0.1963
 2750TIP3    H2 8257   4.839   4.778   1.129 -0.1760  0.4861  0.0168
 2751TIP3   OH2 8258   0.346   5.001   0.449 -0.0343 -0.2157 -0.4192
 2751TIP3    H1 8259   0.308   5.076   0.495  0.9980  0.0047  0.0829
 2751TIP3    H2 8260   0.398   4.955   0.515  0.3721 -0.6563 -1.0361
 2752TIP3   OH2 8261   1.166   0.602   1.252  0.2129 -0.1566  0.2704
 2752TIP3    H1 8262   1.201   0.534   1.310  0.5529  0.6620  1.0521
 2752TIP3    H2 8263   1.104   0.555   1.196  1.9579 -1.5008 -0.6452
 2753TIP3   OH2 8264   0.868   3.247   2.341 -0.7875 -0.4316 -0.4237
 2753TIP3    H1 8265   0.862   3.262   2.436 -2.4354  1.0146 -0.7044
 2753TIP3    H2 8266   0.869   3.152   2.332  1.4954 -0.6322  1.1001
 2754TIP3   OH2 8267   3.974   1.758   0.616  0.2391  0.1879  0.2784
 2754TIP3    H1 8268   3.884   1.783   0.595  0.7891  0.3973 -2.2367
 2754TIP3    H2 8269   4.004   1.827   0.675 -1.5498 -0.5375  2.1780
 2755TIP3   OH2 8270   0.447   1.569   1.222 -0.5526  0.0300 -0.1374
 2755TIP3    H1 8271   0.353   1.548   1.226 -0.3642 -0.8317  0.0354
 2755TIP3    H2 8272   0.466   1.570   1.128 -0.5745 -0.5983 -0.1557
 2756TIP3   OH2 8273   6.106   2.281   0.834 -0.4218 -0.4821  0.1899
 2756TIP3    H1 8274   6.059   2.362   0.856  0.9770  0.1573  0.9468
 2756TIP3    H2 8275   6.114   2.234   0.917  1.1034 -0.1136  0.2731
 2757TIP3   OH2 8276   0.575   4.882   2.391  0.3355 -0.6684  0.1123
 2757TIP3    H1 8277   0.599   4.930   2.311  0.4348 -2.1611 -0.8019
 2757TIP3    H2 8278   0.632   4.806   2.391 -0.8196 -1.5650  0.7084
 2758TIP3   OH2 8279   4.134   1.691   0.155 -0.2342  0.2101  0.9325
 2758TIP3    H1 8280   4.072   1.620   0.139 -1.4688  1.4346  0.0642
 2758TIP3    H2 8281   4.107   1.729   0.238 -0.1631  0.2587  0.9335
 2759TIP3   OH2 8282   1.216   1.323   1.067 -0.4289 -1.0254  0.2690
 2759TIP3    H1 8283   1.254   1.236   1.078 -1.0520 -1.4588 -0.8288
 2759TIP3    H2 8284   1.230   1.344   0.975 -1.9937 -0.8047  0.0611
 2760TIP3   OH2 8285   0.416   5.597   3.768  0.3760  0.4900  0.0114
 2760TIP3    H1 8286   0.342   5.625   3.713  0.5143 -0.3417 -0.6285
 2760TIP3    H2 8287   0.440   5.511   3.732  0.1363 -0.3332  1.6997
 2761TIP3   OH2 8288   4.165   4.098   4.209  0.3974  0.5335 -0.4095
 2761TIP3    H1 8289   4.136   4.189   4.212  0.9701  0.7243 -0.4893
 2761TIP3    H2 8290   4.250   4.101   4.165  0.4372 -0.0353 -0.3850
 2762TIP3   OH2 8291   0.006   2.041   2.071  0.2491  0.1748  0.1887
 2762TIP3    H1 8292   0.080   2.100   2.088 -1.5533  1.8446  2.9951
 2762TIP3    H2 8293  -0.036   2.078   1.992  1.8578 -0.3236 -0.9531
 2763TIP3   OH2 8294   2.123   1.197   3.235  0.2776 -0.5385  0.1072
 2763TIP3    H1 8295   2.105   1.152   3.153 -1.9993 -0.0208  0.2589
 2763TIP3    H2 8296   2.055   1.166   3.295  0.0085  1.3868  0.8742
 2764TIP3   OH2 8297   2.934   5.383   1.557  0.2730 -0.2359  0.8097
 2764TIP3    H1 8298   2.908   5.360   1.646  0.0916  0.8604  1.0581
 2764TIP3    H2 8299   2.876   5.456   1.533  0.4419 -0.3917 -0.1402
 2765TIP3   OH2 8300   1.414   4.618   5.155  0.3640 -0.5071  0.0258
 2765TIP3    H1 8301   1.324   4.650   5.163 -0.2475 -2.3479  1.2424
 2765TIP3    H2 8302   1.440   4.642   5.067 -0.9393  0.9662 -0.0101
 2766TIP3   OH2 8303   5.706   1.989   2.896  0.1604 -0.1431 -0.2231
 2766TIP3    H1 8304   5.728   2.070   2.850 -3.2158  1.6014  0.9284
 2766TIP3    H2 8305   5.768   1.985   2.969  0.3728  1.4187 -0.2769
 2767TIP3   OH2 8306   1.627   5.050   0.727 -0.1223  0.4960  0.1336
 2767TIP3    H1 8307   1.698   5.011   0.676 -0.6343  0.7252 -0.7766
 2767TIP3    H2 8308   1.650   5.143   0.734 -0.6407  0.6997 -0.7239
 2768TIP3   OH2 8309   1.277   1.411   0.321  0.2457 -0.4723 -0.0504
 2768TIP3    H1 8310   1.219   1.427   0.246 -0.7323 -4.0245 -0.2310
 2768TIP3    H2 8311   1.219   1.378   0.389  1.5126  0.1011  1.3573
 2769TIP3   OH2 8312   2.112   5.756   3.625  0.3573 -0.3501 -0.2768
 2769TIP3    H1 8313   2.115   5.670   3.582 -1.9239 -0.5068 -0.2579
 2769TIP3    H2 8314   2.102   5.818   3.554  0.3513 -0.2612 -0.1985
 2770TIP3   OH2 8315   1.643   4.715   3.412 -0.4208 -0.2479  1.0552
 2770TIP3    H1 8316   1.605   4.802   3.395  0.9106  0.1904  0.1058
 2770TIP3    H2 8317   1.708   4.730   3.481  1.2741 -0.0170 -0.4960
 2771TIP3   OH2 8318   3.376   3.508   0.248  0.0504  0.4787  0.0091
 2771TIP3    H1 8319   3.329   3.425   0.258 -0.1397  0.3989 -1.3327
 2771TIP3    H2 8320   3.324   3.557   0.183  0.4229  1.4513  0.4253
 2772TIP3   OH2 8321   5.464   0.287   1.957  0.0185 -0.0504 -0.4837
 2772TIP3    H1 8322   5.416   0.232   2.019 -0.8891  2.2161  0.9129
 2772TIP3    H2 8323   5.554   0.254   1.960 -0.6795 -2.0844 -0.4898
 2773TIP3   OH2 8324   2.647   1.343   3.013  0.7497  0.6963 -0.3643
 2773TIP3    H1 8325   2.577   1.404   3.036  0.5201 -0.2590  1.7668
 2773TIP3    H2 8326   2.615   1.258   3.044  2.3603  0.0462 -0.4013
 2774TIP3   OH2 8327   0.798   5.234   4.767  0.0245 -0.0294  0.8893
 2774TIP3    H1 8328   0.745   5.191   4.700 -0.9334  0.0106  1.5863
 2774TIP3    H2 8329   0.887   5.202   4.752  0.0952  1.0694 -1.2429
 2775TIP3   OH2 8330   5.886   2.658   1.709 -0.0888 -0.9998  0.1137
 2775TIP3    H1 8331   5.867   2.580   1.656  1.1800 -1.7232  0.6709
 2775TIP3    H2 8332   5.953   2.629   1.771  0.9542  0.7300 -0.1324
 2776TIP3   OH2 8333   4.797   4.958   0.025  0.1179 -0.6641  0.0489
 2776TIP3    H1 8334   4.776   4.892   0.091 -0.4645 -0.4228  0.1131
 2776TIP3    H2 8335   4.795   5.041   0.073  1.4303 -0.6502  0.0972
 2777TIP3   OH2 8336   3.541   3.255   0.509 -0.2286  0.3754 -0.0262
 2777TIP3    H1 8337   3.604   3.265   0.581  2.3981 -2.3646 -1.7142
 2777TIP3    H2 8338   3.472   3.200   0.546  1.6661 -1.9818  0.2117
 2778TIP3   OH2 8339   6.006   3.518   4.673 -0.2167  0.3650  0.9270
 2778TIP3    H1 8340   5.928   3.567   4.700 -0.3744  1.2015 -0.8949
 2778TIP3    H2 8341   6.079   3.568   4.709 -0.4633 -0.8344  3.2975
 2779TIP3   OH2 8342   5.206   5.984   1.866  0.4333 -0.0123  0.1328
 2779TIP3    H1 8343   5.161   6.025   1.940 -1.0208 -1.3423  0.0496
 2779TIP3    H2 8344   5.183   5.891   1.873  1.7029 -0.4353 -1.0029
 2780TIP3   OH2 8345   5.986   4.233   4.575  0.0000  0.1928  0.3630
 2780TIP3    H1 8346   5.991   4.317   4.621  2.0024  0.7908 -0.8072
 2780TIP3    H2 8347   6.005   4.255   4.484  1.3097 -1.6057  0.1444
 2781TIP3   OH2 8348   3.601   1.511   1.932  0.1207  0.3629 -0.2187
 2781TIP3    H1 8349   3.649   1.541   2.010 -1.5075  1.3494  0.4593
 2781TIP3    H2 8350   3.604   1.585   1.872  0.1864  0.1094 -0.5311
 2782TIP3   OH2 8351   1.638   1.038   3.522 -0.2516  1.0201 -0.5915
 2782TIP3    H1 8352   1.631   1.083   3.438  0.0357  0.3695 -0.9694
 2782TIP3    H2 8353   1.685   1.099   3.578  1.9660  0.4079 -1.6886
 2783TIP3   OH2 8354   0.970   2.174   4.251 -0.5578 -0.2903 -0.1182
 2783TIP3    H1 8355   0.879   2.164   4.280 -0.5909 -0.5380 -0.2964
 2783TIP3    H2 8356   1.016   2.101   4.293 -0.6234 -0.7003 -0.7410
 2784TIP3   OH2 8357   5.453   5.275   4.739 -0.3998 -0.3355  0.0730
 2784TIP3    H1 8358   5.532   5.289   4.687  1.1403 -2.1386  1.7712
 2784TIP3    H2 8359   5.433   5.182   4.728 -1.1261 -0.3377  1.2237
 2785TIP3   OH2 8360   1.188   5.550   1.425 -0.3713 -0.4870  0.7260
 2785TIP3    H1 8361   1.196   5.534   1.331 -1.5164  1.4056  0.2570
 2785TIP3    H2 8362   1.151   5.638   1.431  0.0203 -0.4329  2.9678
 2786TIP3   OH2 8363   4.605   4.429   2.444 -1.0837 -0.6367  0.4508
 2786TIP3    H1 8364   4.556   4.363   2.395 -1.1077 -0.3974  0.1535
 2786TIP3    H2 8365   4.556   4.438   2.526 -3.0078  1.3843 -0.7948
 2787TIP3   OH2 8366   2.744   5.680   1.983  0.2101 -0.4923 -0.3293
 2787TIP3    H1 8367   2.722   5.750   2.044  0.0650 -1.6375  0.9615
 2787TIP3    H2 8368   2.799   5.722   1.917  0.0847  0.8354  0.3817
 2788TIP3   OH2 8369   5.963   4.990   4.078 -0.3796 -0.0583 -0.6753
 2788TIP3    H1 8370   5.984   5.059   4.015 -1.4576  0.4330 -0.5037
 2788TIP3    H2 8371   5.964   4.909   4.026  2.7765 -0.2445 -0.5338
 2789TIP3   OH2 8372   5.653   2.888   1.239 -0.0577 -0.2759 -0.3488
 2789TIP3    H1 8373   5.712   2.835   1.184  1.7193  2.4125 -1.2084
 2789TIP3    H2 8374   5.679   2.867   1.329 -0.2887 -1.7723 -0.6026
 2790TIP3   OH2 8375   2.857   2.196   2.617  0.1401  0.0645 -0.6324
 2790TIP3    H1 8376   2.933   2.150   2.653 -1.8641 -1.4802  2.0356
 2790TIP3    H2 8377   2.853   2.278   2.665  0.9370  0.8644 -1.8834
 2791TIP3   OH2 8378   0.132   3.761   0.424 -0.7891 -0.3169 -0.1384
 2791TIP3    H1 8379   0.069   3.802   0.364 -1.2503 -0.6917  0.0861
 2791TIP3    H2 8380   0.129   3.815   0.503  0.1023  0.4057 -0.5798
 2792TIP3   OH2 8381   3.924   1.043   2.022  0.6344 -0.3163 -0.0848
 2792TIP3    H1 8382   3.901   0.950   2.021 -0.6065 -0.0346 -0.0944
 2792TIP3    H2 8383   4.017   1.046   2.004  0.4824 -1.5066 -1.1699
 2793TIP3   OH2 8384   3.521   4.314   2.850 -0.0716  0.6170 -0.6079
 2793TIP3    H1 8385   3.510   4.334   2.943 -0.2359  0.2514 -0.5458
 2793TIP3    H2 8386   3.594   4.253   2.847 -0.8998 -0.4003 -0.5822
 2794TIP3   OH2 8387   2.554   2.354   1.158  0.0265 -0.3251  0.1563
 2794TIP3    H1 8388   2.611   2.379   1.230  0.1717  1.4792 -0.5443
 2794TIP3    H2 8389   2.467   2.351   1.196  0.3836 -1.8144  0.9365
 2795TIP3   OH2 8390   6.229   0.817   4.536 -0.2236  0.0381  0.9301
 2795TIP3    H1 8391   6.179   0.838   4.458 -0.1389 -1.7744  0.3445
 2795TIP3    H2 8392   6.317   0.797   4.503 -0.2416 -0.9419  1.4421
 2796TIP3   OH2 8393   1.675   3.722   3.310  0.4508  0.0629 -0.6047
 2796TIP3    H1 8394   1.747   3.772   3.272  0.7349  0.2303  0.1520
 2796TIP3    H2 8395   1.616   3.705   3.236  0.9926  0.3948 -1.1160
 2797TIP3   OH2 8396   2.863   3.313   2.867 -0.2492 -0.1711  0.1003
 2797TIP3    H1 8397   2.782   3.337   2.820 -1.6625 -0.4990  2.2455
 2797TIP3    H2 8398   2.848   3.222   2.894  0.5388 -0.0020  1.1353
 2798TIP3   OH2 8399   1.383   4.908   2.953  0.4453  0.0136  0.1767
 2798TIP3    H1 8400   1.382   4.820   2.917  0.6969 -0.3201  0.9779
 2798TIP3    H2 8401   1.423   4.962   2.884  1.9888 -0.8061  0.3959
 2799TIP3   OH2 8402   2.350   2.258   1.629 -0.2900  0.5980  0.3137
 2799TIP3    H1 8403   2.389   2.228   1.712 -0.5237 -0.7520 -0.0286
 2799TIP3    H2 8404   2.291   2.328   1.654 -1.3099 -0.6117  1.4916
 2800TIP3   OH2 8405   5.550   1.189   4.531 -0.4513  0.2469  0.3539
 2800TIP3    H1 8406   5.510   1.102   4.537 -0.8939  0.3114 -1.2525
 2800TIP3    H2 8407   5.628   1.176   4.478 -0.1464  0.7216  0.6825
 2801TIP3   OH2 8408   3.164   3.935   1.678  0.3924  0.2761 -0.3337
 2801TIP3    H1 8409   3.115   3.857   1.649  3.1483 -1.2568 -1.3039
 2801TIP3    H2 8410   3.121   4.008   1.633 -0.6712 -1.0273 -1.5471
 2802TIP3   OH2 8411   1.492   0.370   0.357  0.2994  0.0430  0.1436
 2802TIP3    H1 8412   1.526   0.457   0.338 -2.7017  1.1646 -0.5889
 2802TIP3    H2 8413   1.569   0.314   0.357  2.1672  2.4379 -0.7808
 2803TIP3   OH2 8414   1.107   4.780   0.690  0.2631  0.6927 -0.2792
 2803TIP3    H1 8415   1.066   4.836   0.624  0.1189  1.8148  0.7352
 2803TIP3    H2 8416   1.163   4.721   0.640 -0.3569  1.0673 -1.4556
 2804TIP3   OH2 8417   0.503   4.709   1.693 -0.5761 -0.2994  0.2197
 2804TIP3    H1 8418   0.481   4.639   1.756  1.0322 -1.3805 -0.3532
 2804TIP3    H2 8419   0.557   4.769   1.743 -0.0660 -0.6741  0.1256
 2805TIP3   OH2 8420   4.012   3.627   1.085 -0.2444  0.2190 -0.1572
 2805TIP3    H1 8421   4.050   3.667   1.164 -0.0939  1.1279 -0.6846
 2805TIP3    H2 8422   4.078   3.639   1.017  0.3462 -2.0450 -0.0569
 2806TIP3   OH2 8423   3.950   3.985   0.063 -0.5683  0.1387  0.2937
 2806TIP3    H1 8424   3.977   3.904   0.019 -0.3754  0.4260 -0.1193
 2806TIP3    H2 8425   3.889   4.026   0.002  0.5466  1.0908 -0.2148
 2807TIP3   OH2 8426   6.332   2.618   2.836  0.0346 -0.3481 -0.1763
 2807TIP3    H1 8427   6.261   2.600   2.899  0.6566  0.2192  0.7069
 2807TIP3    H2 8428   6.358   2.708   2.854 -0.5177  0.2377 -2.0268
 2808TIP3   OH2 8429  -0.021   0.216   2.222 -0.1029  0.0578  0.0377
 2808TIP3    H1 8430  -0.035   0.201   2.129 -0.5655 -0.3425  0.1667
 2808TIP3    H2 8431   0.073   0.232   2.230  0.2224 -1.5030 -0.2972
 2809TIP3   OH2 8432   0.125   3.049   1.970 -0.5221 -0.3071  0.0252
 2809TIP3    H1 8433   0.047   3.046   2.024 -0.6700  1.5567 -0.0148
 2809TIP3    H2 8434   0.111   2.982   1.903 -2.3642  0.3422 -0.3061
 2810TIP3   OH2 8435   1.135   5.428   4.668  0.3144  0.3709 -0.3099
 2810TIP3    H1 8436   1.153   5.345   4.713 -0.9843 -0.2979 -0.9936
 2810TIP3    H2 8437   1.137   5.494   4.738  0.7573 -0.3015  0.3316
 2811TIP3   OH2 8438   0.430   1.966   3.170  0.2780  0.1193 -0.2876
 2811TIP3    H1 8439   0.428   2.048   3.218  0.4725 -0.0352 -0.0073
 2811TIP3    H2 8440   0.463   1.989   3.083 -0.7990  0.5182 -0.5937
 2812TIP3   OH2 8441   4.590   0.353   0.932  0.5209 -0.7196 -0.3049
 2812TIP3    H1 8442   4.502   0.385   0.952  0.1383 -1.3568 -0.9382
 2812TIP3    H2 8443   4.579   0.259   0.919  1.0864 -0.6271 -1.5790
 2813TIP3   OH2 8444   2.708   3.408   0.673  0.0042  0.2147  0.3702
 2813TIP3    H1 8445   2.718   3.314   0.661 -0.9304  0.1591 -0.0634
 2813TIP3    H2 8446   2.773   3.431   0.740 -1.3849 -1.1553  2.2933
 2814TIP3   OH2 8447   6.325   5.145   2.426  0.1984  0.6937  0.5460
 2814TIP3    H1 8448   6.363   5.127   2.340  0.4778  0.0088  0.8022
 2814TIP3    H2 8449   6.232   5.127   2.415 -0.0685  2.2492 -0.0497
 2815TIP3   OH2 8450   1.897   4.102   4.951 -0.0999  0.5166  0.1122
 2815TIP3    H1 8451   1.871   4.184   4.993 -0.6704  1.2407 -1.5697
 2815TIP3    H2 8452   1.944   4.054   5.020 -0.5742  1.8281  1.4137
 2816TIP3   OH2 8453   4.050   4.356   3.915  0.3212 -0.2729  0.2009
 2816TIP3    H1 8454   4.036   4.265   3.889 -1.3380  0.1327 -0.4497
 2816TIP3    H2 8455   3.971   4.401   3.888  0.8268  1.2528  1.1353
 2817TIP3   OH2 8456   1.481   0.227   4.522  0.2004 -0.0075  0.2026
 2817TIP3    H1 8457   1.535   0.206   4.599 -1.0413  1.0456  1.4207
 2817TIP3    H2 8458   1.426   0.150   4.510  1.0522 -0.5621 -0.2482
 2818TIP3   OH2 8459   1.160   5.337   0.484 -0.1624 -0.4973  0.3424
 2818TIP3    H1 8460   1.249   5.354   0.454 -0.1277  0.9216  1.1803
 2818TIP3    H2 8461   1.107   5.407   0.444 -0.9837 -1.5201 -0.4271
 2819TIP3   OH2 8462   2.032   0.417   0.045  0.2396  0.3045  0.3253
 2819TIP3    H1 8463   2.055   0.498  -0.000 -0.2035  0.3089  0.1053
 2819TIP3    H2 8464   2.088   0.351   0.003 -0.6426  0.1837 -0.7182
 2820TIP3   OH2 8465   2.109   4.505   2.519  0.2879  0.4705  0.0522
 2820TIP3    H1 8466   2.066   4.534   2.438  1.4903  0.6923 -0.5264
 2820TIP3    H2 8467   2.118   4.585   2.571  0.2714  0.4709  0.0546
 2821TIP3   OH2 8468   2.350   5.150   0.556 -0.5128  0.0558 -0.0554
 2821TIP3    H1 8469   2.395   5.066   0.563  0.7373  0.6791 -0.2083
 2821TIP3    H2 8470   2.420   5.213   0.537 -1.6272  0.8569 -1.7859
 2822TIP3   OH2 8471   5.656   4.861   2.494 -0.1460 -0.4220 -0.1548
 2822TIP3    H1 8472   5.645   4.775   2.452  1.4720 -1.3629  1.2186
 2822TIP3    H2 8473   5.618   4.850   2.581 -2.3540  1.1346 -0.8383
 2823TIP3   OH2 8474   5.305   4.930   1.938  0.2760 -0.4856 -0.1219
 2823TIP3    H1 8475   5.235   4.948   2.000 -0.8055 -1.8833 -0.8743
 2823TIP3    H2 8476   5.260   4.895   1.861  1.7095 -0.2708 -1.0929
 2824TIP3   OH2 8477   4.927   1.679   2.347  0.0059  0.0339 -0.4762
 2824TIP3    H1 8478   4.970   1.755   2.308 -0.6876 -0.2862 -1.9083
 2824TIP3    H2 8479   4.849   1.664   2.294 -0.0735 -1.4553 -0.0044
 2825TIP3   OH2 8480   3.535   5.665   4.594 -0.4885 -0.1617  0.0996
 2825TIP3    H1 8481   3.585   5.714   4.529  0.8007 -0.7265  0.6452
 2825TIP3    H2 8482   3.587   5.670   4.674 -1.2369 -0.8799  0.6480
 2826TIP3   OH2 8483   3.245   1.887   3.785 -0.1951  0.0261  0.0868
 2826TIP3    H1 8484   3.223   1.796   3.765 -0.8040  0.2628 -0.3571
 2826TIP3    H2 8485   3.262   1.887   3.879 -2.3257 -0.1520  0.5165
 2827TIP3   OH2 8486   2.476   5.686   0.220  0.3412 -0.0483 -0.6567
 2827TIP3    H1 8487   2.531   5.760   0.246 -1.3515  2.0583 -2.6581
 2827TIP3    H2 8488   2.527   5.642   0.152  0.4928  0.6149 -0.9881
 2828TIP3   OH2 8489   4.542   1.144   4.156  0.2253 -0.1879  0.3478
 2828TIP3    H1 8490   4.567   1.208   4.090 -0.5282  1.8470  1.9192
 2828TIP3    H2 8491   4.624   1.118   4.197  0.4007  1.3865  1.0551
 2829TIP3   OH2 8492   5.820   0.828   1.677 -0.2362  0.0378 -0.7786
 2829TIP3    H1 8493   5.835   0.817   1.584 -1.0079 -2.6593 -0.6614
 2829TIP3    H2 8494   5.725   0.843   1.685 -0.3024 -0.5580 -0.3899
 2830TIP3   OH2 8495   5.128   4.159   2.298 -0.3619  0.5034 -0.3435
 2830TIP3    H1 8496   5.146   4.149   2.205 -0.0038  2.4746 -0.5353
 2830TIP3    H2 8497   5.113   4.070   2.330 -1.7405 -0.1276 -2.5175
 2831TIP3   OH2 8498   4.524   3.405   1.689  0.4750 -0.5207 -0.0648
 2831TIP3    H1 8499   4.476   3.477   1.648  1.5856 -0.6216 -1.6520
 2831TIP3    H2 8500   4.457   3.355   1.736 -1.3450 -1.4921 -3.3545
 2832TIP3   OH2 8501   2.031   2.544   0.441  0.0138 -0.7670 -0.8190
 2832TIP3    H1 8502   2.066   2.467   0.486  0.4626 -0.9799 -1.5112
 2832TIP3    H2 8503   2.037   2.522   0.348  0.3019  0.1667 -1.0325
 2833TIP3   OH2 8504   2.100   1.542   0.864  0.0123 -0.2566 -0.2402
 2833TIP3    H1 8505   2.070   1.631   0.883 -1.0643 -0.6858  0.1041
 2833TIP3    H2 8506   2.163   1.523   0.934  1.4390  0.7759 -1.1680
 2834TIP3   OH2 8507   5.963   5.370   5.056 -0.0462 -0.0142  0.1603
 2834TIP3    H1 8508   6.017   5.325   4.990 -2.1611 -0.7414 -1.1976
 2834TIP3    H2 8509   5.983   5.325   5.138  1.8373  0.1652 -0.1601
 2835TIP3   OH2 8510   0.767   2.215   0.915  0.6161 -0.2118 -0.1426
 2835TIP3    H1 8511   0.740   2.305   0.928 -2.2647 -0.8459 -1.0010
 2835TIP3    H2 8512   0.862   2.220   0.899  0.8444  2.4191  1.4691
 2836TIP3   OH2 8513   5.989   4.995   3.455 -0.3088  0.1574  0.1207
 2836TIP3    H1 8514   5.982   5.053   3.380 -1.2903 -0.7715 -0.5330
 2836TIP3    H2 8515   6.064   4.939   3.435 -0.5074 -0.0219 -0.1175
 2837TIP3   OH2 8516   4.564   1.919   3.281 -0.6808  0.2140  0.8627
 2837TIP3    H1 8517   4.482   1.884   3.247 -0.9617 -0.6028  2.2831
 2837TIP3    H2 8518   4.568   2.008   3.248 -1.0942 -0.4077 -0.9416
 2838TIP3   OH2 8519   1.179   0.244   3.661 -0.0185  0.1735 -0.0602
 2838TIP3    H1 8520   1.123   0.192   3.604  1.8549 -0.4452 -1.4667
 2838TIP3    H2 8521   1.177   0.332   3.623 -1.1159  0.5167  0.7481
 2839TIP3   OH2 8522   0.457   0.367   3.013 -0.4302 -0.2275  0.4325
 2839TIP3    H1 8523   0.452   0.274   3.036 -0.4189 -0.2913  0.1847
 2839TIP3    H2 8524   0.425   0.371   2.923 -0.7279  0.0533  0.5498
 2840TIP3   OH2 8525   4.654   2.735   3.461  0.0252 -0.6695 -0.2740
 2840TIP3    H1 8526   4.635   2.646   3.432 -0.3103 -1.1990  1.4575
 2840TIP3    H2 8527   4.571   2.782   3.455  0.0443 -0.6649 -0.5123
 2841TIP3   OH2 8528   1.856   4.432   0.403  0.5572  0.0851 -0.3898
 2841TIP3    H1 8529   1.899   4.351   0.432 -0.3788 -1.2785 -2.5093
 2841TIP3    H2 8530   1.892   4.500   0.459  0.2312 -2.0060  2.6002
 2842TIP3   OH2 8531   3.198   5.025   3.527 -0.1140 -0.1364 -0.3624
 2842TIP3    H1 8532   3.275   5.022   3.470  0.5905 -0.5041  0.5830
 2842TIP3    H2 8533   3.129   4.981   3.476  0.8515 -1.6644 -0.4166
 2843TIP3   OH2 8534   4.605   3.708   4.337  0.3186  0.2472 -0.3032
 2843TIP3    H1 8535   4.551   3.633   4.358 -1.0759  1.8015  2.1478
 2843TIP3    H2 8536   4.569   3.780   4.389  1.7156  2.6023 -2.3120
 2844TIP3   OH2 8537   6.128   5.927   4.124 -0.6127 -0.6090 -0.3553
 2844TIP3    H1 8538   6.198   5.893   4.180 -1.5084 -1.6415  0.1827
 2844TIP3    H2 8539   6.173   5.983   4.061  0.9135 -2.4870 -1.0334
 2845TIP3   OH2 8540   6.059   3.990   4.360  0.0323 -0.0843  0.0362
 2845TIP3    H1 8541   6.084   4.004   4.451 -1.4951 -0.1997  0.5022
 2845TIP3    H2 8542   6.011   3.907   4.361  0.0645 -0.1297 -0.9026
 2846TIP3   OH2 8543   2.480   5.880   1.995  0.0140 -0.9740  0.1502
 2846TIP3    H1 8544   2.513   5.810   1.939 -2.9065 -0.6333 -2.2247
 2846TIP3    H2 8545   2.434   5.834   2.066  0.9804 -1.3794  0.5491
 2847TIP3   OH2 8546   2.001   2.869   4.163  0.7761 -0.5449 -0.2971
 2847TIP3    H1 8547   1.938   2.844   4.231  1.1689  1.7255  0.9757
 2847TIP3    H2 8548   2.080   2.819   4.184  0.6333 -0.4779  0.4337
 2848TIP3   OH2 8549   5.310   1.119   1.771  0.7024  0.3784  0.0980
 2848TIP3    H1 8550   5.262   1.088   1.847  0.6871 -1.1690 -0.5153
 2848TIP3    H2 8551   5.245   1.169   1.721  0.2501 -0.0597  0.2384
 2849TIP3   OH2 8552   6.195   1.684   2.511  0.2644  0.4295 -0.9601
 2849TIP3    H1 8553   6.241   1.661   2.592  0.4805  1.8923 -0.6315
 2849TIP3    H2 8554   6.249   1.648   2.441  0.5842 -0.0196 -0.4890
 2850TIP3   OH2 8555   4.200   2.784   4.010  0.0931  0.6735  0.0574
 2850TIP3    H1 8556   4.278   2.834   4.034 -0.2057  1.1520  0.0224
 2850TIP3    H2 8557   4.143   2.789   4.087 -0.0220  0.5552 -0.0187
 2851TIP3   OH2 8558   4.846   5.462   3.850  0.0687 -0.2539  0.5032
 2851TIP3    H1 8559   4.761   5.494   3.880  0.4426  0.4581  0.8122
 2851TIP3    H2 8560   4.824   5.399   3.782 -0.6812  1.1051 -0.5723
 2852TIP3   OH2 8561   5.027   1.820   2.577 -0.2130  0.2258 -0.0023
 2852TIP3    H1 8562   4.994   1.906   2.605 -0.8506  0.0257 -0.1152
 2852TIP3    H2 8563   4.963   1.790   2.513 -0.0707 -0.4057  0.1475
 2853TIP3   OH2 8564   3.136   3.580   4.337 -0.5060 -0.0827  0.0661
 2853TIP3    H1 8565   3.103   3.530   4.262 -1.0488 -1.4407  1.1499
 2853TIP3    H2 8566   3.142   3.515   4.408  1.9757  0.6836  0.6590
 2854TIP3   OH2 8567   1.484   3.877   3.717 -0.5523 -0.3205 -0.4204
 2854TIP3    H1 8568   1.531   3.906   3.639  0.2632  0.6010  0.3806
 2854TIP3    H2 8569   1.521   3.929   3.788 -1.1096 -1.2981  0.6272
 2855TIP3   OH2 8570   5.253   1.116   3.388 -0.0422 -0.2694 -0.4019
 2855TIP3    H1 8571   5.262   1.161   3.472  2.3230  0.7168 -1.0854
 2855TIP3    H2 8572   5.192   1.045   3.404 -1.2854  1.1495  1.6036
 2856TIP3   OH2 8573   0.373   1.179   4.706 -0.3928  0.4654 -0.4231
 2856TIP3    H1 8574   0.431   1.106   4.686 -0.4628  0.3434 -0.1886
 2856TIP3    H2 8575   0.378   1.188   4.802 -1.9913 -0.5864 -0.2036
 2857TIP3   OH2 8576   5.169   1.307   0.633 -0.0775  0.1328 -0.1180
 2857TIP3    H1 8577   5.251   1.308   0.585 -0.7001  0.6516 -1.1925
 2857TIP3    H2 8578   5.121   1.233   0.596  1.1457 -2.2908  2.7257
 2858TIP3   OH2 8579   3.208   4.894   1.292  0.5508  0.3646 -0.0601
 2858TIP3    H1 8580   3.178   4.982   1.268 -1.8010 -0.4979 -0.5707
 2858TIP3    H2 8581   3.285   4.879   1.238 -0.0646  1.4623 -1.2937
 2859TIP3   OH2 8582   1.172   4.761   5.031 -0.3164 -0.2444 -0.0351
 2859TIP3    H1 8583   1.209   4.823   4.968  0.9361  0.0723  0.9759
 2859TIP3    H2 8584   1.158   4.681   4.979  0.0652  0.2111 -0.8701
 2860TIP3   OH2 8585   0.957   2.591   3.412 -0.4549 -0.1468  0.0528
 2860TIP3    H1 8586   0.938   2.579   3.319 -1.9840 -0.4776  0.3787
 2860TIP3    H2 8587   1.003   2.511   3.438 -0.4004 -0.2386 -0.3164
 2861TIP3   OH2 8588   4.230   4.876   0.995  0.1373  0.6354 -0.1631
 2861TIP3    H1 8589   4.220   4.801   1.054  0.3827  1.1053  0.4881
 2861TIP3    H2 8590   4.140   4.903   0.976  0.0576  0.5129  0.0381
 2862TIP3   OH2 8591   1.231   4.676   0.186 -0.2831 -0.1312  0.1072
 2862TIP3    H1 8592   1.262   4.741   0.123 -0.7625  0.6761  0.6881
 2862TIP3    H2 8593   1.139   4.662   0.162 -0.0811 -0.8613 -0.2396
 2863TIP3   OH2 8594   1.539   0.516   4.576 -0.2744  0.3823  0.0815
 2863TIP3    H1 8595   1.500   0.433   4.548  0.3432  0.3165 -0.6281
 2863TIP3    H2 8596   1.607   0.534   4.511 -0.4840  1.5193  0.1457
 2864TIP3   OH2 8597   1.269   5.333   1.014  0.4253  0.0325 -0.3819
 2864TIP3    H1 8598   1.300   5.290   0.934  0.2566  1.3743 -1.2039
 2864TIP3    H2 8599   1.177   5.308   1.021  0.3940  0.0523 -0.7098
 2865TIP3   OH2 8600   2.503   2.721   3.812 -0.4433  0.3604  0.4916
 2865TIP3    H1 8601   2.442   2.658   3.775 -0.1621  0.2309  0.2464
 2865TIP3    H2 8602   2.452   2.767   3.879 -0.5780 -0.2829  0.8385
 2866TIP3   OH2 8603   5.184   5.257   1.761  0.2355 -0.2785 -0.2187
 2866TIP3    H1 8604   5.229   5.195   1.703 -0.7527 -1.9762  0.7316
 2866TIP3    H2 8605   5.139   5.317   1.702 -1.2110 -2.2926 -1.2993
 2867TIP3   OH2 8606   2.940   5.181   0.871 -0.2282 -0.2776  0.3454
 2867TIP3    H1 8607   2.879   5.252   0.891 -0.2458 -0.1664 -0.1121
 2867TIP3    H2 8608   3.024   5.224   0.855 -0.0442 -0.4230  0.8715
 2868TIP3   OH2 8609   3.559   5.632   3.336 -0.5828 -0.4635  0.8985
 2868TIP3    H1 8610   3.523   5.563   3.280 -1.5221 -0.7339  1.7966
 2868TIP3    H2 8611   3.481   5.676   3.371  0.0035  0.6174  0.8711
 2869TIP3   OH2 8612   2.713   1.818   0.776  0.6353  0.0686 -0.5323
 2869TIP3    H1 8613   2.649   1.843   0.843  0.7651  1.1011 -0.7850
 2869TIP3    H2 8614   2.727   1.725   0.791  0.1250  0.1304  0.4240
 2870TIP3   OH2 8615   4.598   3.997   2.253 -0.1487 -0.4305  0.4571
 2870TIP3    H1 8616   4.642   4.001   2.168  0.8722  1.1009  1.0203
 2870TIP3    H2 8617   4.597   3.904   2.275  0.2920 -0.7609 -0.8564
 2871TIP3   OH2 8618   0.348   3.452   3.883 -0.2680 -0.2805  0.0363
 2871TIP3    H1 8619   0.423   3.457   3.942  0.0804  0.3088 -0.4496
 2871TIP3    H2 8620   0.385   3.458   3.795 -0.9872  1.5541 -0.1772
 2872TIP3   OH2 8621   4.740   3.706   3.320  0.2848  0.1495  0.4038
 2872TIP3    H1 8622   4.809   3.657   3.276 -0.5406 -0.0792 -0.6605
 2872TIP3    H2 8623   4.779   3.793   3.335 -0.1282  1.0814 -2.9699
 2873TIP3   OH2 8624   3.620   4.451   4.173  0.2528  0.2340 -0.3335
 2873TIP3    H1 8625   3.564   4.462   4.096  1.2991 -0.8306 -1.3031
 2873TIP3    H2 8626   3.566   4.478   4.247 -0.9482  0.8328 -1.3938
 2874TIP3   OH2 8627   2.745   5.571   0.415 -0.6419  0.0350  0.3217
 2874TIP3    H1 8628   2.795   5.646   0.382  1.1568 -0.6860  1.2802
 2874TIP3    H2 8629   2.657   5.606   0.429  0.0544  1.8764  0.4195
 2875TIP3   OH2 8630   6.019   3.802   3.115 -0.5162 -0.5456 -0.1902
 2875TIP3    H1 8631   6.099   3.750   3.110 -0.0463  0.0778  0.5038
 2875TIP3    H2 8632   6.039   3.883   3.069 -0.3582  0.0700  0.9285
 2876TIP3   OH2 8633   2.058   0.993   0.463  0.4055 -0.2163 -0.2589
 2876TIP3    H1 8634   1.981   0.995   0.407  0.2541 -0.1639 -0.0512
 2876TIP3    H2 8635   2.024   1.011   0.551  0.9848  2.7199 -0.5275
 2877TIP3   OH2 8636   5.858   1.251   1.742 -0.3941  0.0269 -0.4416
 2877TIP3    H1 8637   5.889   1.175   1.790  1.5823  1.8443  1.3759
 2877TIP3    H2 8638   5.910   1.252   1.661 -0.0180 -0.2260 -0.2051
 2878TIP3   OH2 8639   5.759   1.778   3.652 -0.4488 -0.1051  0.0015
 2878TIP3    H1 8640   5.670   1.755   3.679 -0.4380 -1.9457 -1.3126
 2878TIP3    H2 8641   5.794   1.697   3.616  1.5207  0.7760 -0.1651
 2879TIP3   OH2 8642   2.142   5.015   3.989  0.0686  0.2615  0.2351
 2879TIP3    H1 8643   2.106   5.095   3.950  0.2579  0.9370  1.4077
 2879TIP3    H2 8644   2.109   5.016   4.079  0.1882 -0.9182  0.3042
 2880TIP3   OH2 8645   4.173   3.980   0.805 -0.6164  0.4308 -0.2410
 2880TIP3    H1 8646   4.141   4.064   0.771  0.4872  1.0224  0.1442
 2880TIP3    H2 8647   4.119   3.965   0.883 -0.2931  1.1950  0.1452
 2881TIP3   OH2 8648   1.086   2.339   3.889 -0.5665  0.0747 -0.2873
 2881TIP3    H1 8649   1.057   2.248   3.896 -0.3545  0.0711  0.6923
 2881TIP3    H2 8650   1.064   2.378   3.974  3.3541 -0.2587  1.1037
 2882TIP3   OH2 8651   1.597   4.070   3.120 -0.2167  0.4980  0.4633
 2882TIP3    H1 8652   1.570   3.997   3.064  3.7028 -1.5991  0.9380
 2882TIP3    H2 8653   1.609   4.143   3.060  0.7197 -0.7677 -0.9772
 2883TIP3   OH2 8654   3.688   2.341   2.955 -0.1286  0.1071 -0.2339
 2883TIP3    H1 8655   3.642   2.257   2.946 -1.0158  0.7401 -2.1824
 2883TIP3    H2 8656   3.777   2.323   2.923 -0.0368 -0.3042  0.2455
 2884TIP3   OH2 8657   1.759   2.484   2.533  0.0966 -0.0103 -0.3120
 2884TIP3    H1 8658   1.852   2.504   2.523  0.0825 -0.1789 -0.8220
 2884TIP3    H2 8659   1.757   2.406   2.589  0.2643 -0.0080 -0.3022
 2885TIP3   OH2 8660   3.749   1.727   1.735  0.2581 -0.5281  0.1260
 2885TIP3    H1 8661   3.692   1.726   1.658  1.2789 -0.7995 -0.6536
 2885TIP3    H2 8662   3.764   1.819   1.753  0.6787 -0.4600 -0.5295
 2886TIP3   OH2 8663   5.926   2.245   2.519  0.2107  0.6624 -0.1803
 2886TIP3    H1 8664   6.014   2.207   2.524  0.8961  2.0433 -0.8709
 2886TIP3    H2 8665   5.940   2.338   2.536 -1.0909  0.9445 -0.5582
 2887TIP3   OH2 8666   2.056   3.698   1.474 -1.3314 -0.5434  0.2362
 2887TIP3    H1 8667   2.091   3.662   1.556  0.5208  1.4789  0.4480
 2887TIP3    H2 8668   2.010   3.777   1.501  0.6032  0.9933 -0.7254
 2888TIP3   OH2 8669   3.813   1.444   1.447  0.2344  0.0356  0.5155
 2888TIP3    H1 8670   3.723   1.466   1.469  0.0607  0.3633 -0.4855
 2888TIP3    H2 8671   3.853   1.528   1.422  0.2106 -0.3981 -1.0908
 2889TIP3   OH2 8672   5.783   2.044   4.013  0.7607  0.0513 -0.3240
 2889TIP3    H1 8673   5.783   1.958   4.053  1.6203  0.8520  1.5309
 2889TIP3    H2 8674   5.695   2.078   4.029  0.7151 -0.1142 -0.2255
 2890TIP3   OH2 8675   2.270   5.231   1.424  0.3381 -0.1395  0.0335
 2890TIP3    H1 8676   2.246   5.239   1.517 -1.5287  1.6634 -0.5487
 2890TIP3    H2 8677   2.195   5.187   1.384 -0.5803  2.3644 -1.1987
 2891TIP3   OH2 8678   5.401   2.132   3.340  0.3669 -0.2146  0.5768
 2891TIP3    H1 8679   5.454   2.089   3.273  0.9881  0.9232  0.3064
 2891TIP3    H2 8680   5.383   2.219   3.304 -1.0497 -0.3175  0.9993
 2892TIP3   OH2 8681   3.352   5.266   3.317 -0.2338  0.3281  0.1128
 2892TIP3    H1 8682   3.404   5.276   3.396  0.4830  0.6201 -0.3856
 2892TIP3    H2 8683   3.402   5.204   3.263 -0.3546  0.6777 -0.4051
 2893TIP3   OH2 8684   3.662   4.971   1.834 -0.2276  0.0683 -0.5079
 2893TIP3    H1 8685   3.693   4.881   1.829  0.6642  0.3678 -0.4498
 2893TIP3    H2 8686   3.734   5.024   1.800 -1.6043  0.6074 -2.8596
 2894TIP3   OH2 8687   0.109   4.456   1.944  0.1624  0.7790  0.1521
 2894TIP3    H1 8688   0.120   4.458   2.040  0.5023 -0.1418  0.1518
 2894TIP3    H2 8689   0.130   4.365   1.921 -0.7141  0.7859 -0.7075
 2895TIP3   OH2 8690   0.927   1.173   3.517  0.5048 -0.4764  0.4707
 2895TIP3    H1 8691   0.901   1.207   3.603 -0.1524 -1.7781  0.8233
 2895TIP3    H2 8692   0.850   1.125   3.487  0.4435  0.6231 -1.2238
 2896TIP3   OH2 8693   0.543   4.117   4.419 -0.3418 -0.2834  0.0395
 2896TIP3    H1 8694   0.561   4.176   4.345 -1.3332  0.7847  0.6128
 2896TIP3    H2 8695   0.527   4.176   4.493  0.5296 -1.3268  1.0954
 2897TIP3   OH2 8696   2.905   1.427   1.259  0.2106  0.5345 -0.3376
 2897TIP3    H1 8697   2.891   1.522   1.262 -1.5718  0.2995 -0.2695
 2897TIP3    H2 8698   2.905   1.400   1.351  1.2984  0.5213 -0.3273
 2898TIP3   OH2 8699   4.148   0.195   1.049  0.2699 -0.3044  0.2356
 2898TIP3    H1 8700   4.122   0.286   1.040  3.0607  0.6865  1.1404
 2898TIP3    H2 8701   4.161   0.165   0.959  1.1707  0.8233 -0.0290
 2899TIP3   OH2 8702   4.975   1.028   4.997  0.4128  0.2597 -0.2312
 2899TIP3    H1 8703   4.981   0.952   4.940  2.1624  0.6362 -0.6243
 2899TIP3    H2 8704   4.881   1.042   5.011  0.0562 -1.6198 -0.5872
 2900TIP3   OH2 8705   3.897   0.242   4.612 -0.1908 -0.1520  0.5791
 2900TIP3    H1 8706   3.946   0.299   4.554 -1.8759  0.5878 -0.1752
 2900TIP3    H2 8707   3.826   0.296   4.646 -1.2237 -1.4909  0.6722
 2901TIP3   OH2 8708   4.776   1.031   1.579  0.0424 -0.3276  0.7979
 2901TIP3    H1 8709   4.835   0.998   1.647  0.3272 -0.7752  0.3362
 2901TIP3    H2 8710   4.777   0.964   1.511 -1.1276 -0.4274  0.8447
 2902TIP3   OH2 8711   4.808   2.269   2.026 -0.2250  0.4307  0.2808
 2902TIP3    H1 8712   4.752   2.309   2.093 -1.1539 -2.1973  1.2037
 2902TIP3    H2 8713   4.747   2.227   1.966  0.6523 -1.2148  0.4596
 2903TIP3   OH2 8714   2.535   1.494   4.237  0.0859  0.3646  0.0337
 2903TIP3    H1 8715   2.559   1.444   4.159 -0.4942 -1.0392  0.7208
 2903TIP3    H2 8716   2.567   1.582   4.219  2.5644 -0.5780 -0.5533
 2904TIP3   OH2 8717   5.782   2.853   1.856 -0.1862  0.2683  0.2517
 2904TIP3    H1 8718   5.816   2.788   1.795 -1.7170  0.4611 -0.8788
 2904TIP3    H2 8719   5.697   2.819   1.883 -0.4045  1.1409  0.7152
 2905TIP3   OH2 8720   1.331   3.370   1.458 -0.2076 -0.8018 -0.1370
 2905TIP3    H1 8721   1.398   3.367   1.526 -1.2175 -1.6221  0.8531
 2905TIP3    H2 8722   1.338   3.285   1.413  1.3995  0.2501 -2.0577
 2906TIP3   OH2 8723   4.476   2.173   2.682 -0.3999 -0.1621 -0.0966
 2906TIP3    H1 8724   4.403   2.128   2.640 -0.4424  0.7785 -1.0709
 2906TIP3    H2 8725   4.545   2.107   2.687 -1.1592 -0.9331  0.4376
 2907TIP3   OH2 8726   5.050   3.883   2.384  0.1817  0.0259  0.2796
 2907TIP3    H1 8727   4.970   3.871   2.435 -0.4057 -1.5906 -0.9389
 2907TIP3    H2 8728   5.020   3.883   2.293  1.5556 -0.5412 -0.1894
 2908TIP3   OH2 8729   0.182   2.024   4.497  0.3777 -0.5441  0.2243
 2908TIP3    H1 8730   0.185   1.935   4.462  1.2143 -0.5209  0.2100
 2908TIP3    H2 8731   0.172   2.080   4.419 -0.8849 -0.6510  0.2894
 2909TIP3   OH2 8732   3.826   1.694   2.067  0.1946 -0.1736 -0.3437
 2909TIP3    H1 8733   3.743   1.711   2.112  0.4656  0.7023 -0.1551
 2909TIP3    H2 8734   3.851   1.779   2.030 -0.1755 -0.9290 -2.4428
 2910TIP3   OH2 8735   2.298   4.750   1.224  0.0612  0.7395 -0.3027
 2910TIP3    H1 8736   2.325   4.841   1.214 -0.6303  1.1364  1.1156
 2910TIP3    H2 8737   2.208   4.755   1.258  0.5046 -0.4100  1.1710
 2911TIP3   OH2 8738   5.224   3.628   1.063 -0.9489 -0.4082  0.0485
 2911TIP3    H1 8739   5.203   3.681   0.986  0.5554  1.3511  0.7823
 2911TIP3    H2 8740   5.161   3.656   1.130 -0.4094  0.1562  0.3185
 2912TIP3   OH2 8741   0.085   3.342   3.691 -0.2095 -0.6107 -0.3710
 2912TIP3    H1 8742   0.113   3.258   3.727  0.3821 -0.5658 -0.6992
 2912TIP3    H2 8743   0.160   3.371   3.638  0.0434  0.6523  0.6154
 2913TIP3   OH2 8744   6.178   1.891   1.430 -0.1274 -0.0513 -0.6479
 2913TIP3    H1 8745   6.219   1.861   1.511  0.3609  0.0652 -0.8498
 2913TIP3    H2 8746   6.117   1.821   1.407 -1.3049  0.5388  0.5606
 2914TIP3   OH2 8747   4.620   0.114   5.026 -0.1824  0.1299  0.2633
 2914TIP3    H1 8748   4.540   0.160   5.001 -0.9916 -0.0581  2.3399
 2914TIP3    H2 8749   4.590   0.042   5.081  1.3603 -0.4667  0.3696
 2915TIP3   OH2 8750   5.136   4.625   3.813  0.4579  0.6071 -0.0817
 2915TIP3    H1 8751   5.047   4.597   3.794  1.3645 -1.9972 -0.9681
 2915TIP3    H2 8752   5.141   4.626   3.909 -0.8983  2.3777  0.0273
 2916TIP3   OH2 8753   5.414   5.786   1.107  0.1783  0.3614  0.0193
 2916TIP3    H1 8754   5.465   5.852   1.154  0.6029  0.7898 -1.0016
 2916TIP3    H2 8755   5.479   5.727   1.069 -0.2235 -1.3484  1.8271
 2917TIP3   OH2 8756   1.700   4.738   1.715 -0.1705  0.6843 -0.4717
 2917TIP3    H1 8757   1.753   4.660   1.734 -1.0164 -0.8212 -3.5768
 2917TIP3    H2 8758   1.756   4.792   1.660 -0.1702  1.5380  0.3416
 2918TIP3   OH2 8759   1.283   3.961   0.903  0.3154  0.1443 -0.5702
 2918TIP3    H1 8760   1.247   4.011   0.977  1.3800  0.8619 -0.5085
 2918TIP3    H2 8761   1.313   3.879   0.942 -0.4529 -0.0974 -0.4749
 2919TIP3   OH2 8762   4.789   2.677   4.448  0.1981  0.4525  0.4141
 2919TIP3    H1 8763   4.734   2.629   4.510  0.5231 -0.0825  0.2941
 2919TIP3    H2 8764   4.800   2.763   4.488 -0.1569  0.3353  0.7716
 2920TIP3   OH2 8765   3.249   4.047   5.028  0.6122  0.9451  0.8428
 2920TIP3    H1 8766   3.178   3.985   5.038  0.8080  0.9125  2.2964
 2920TIP3    H2 8767   3.254   4.064   4.934 -0.0798 -0.4702  0.5286
 2921TIP3   OH2 8768   1.554   4.033   0.188  0.4822 -0.2140  0.1550
 2921TIP3    H1 8769   1.548   4.036   0.283 -0.7343  0.3300  0.0812
 2921TIP3    H2 8770   1.633   4.084   0.167  0.2209  0.4908  0.8348
 2922TIP3   OH2 8771   6.202   4.009   1.784  0.4369 -0.3775 -0.2344
 2922TIP3    H1 8772   6.189   3.983   1.693 -1.7602  1.1221 -0.4203
 2922TIP3    H2 8773   6.121   4.054   1.808  1.0511 -0.5227  2.4013
 2923TIP3   OH2 8774   1.017   4.836   4.025 -0.3133 -0.4951  0.5988
 2923TIP3    H1 8775   1.059   4.896   3.963 -1.5074 -1.7521 -1.5538
 2923TIP3    H2 8776   0.923   4.850   4.011 -0.6111 -0.9025  2.0838
 2924TIP3   OH2 8777   5.416   2.846   3.529  0.2321  0.1263  0.0128
 2924TIP3    H1 8778   5.420   2.752   3.515  0.0935  0.3539 -1.7947
 2924TIP3    H2 8779   5.486   2.882   3.474 -1.0840  1.1992 -1.0462
 2925TIP3   OH2 8780   2.046   2.008   3.821 -0.3058  0.1044  0.9888
 2925TIP3    H1 8781   1.980   2.044   3.880 -0.5646  1.2502  0.0362
 2925TIP3    H2 8782   1.999   1.943   3.769 -0.7575  1.0583  0.1781
 2926TIP3   OH2 8783   2.276   5.587   2.356 -0.1457 -0.4004 -0.3257
 2926TIP3    H1 8784   2.285   5.654   2.288  0.0839  0.9892  1.0103
 2926TIP3    H2 8785   2.190   5.604   2.395 -0.1071 -0.9298  0.0032
 2927TIP3   OH2 8786   0.143   1.716   1.012  0.7149  0.3920 -0.3725
 2927TIP3    H1 8787   0.072   1.729   1.074  1.9243  2.1066  0.7702
 2927TIP3    H2 8788   0.171   1.626   1.026 -0.5657  0.0106 -0.1419
 2928TIP3   OH2 8789   1.102   5.439   1.839 -0.5475  0.0073  0.1696
 2928TIP3    H1 8790   1.062   5.423   1.754  0.4673  0.2616 -0.3714
 2928TIP3    H2 8791   1.150   5.521   1.828 -0.3144 -0.0163  0.9523
 2929TIP3   OH2 8792   6.226   1.540   4.602 -0.7829  0.0098  0.2808
 2929TIP3    H1 8793   6.190   1.492   4.676  1.5133  1.0314  2.2198
 2929TIP3    H2 8794   6.301   1.588   4.639 -1.1539  2.7404 -2.1375
 2930TIP3   OH2 8795   4.616   4.550   4.249 -0.2601 -0.1734 -0.0439
 2930TIP3    H1 8796   4.675   4.506   4.311  1.0835  0.6930 -0.6496
 2930TIP3    H2 8797   4.606   4.638   4.286 -0.6915 -0.1333 -0.2636
 2931TIP3   OH2 8798   5.541   0.296   4.997  0.4144  0.1554  0.2197
 2931TIP3    H1 8799   5.572   0.293   4.907  0.4983  0.3762  0.2416
 2931TIP3    H2 8800   5.621   0.300   5.050  0.4608 -1.9025  0.4039
 2932TIP3   OH2 8801   4.580   4.367   2.052 -0.2758 -0.2268  0.0533
 2932TIP3    H1 8802   4.584   4.449   2.101 -0.8035 -0.8016  1.0791
 2932TIP3    H2 8803   4.664   4.325   2.067 -0.0651  0.0420 -0.3458
 2933TIP3   OH2 8804   4.643   5.456   1.176 -0.4335 -0.1041  0.1155
 2933TIP3    H1 8805   4.677   5.504   1.100  1.5185 -0.7159  0.5258
 2933TIP3    H2 8806   4.721   5.436   1.228 -1.6537 -0.1546  2.0388
 2934TIP3   OH2 8807   2.797   2.516   1.058 -0.2933  0.0565 -0.5826
 2934TIP3    H1 8808   2.793   2.441   1.116  1.6404  0.4737  0.1622
 2934TIP3    H2 8809   2.739   2.581   1.097  1.6367  0.6619  1.4619
 2935TIP3   OH2 8810   5.493   3.379   0.645  0.0328 -0.3005 -0.1247
 2935TIP3    H1 8811   5.445   3.391   0.727 -0.1471  1.1118 -0.4197
 2935TIP3    H2 8812   5.426   3.349   0.583 -0.2579  0.5712 -0.2485
 2936TIP3   OH2 8813   5.580   4.316   1.491  0.7056 -0.1789 -0.2575
 2936TIP3    H1 8814   5.494   4.288   1.523  0.4787  0.6313 -0.1455
 2936TIP3    H2 8815   5.627   4.234   1.477 -0.2511 -0.6529 -0.8058
 2937TIP3   OH2 8816   5.428   5.002   4.657 -0.1136 -0.0082  0.0552
 2937TIP3    H1 8817   5.479   5.006   4.576  0.7893  0.8428  0.6371
 2937TIP3    H2 8818   5.407   4.909   4.668  2.1601 -0.5701  0.2831
 2938TIP3   OH2 8819   1.003   5.562   5.086 -0.2952  0.0117  0.7328
 2938TIP3    H1 8820   1.003   5.658   5.097  1.2120  0.1560 -0.2246
 2938TIP3    H2 8821   0.933   5.545   5.024  1.4071  0.8842 -1.5566
 2939TIP3   OH2 8822   3.312   1.492   2.721  0.0972 -0.4583 -0.0681
 2939TIP3    H1 8823   3.227   1.529   2.745  0.9558  0.8982  0.9880
 2939TIP3    H2 8824   3.347   1.552   2.655  1.5859  0.8225  1.8000
 2940TIP3   OH2 8825   5.859   2.492   0.534  0.6191 -0.4217 -0.3668
 2940TIP3    H1 8826   5.927   2.533   0.480  2.1117 -1.5694  0.5688
 2940TIP3    H2 8827   5.800   2.450   0.471 -1.9683  4.2727 -1.5473
 2941TIP3   OH2 8828   5.926   3.166   1.543 -0.2923  0.1232  0.1891
 2941TIP3    H1 8829   5.845   3.147   1.591 -2.1555  0.2410 -2.6645
 2941TIP3    H2 8830   5.914   3.254   1.508  1.3183  0.3349  0.0877
 2942TIP3   OH2 8831   2.887   0.910   3.100 -0.2008  0.3958 -0.6792
 2942TIP3    H1 8832   2.952   0.921   3.032 -0.0245  0.0850 -0.5625
 2942TIP3    H2 8833   2.931   0.859   3.168 -0.3054  0.8797 -0.2373
 2943TIP3   OH2 8834   1.046   2.454   2.670 -0.0666  0.5796  0.0184
 2943TIP3    H1 8835   1.130   2.449   2.625  0.8896 -2.1825  1.7745
 2943TIP3    H2 8836   1.068   2.485   2.758 -0.8580 -0.1136  0.4810
 2944TIP3   OH2 8837   5.432   4.183   3.099  0.0579  0.4031  0.3598
 2944TIP3    H1 8838   5.375   4.254   3.129 -1.2849 -0.4804 -0.0265
 2944TIP3    H2 8839   5.380   4.103   3.110  1.4294 -0.5094  0.5262
 2945TIP3   OH2 8840   2.931   5.604   4.328 -0.7462  0.2184 -0.0569
 2945TIP3    H1 8841   2.963   5.681   4.281 -1.8526  0.2099 -0.8580
 2945TIP3    H2 8842   3.008   5.547   4.336 -0.2894  0.7046 -0.8834
 2946TIP3   OH2 8843   6.117   5.303   4.501  0.0634 -0.1832 -0.3002
 2946TIP3    H1 8844   6.200   5.350   4.495  0.8754 -1.7531 -2.7006
 2946TIP3    H2 8845   6.124   5.232   4.437 -3.0166 -0.5761 -0.3682
 2947TIP3   OH2 8846   3.253   1.705   1.871 -0.1277 -0.6347 -0.3974
 2947TIP3    H1 8847   3.251   1.701   1.967 -0.8768 -0.8507 -0.4178
 2947TIP3    H2 8848   3.217   1.791   1.849 -1.7829 -1.3328 -0.5323
 2948TIP3   OH2 8849   4.193   3.509   0.353 -0.5570 -0.3556 -0.0312
 2948TIP3    H1 8850   4.175   3.416   0.366 -1.1006 -0.0402  1.7884
 2948TIP3    H2 8851   4.109   3.546   0.326 -0.1888 -0.4804 -1.3901
 2949TIP3   OH2 8852   4.639   5.804   0.282 -0.0517 -0.0484  0.2337
 2949TIP3    H1 8853   4.579   5.729   0.274  0.5240 -0.3660 -1.7441
 2949TIP3    H2 8854   4.634   5.848   0.196  2.0038  0.3173  0.2443
 2950TIP3   OH2 8855   5.848   4.843   2.285 -0.5370  0.0882 -0.0732
 2950TIP3    H1 8856   5.907   4.771   2.309 -0.2651  0.4391  0.3065
 2950TIP3    H2 8857   5.806   4.868   2.367 -1.4235 -0.3376 -0.3847
 2951TIP3   OH2 8858   4.267   0.250   5.175  0.1494  0.5542 -0.2031
 2951TIP3    H1 8859   4.194   0.200   5.214 -0.6479  1.2150 -0.8061
 2951TIP3    H2 8860   4.271   0.219   5.085  0.2155  0.9535 -0.3373
 2952TIP3   OH2 8861   6.080   3.613   3.465  0.5436 -0.1509 -0.6779
 2952TIP3    H1 8862   6.069   3.519   3.477  1.7059 -0.1109  0.9576
 2952TIP3    H2 8863   6.174   3.625   3.455  1.1593  1.2012  4.0798
 2953TIP3   OH2 8864   2.330   0.504   0.092  0.0111 -0.2429 -0.6814
 2953TIP3    H1 8865   2.349   0.501   0.186  0.5522 -0.5123 -0.7960
 2953TIP3    H2 8866   2.366   0.422   0.057 -1.4474 -0.8229 -0.9025
 2954TIP3   OH2 8867   0.744   3.750   3.242  0.4734  0.2923 -0.2549
 2954TIP3    H1 8868   0.717   3.807   3.313  0.6340  0.0945 -0.0363
 2954TIP3    H2 8869   0.838   3.739   3.253  0.8900  1.9738 -1.7343
 2955TIP3   OH2 8870   1.982   2.252   4.478 -0.3145  0.0757 -0.1918
 2955TIP3    H1 8871   2.040   2.279   4.407 -1.1446 -0.3456 -1.0630
 2955TIP3    H2 8872   1.905   2.308   4.467 -0.0716  0.6585  0.9675
 2956TIP3   OH2 8873   4.073   4.717   0.219 -0.1617 -0.0453 -0.5653
 2956TIP3    H1 8874   4.110   4.637   0.257 -1.2735 -0.3442 -0.0695
 2956TIP3    H2 8875   4.038   4.689   0.135  1.1677  0.3500 -1.2748
 2957TIP3   OH2 8876   4.657   4.331   1.316  0.0901  0.1739 -0.2152
 2957TIP3    H1 8877   4.569   4.299   1.300  0.0650  0.1102  0.0347
 2957TIP3    H2 8878   4.668   4.403   1.255 -0.5302  0.8758  0.4729
 2958TIP3   OH2 8879   3.576   1.720   3.604 -0.2024 -0.3271  0.5482
 2958TIP3    H1 8880   3.609   1.809   3.608  0.3941 -0.4401 -1.0584
 2958TIP3    H2 8881   3.489   1.728   3.564  0.2818 -0.5240 -0.5971
 2959TIP3   OH2 8882   5.465   0.451   2.217  0.6208  0.3633  0.4229
 2959TIP3    H1 8883   5.440   0.507   2.143  0.8308  0.0038  0.0736
 2959TIP3    H2 8884   5.466   0.362   2.180 -3.6578 -0.5304  1.8067
 2960TIP3   OH2 8885   4.229   2.166   1.186 -0.4434  0.5576 -0.4927
 2960TIP3    H1 8886   4.297   2.229   1.213  0.4601 -1.3544  2.1743
 2960TIP3    H2 8887   4.255   2.139   1.098  0.6144  1.9624 -0.6545
 2961TIP3   OH2 8888   3.017   3.862   2.026  0.3470  0.3237 -0.0632
 2961TIP3    H1 8889   3.089   3.800   2.032  0.7499  0.7647 -0.2850
 2961TIP3    H2 8890   3.023   3.913   2.107 -0.6815 -0.6603  0.6669
 2962TIP3   OH2 8891   0.972   0.741   0.978  0.0047  0.2649  0.4569
 2962TIP3    H1 8892   1.002   0.806   0.914 -2.1266  0.5838 -0.2946
 2962TIP3    H2 8893   0.938   0.670   0.924 -0.4987 -0.1084  1.2657
 2963TIP3   OH2 8894   2.505   3.716   0.209  0.2468 -0.5511  0.6298
 2963TIP3    H1 8895   2.592   3.701   0.173  0.6369  1.0398  0.8493
 2963TIP3    H2 8896   2.516   3.789   0.270 -0.9442 -1.3358  1.8535
 2964TIP3   OH2 8897   0.660   3.181   3.800  0.6209 -0.1587  0.6937
 2964TIP3    H1 8898   0.689   3.260   3.846 -1.4131  1.0163  0.0822
 2964TIP3    H2 8899   0.688   3.195   3.709  0.7985 -0.4359  0.7059
 2965TIP3   OH2 8900   5.118   0.835   3.811  0.2163  0.6483  0.0373
 2965TIP3    H1 8901   5.051   0.870   3.753  0.0071 -0.1141 -0.1910
 2965TIP3    H2 8902   5.094   0.743   3.824  0.3555  0.7544  1.1880
 2966TIP3   OH2 8903   3.939   3.810   3.940  0.0375  0.3480  0.5957
 2966TIP3    H1 8904   3.882   3.839   4.011 -0.6878  1.9476 -0.5725
 2966TIP3    H2 8905   3.961   3.891   3.892  0.5696 -0.6561 -0.9335
 2967TIP3   OH2 8906   3.876   1.412   2.757  0.0328 -0.0925  0.1545
 2967TIP3    H1 8907   3.800   1.463   2.784  0.7803  1.1627  0.0067
 2967TIP3    H2 8908   3.851   1.374   2.673 -0.1518  1.0018 -0.3042
 2968TIP3   OH2 8909   4.598   1.790   3.915  0.1632  0.3065 -0.5191
 2968TIP3    H1 8910   4.543   1.742   3.977 -0.2124  1.6929  0.2561
 2968TIP3    H2 8911   4.536   1.839   3.861  0.5648  3.1394  1.3822
 2969TIP3   OH2 8912   4.737   4.039   2.012 -0.5546  0.0874  0.1748
 2969TIP3    H1 8913   4.791   4.097   2.066  0.0126  0.2859 -0.5849
 2969TIP3    H2 8914   4.708   4.094   1.939  1.1067 -0.8951 -1.2906
 2970TIP3   OH2 8915   2.708   0.970   2.206  0.0995 -0.5983  0.4486
 2970TIP3    H1 8916   2.618   0.946   2.226  0.0312 -1.7426 -1.0676
 2970TIP3    H2 8917   2.700   1.040   2.141  0.3302  0.7722  1.8344
 2971TIP3   OH2 8918   4.576   2.730   3.752  0.4272 -0.0078  0.2489
 2971TIP3    H1 8919   4.621   2.680   3.684  0.6890 -0.2416  0.5921
 2971TIP3    H2 8920   4.596   2.821   3.732 -0.4881  0.0034 -0.6926
 2972TIP3   OH2 8921   1.118   4.460   3.822  0.8549 -0.2993 -0.7517
 2972TIP3    H1 8922   1.192   4.511   3.790  0.4747  0.3022 -0.6899
 2972TIP3    H2 8923   1.112   4.482   3.915 -0.0119  0.4410 -0.9702
 2973TIP3   OH2 8924   2.660   5.328   4.019 -0.3403 -0.8356  0.2695
 2973TIP3    H1 8925   2.753   5.349   4.032  0.5630 -4.2025  0.0468
 2973TIP3    H2 8926   2.640   5.363   3.932  1.1991 -1.3839 -0.3507
 2974TIP3   OH2 8927   3.743   1.108   0.363 -0.2478  0.5236  0.0389
 2974TIP3    H1 8928   3.722   1.084   0.453 -3.3532 -1.2870 -0.9956
 2974TIP3    H2 8929   3.776   1.198   0.368  1.1341 -0.0458  3.0575
 2975TIP3   OH2 8930   2.458   4.830   1.964 -0.3043  0.7910 -0.4528
 2975TIP3    H1 8931   2.431   4.741   1.987 -2.3939  1.4695 -0.0347
 2975TIP3    H2 8932   2.462   4.829   1.869 -0.8020  0.3731 -0.4765
 2976TIP3   OH2 8933   2.970   2.269   3.096 -0.1077 -0.0162 -0.4003
 2976TIP3    H1 8934   2.979   2.179   3.126  0.3860 -0.3679 -1.5236
 2976TIP3    H2 8935   2.879   2.275   3.064 -0.5707  0.3040  0.9057
 2977TIP3   OH2 8936   2.367   4.585   3.126 -0.0853 -0.2390  0.2343
 2977TIP3    H1 8937   2.339   4.657   3.182  0.7608  0.6458 -0.4596
 2977TIP3    H2 8938   2.440   4.545   3.173 -0.5637 -0.6678  0.6259
 2978TIP3   OH2 8939   0.490   0.044   3.977 -0.2474  0.4635  0.2809
 2978TIP3    H1 8940   0.482   0.127   3.929 -0.4723  0.3736  0.1597
 2978TIP3    H2 8941   0.517   0.070   4.065  0.5341  0.6012  0.0025
 2979TIP3   OH2 8942   6.308   2.079   1.265 -0.2049  0.4035  0.6510
 2979TIP3    H1 8943   6.368   2.134   1.314 -0.4072  0.8826  0.3661
 2979TIP3    H2 8944   6.283   2.010   1.327 -0.9267  1.3331  1.4256
 2980TIP3   OH2 8945   4.161   1.928   4.138  0.1854  0.4138 -0.5491
 2980TIP3    H1 8946   4.162   1.970   4.223 -0.5711  1.1768 -0.9016
 2980TIP3    H2 8947   4.073   1.945   4.104  0.6061  0.4604 -1.6507
 2981TIP3   OH2 8948   4.982   4.785   1.229  0.0383 -0.3372  0.3955
 2981TIP3    H1 8949   5.050   4.840   1.267  0.2020 -1.6128  2.0658
 2981TIP3    H2 8950   5.028   4.733   1.163  0.1105  0.6663 -0.3730
 2982TIP3   OH2 8951   0.109   4.487   5.102 -0.3256 -0.1018 -0.0865
 2982TIP3    H1 8952   0.135   4.568   5.145 -1.1175 -0.0893  0.3806
 2982TIP3    H2 8953   0.076   4.432   5.172  1.7078 -1.4926 -0.1306
 2983TIP3   OH2 8954   5.274   2.239   1.517 -0.3193 -0.5671  0.9755
 2983TIP3    H1 8955   5.201   2.209   1.464 -1.3418  0.3757  1.8042
 2983TIP3    H2 8956   5.338   2.272   1.454 -2.4319  2.6495  0.3008
 2984TIP3   OH2 8957   0.572   2.312   2.266  0.1829  0.1165  0.3536
 2984TIP3    H1 8958   0.527   2.392   2.239  2.4080  1.1434 -0.6484
 2984TIP3    H2 8959   0.627   2.340   2.340 -0.3454 -0.9337  1.1604
 2985TIP3   OH2 8960   2.102   2.816   1.076  0.6240 -0.2433 -0.1141
 2985TIP3    H1 8961   2.187   2.773   1.067  0.9394  0.1312  0.9124
 2985TIP3    H2 8962   2.120   2.894   1.129 -0.0842  0.7154 -1.2448
 2986TIP3   OH2 8963   2.778   2.390   4.974 -0.0140 -0.6045  0.3310
 2986TIP3    H1 8964   2.692   2.349   4.969 -0.0509 -0.4301 -0.5505
 2986TIP3    H2 8965   2.786   2.418   5.065 -0.9864 -0.4028  0.3598
 2987TIP3   OH2 8966   0.171   2.538   4.765  0.3777 -0.1031 -0.1537
 2987TIP3    H1 8967   0.078   2.557   4.778  0.5308  1.3876 -1.0565
 2987TIP3    H2 8968   0.217   2.613   4.803  1.1546 -0.0904 -1.0819
 2988TIP3   OH2 8969   2.647   0.746   0.952 -0.0066  0.3096  0.0971
 2988TIP3    H1 8970   2.553   0.762   0.961  0.0869 -0.4574  4.2322
 2988TIP3    H2 8971   2.689   0.822   0.994  1.3671  1.0904 -2.4493
 2989TIP3   OH2 8972   2.992   1.839   4.471  0.0520 -0.8823 -0.2237
 2989TIP3    H1 8973   2.988   1.756   4.519  0.3711 -0.4873  0.4970
 2989TIP3    H2 8974   3.086   1.858   4.465 -0.0391 -0.3613 -0.0137
 2990TIP3   OH2 8975   4.714   3.906   0.631  0.2593  0.0393 -0.0052
 2990TIP3    H1 8976   4.691   3.832   0.687  0.9260  0.8321  1.3726
 2990TIP3    H2 8977   4.659   3.895   0.553 -0.6986 -1.0959  0.7962
 2991TIP3   OH2 8978   0.314   5.732   0.179  0.3114 -0.8125  0.0599
 2991TIP3    H1 8979   0.251   5.724   0.250 -0.4100  1.2452 -0.3054
 2991TIP3    H2 8980   0.399   5.712   0.220 -0.3302 -1.7048  0.9917
 2992TIP3   OH2 8981   1.237   2.465   0.460  0.4401  0.3187  0.4637
 2992TIP3    H1 8982   1.329   2.458   0.434  0.6380  1.0321  0.9346
 2992TIP3    H2 8983   1.217   2.558   0.454 -0.5921  0.0546 -0.7280
 2993TIP3   OH2 8984   3.660   3.411   4.333 -0.3658  0.5966 -0.1349
 2993TIP3    H1 8985   3.572   3.420   4.368 -0.8417  0.5751 -1.2810
 2993TIP3    H2 8986   3.680   3.496   4.295 -0.2204  0.3538 -0.6073
 2994TIP3   OH2 8987   5.247   1.409   1.379 -0.1277 -0.1025  0.1428
 2994TIP3    H1 8988   5.226   1.428   1.287  0.2106  1.1696  0.3031
 2994TIP3    H2 8989   5.315   1.342   1.375  1.9320  1.9179 -0.6536
 2995TIP3   OH2 8990   0.757   0.968   3.420  0.3037  0.4224 -0.2137
 2995TIP3    H1 8991   0.774   0.940   3.330 -0.4451  0.4933 -0.3842
 2995TIP3    H2 8992   0.758   0.887   3.471  1.2888  0.4460 -0.1937
 2996TIP3   OH2 8993   0.244   0.687   0.244 -0.2193  0.1081  0.2042
 2996TIP3    H1 8994   0.306   0.742   0.196 -0.5421 -0.6922 -1.2018
 2996TIP3    H2 8995   0.295   0.650   0.316  1.2358 -1.1910 -1.3994
 2997TIP3   OH2 8996   4.013   3.386   3.670 -0.6210 -0.9083  0.8911
 2997TIP3    H1 8997   4.067   3.403   3.748  0.1178 -3.8560  1.1729
 2997TIP3    H2 8998   3.942   3.450   3.675  2.2914  2.6264  0.9614
 2998TIP3   OH2 8999   3.398   3.701   2.603 -0.0757 -0.8937  0.1108
 2998TIP3    H1 9000   3.311   3.722   2.639 -0.3736  2.3937 -2.1354
 2998TIP3    H2 9001   3.459   3.741   2.664 -0.2762 -0.5078  0.0566
 2999TIP3   OH2 9002   0.890   2.488   3.743  0.1364  0.1404  0.2222
 2999TIP3    H1 9003   0.972   2.446   3.768 -0.3553  0.1313  1.9648
 2999TIP3    H2 9004   0.826   2.417   3.742 -0.2224  0.4506  0.8006
 3000TIP3   OH2 9005   1.015   0.692   3.597 -0.4285 -0.3731  0.2447
 3000TIP3    H1 9006   1.027   0.613   3.650 -1.6008  0.7651  2.3468
 3000TIP3    H2 9007   0.923   0.690   3.571  0.2027 -1.1032 -2.2248
 3001TIP3   OH2 9008   0.170   3.784   3.640 -0.6305  0.4239  0.1234
 3001TIP3    H1 9009   0.156   3.714   3.704 -0.8256  0.4066  0.0608
 3001TIP3    H2 9010   0.221   3.850   3.687  3.4670 -1.5917 -0.9477
 3002TIP3   OH2 9011   6.246   1.553   0.828 -0.1780 -0.4280  0.1964
 3002TIP3    H1 9012   6.252   1.459   0.843 -1.3476 -0.6884 -0.8022
 3002TIP3    H2 9013   6.185   1.562   0.755 -0.6639  1.1437  0.7444
 3003TIP3   OH2 9014   1.929   5.344   3.827 -0.2672 -0.6967 -0.3659
 3003TIP3    H1 9015   1.919   5.362   3.734 -0.6326  0.5019 -0.1146
 3003TIP3    H2 9016   1.851   5.382   3.868  0.3545 -0.3246  0.5270
 3004TIP3   OH2 9017   5.552   5.006   4.423  0.1216  0.4044  0.0554
 3004TIP3    H1 9018   5.624   5.037   4.478  0.3485  0.9427 -0.5279
 3004TIP3    H2 9019   5.589   5.001   4.335 -0.3980  0.1375 -0.1563
 3005TIP3   OH2 9020   3.205   2.642   0.082  0.5556 -0.3349 -0.3347
 3005TIP3    H1 9021   3.289   2.595   0.084 -0.2866 -1.9051 -0.4285
 3005TIP3    H2 9022   3.153   2.595   0.016 -1.0808 -0.6076  1.0909
 3006TIP3   OH2 9023   2.752   0.496   5.150  0.2800 -1.2163 -0.3219
 3006TIP3    H1 9024   2.677   0.504   5.210 -1.1567 -0.9656 -2.0819
 3006TIP3    H2 9025   2.714   0.472   5.066  1.7880  1.8465 -2.0817
 3007TIP3   OH2 9026   0.248   5.012   3.194  0.1297 -0.5581  0.0919
 3007TIP3    H1 9027   0.226   4.922   3.218 -0.6501 -0.4147 -0.0449
 3007TIP3    H2 9028   0.342   5.018   3.207  0.0475 -1.1045  1.0670
 3008TIP3   OH2 9029   3.504   3.794   4.242 -0.0630  0.0163  0.0515
 3008TIP3    H1 9030   3.551   3.765   4.321 -1.3821  1.2409  1.3494
 3008TIP3    H2 9031   3.418   3.823   4.275 -0.7812  0.2284 -1.8971
 3009TIP3   OH2 9032   4.609   0.776   0.603 -0.0008  0.3286  0.1670
 3009TIP3    H1 9033   4.654   0.851   0.641 -0.5322 -0.3472  2.2174
 3009TIP3    H2 9034   4.627   0.704   0.662  0.2088 -1.1254 -1.5757
 3010TIP3   OH2 9035   2.088   5.661   2.607 -0.4378 -0.6956  0.1366
 3010TIP3    H1 9036   2.000   5.680   2.640 -0.5197  0.5974 -0.7927
 3010TIP3    H2 9037   2.078   5.579   2.558 -0.8853 -1.1345  0.9422
 3011TIP3   OH2 9038   5.927   3.282   1.265 -0.0338 -0.0690  0.0451
 3011TIP3    H1 9039   5.870   3.212   1.234  0.4858 -1.0076  1.1443
 3011TIP3    H2 9040   5.956   3.326   1.185  1.2396 -2.3677 -0.8379
 3012TIP3   OH2 9041   2.148   1.574   1.679  0.1370  0.0919  0.4192
 3012TIP3    H1 9042   2.085   1.628   1.633  0.6172  0.8604  0.6438
 3012TIP3    H2 9043   2.232   1.593   1.637  0.7314  1.4193  2.0553
 3013TIP3   OH2 9044   3.031   1.513   2.743  0.0606  0.0694  0.3768
 3013TIP3    H1 9045   3.003   1.605   2.744  0.4298  0.1873  0.1032
 3013TIP3    H2 9046   3.017   1.485   2.653  3.5382  1.0078 -0.6291
 3014TIP3   OH2 9047   0.554   5.346   0.387 -0.0875  0.6471  0.2166
 3014TIP3    H1 9048   0.469   5.362   0.427  0.0305  0.8591  0.3890
 3014TIP3    H2 9049   0.598   5.431   0.391  0.4845  0.3221  0.9674
 3015TIP3   OH2 9050   2.372   4.783   4.939 -0.2490  0.1770  0.4653
 3015TIP3    H1 9051   2.447   4.752   4.887 -1.1707 -1.0523 -0.1678
 3015TIP3    H2 9052   2.329   4.847   4.883 -0.4532 -0.1264  0.2760
 3016TIP3   OH2 9053   5.238   1.851   3.360  0.3698 -0.1822 -0.1844
 3016TIP3    H1 9054   5.224   1.794   3.284 -0.6060  1.5998 -1.4078
 3016TIP3    H2 9055   5.185   1.928   3.342  0.4986  0.5105  2.1143
 3017TIP3   OH2 9056   5.622   3.611   3.971 -0.0235  0.0549  0.1763
 3017TIP3    H1 9057   5.636   3.677   4.039 -1.1861  0.5134 -0.0031
 3017TIP3    H2 9058   5.596   3.532   4.019  0.3350  0.0207  0.3233
 3018TIP3   OH2 9059   5.753   0.319   5.175  0.2080 -0.2301 -0.0974
 3018TIP3    H1 9060   5.788   0.236   5.209 -0.2592 -0.4354 -0.1048
 3018TIP3    H2 9061   5.821   0.352   5.117  0.5618 -0.4176  0.2041
 3019TIP3   OH2 9062   0.767   5.561   3.259 -0.2339  0.6872  0.2562
 3019TIP3    H1 9063   0.694   5.609   3.220 -0.5378  1.0418  1.2311
 3019TIP3    H2 9064   0.808   5.624   3.319  1.9382  1.0632 -1.4794
 3020TIP3   OH2 9065   3.431   1.547   2.460  0.3140 -0.0364  0.1254
 3020TIP3    H1 9066   3.502   1.596   2.501 -0.4739  0.3910  1.0082
 3020TIP3    H2 9067   3.473   1.468   2.425  1.4049  0.7489 -0.3614
 3021TIP3   OH2 9068   6.282   0.341   1.504  0.0247 -0.3632  0.4167
 3021TIP3    H1 9069   6.235   0.413   1.462  0.7491  0.5552  1.1141
 3021TIP3    H2 9070   6.299   0.373   1.593  0.5241 -1.3278  0.6806
 3022TIP3   OH2 9071   4.258   1.225   2.724  0.4308  0.4146 -0.2666
 3022TIP3    H1 9072   4.258   1.315   2.757  0.0409  0.7367 -1.1204
 3022TIP3    H2 9073   4.204   1.176   2.787  0.8684  0.7118  0.3480
 3023TIP3   OH2 9074   1.729   4.954   3.508  0.0662 -0.1978 -0.1215
 3023TIP3    H1 9075   1.705   5.004   3.586  0.4258 -0.8549  0.4127
 3023TIP3    H2 9076   1.755   5.021   3.445 -2.4661  0.5163 -0.5157
 3024TIP3   OH2 9077   4.753   3.505   2.124  0.3227 -0.2122 -0.3811
 3024TIP3    H1 9078   4.824   3.529   2.183  0.7084  0.7168 -1.2146
 3024TIP3    H2 9079   4.796   3.477   2.044 -0.1870 -1.7962 -0.1513
 3025TIP3   OH2 9080   3.753   1.449   0.639 -0.0967  0.2679 -0.1740
 3025TIP3    H1 9081   3.829   1.403   0.675  0.0699  0.6645 -0.0185
 3025TIP3    H2 9082   3.741   1.525   0.696 -0.4008  0.3937 -0.4027
 3026TIP3   OH2 9083   2.790   3.567   2.728  0.4316 -0.2602  0.1504
 3026TIP3    H1 9084   2.838   3.650   2.741  0.2464  0.0361 -0.9844
 3026TIP3    H2 9085   2.722   3.568   2.795  1.3318 -0.1785  1.0868
 3027TIP3   OH2 9086   0.451   4.412   3.031  0.1644  0.0756  0.3167
 3027TIP3    H1 9087   0.533   4.459   3.047  0.3225  1.0576 -2.7866
 3027TIP3    H2 9088   0.383   4.470   3.065  0.6155 -0.0326  1.4708
 3028TIP3   OH2 9089   2.211   1.311   3.608 -0.1840 -0.1077  0.0244
 3028TIP3    H1 9090   2.157   1.374   3.656 -1.4135 -0.4129 -0.8935
 3028TIP3    H2 9091   2.196   1.228   3.653  0.1359 -0.0512  0.2367
 3029TIP3   OH2 9092   3.712   4.375   2.521  0.1306  0.2206  0.7458
 3029TIP3    H1 9093   3.741   4.326   2.597 -0.8150  1.5716  2.0401
 3029TIP3    H2 9094   3.681   4.308   2.460 -0.6364 -0.8351  2.2284
 3030TIP3   OH2 9095   2.663   4.098   3.862  0.4692  0.2530  0.3766
 3030TIP3    H1 9096   2.596   4.113   3.795  1.4407  3.7259 -0.0436
 3030TIP3    H2 9097   2.734   4.054   3.815 -0.2272 -0.5700  0.0567
 3031TIP3   OH2 9098   1.395   1.703   4.684 -0.6307  0.1012 -0.6207
 3031TIP3    H1 9099   1.367   1.619   4.648  0.0619 -0.3658 -0.1160
 3031TIP3    H2 9100   1.439   1.680   4.766  1.4210  0.7273 -1.4587
 3032TIP3   OH2 9101   6.158   5.214   4.865  0.4259 -0.1141  0.4646
 3032TIP3    H1 9102   6.215   5.285   4.894  0.2537  0.1152  0.2428
 3032TIP3    H2 9103   6.215   5.159   4.810  0.4029  0.1812  0.1443
 3033TIP3   OH2 9104   2.938   0.257   0.904  0.4206 -0.1984 -0.0419
 3033TIP3    H1 9105   2.876   0.325   0.931  1.2676  0.5686  0.0412
 3033TIP3    H2 9106   2.892   0.207   0.837 -0.7911 -0.5294  1.0004
 3034TIP3   OH2 9107   1.798   2.331   0.582 -0.2679  0.1056 -0.4679
 3034TIP3    H1 9108   1.767   2.422   0.577 -2.0933 -0.3528  1.1631
 3034TIP3    H2 9109   1.875   2.335   0.638 -0.0498  0.6974 -0.7968
 3035TIP3   OH2 9110   1.271   0.779   1.584  0.3401 -1.0279  0.2419
 3035TIP3    H1 9111   1.310   0.721   1.518 -0.6468 -1.0742 -0.3158
 3035TIP3    H2 9112   1.213   0.723   1.635  0.7019 -0.8821  0.8270
 3036TIP3   OH2 9113   5.541   1.193   2.944  0.8756  0.1779  0.2854
 3036TIP3    H1 9114   5.456   1.220   2.908  0.4600 -0.6551  0.6246
 3036TIP3    H2 9115   5.535   1.215   3.037  0.5220 -1.0822  0.5726
 3037TIP3   OH2 9116   5.572   4.274   4.642 -0.3882 -0.1327 -0.5279
 3037TIP3    H1 9117   5.631   4.314   4.578 -0.5537 -1.9233 -1.8767
 3037TIP3    H2 9118   5.628   4.216   4.693 -0.5178  0.1530 -0.0648
 3038TIP3   OH2 9119   1.477   5.914   0.158 -0.2277  0.0550  0.9239
 3038TIP3    H1 9120   1.423   5.989   0.134  1.9859  0.8072 -2.2479
 3038TIP3    H2 9121   1.564   5.951   0.173  0.8970 -1.7997 -0.6176
 3039TIP3   OH2 9122   3.478   2.587   1.473  0.2419  0.1638 -0.0901
 3039TIP3    H1 9123   3.555   2.568   1.419  0.7937 -3.0399  1.5310
 3039TIP3    H2 9124   3.419   2.635   1.415  1.5188 -1.4542 -2.9624
 3040TIP3   OH2 9125   3.560   0.997   0.868 -1.2300 -0.4233  0.3379
 3040TIP3    H1 9126   3.479   1.036   0.902 -1.7885 -0.7501 -0.5670
 3040TIP3    H2 9127   3.610   0.974   0.945 -1.5320  0.7573  0.9123
 3041TIP3   OH2 9128   1.862   3.700   2.967  0.1905  0.0584  0.0471
 3041TIP3    H1 9129   1.787   3.659   3.012 -0.0240  1.0665  0.6285
 3041TIP3    H2 9130   1.923   3.628   2.953 -0.4754 -0.5999  0.4377
 3042TIP3   OH2 9131   3.874   1.502   4.723  0.2941  0.3789 -0.4436
 3042TIP3    H1 9132   3.955   1.516   4.673  0.0879  0.8990 -0.6382
 3042TIP3    H2 9133   3.833   1.589   4.727  1.2427  0.7943  2.2688
 3043TIP3   OH2 9134   5.125   1.918   3.049  0.4883 -0.1936 -0.0283
 3043TIP3    H1 9135   5.113   1.860   2.974  0.6831  0.0171 -0.2239
 3043TIP3    H2 9136   5.087   1.870   3.122  0.4762 -0.4862 -0.2229
 3044TIP3   OH2 9137   6.233   3.554   0.585  0.2368  0.4203 -0.2509
 3044TIP3    H1 9138   6.273   3.537   0.499 -1.0311  0.0806 -0.7907
 3044TIP3    H2 9139   6.142   3.526   0.576 -0.3858  1.9883  0.6711
 3045TIP3   OH2 9140   0.031   3.059   3.319 -0.8592 -0.0343 -0.4340
 3045TIP3    H1 9141  -0.048   3.008   3.335 -1.3030  0.7815  0.0777
 3045TIP3    H2 9142   0.023   3.086   3.228 -0.5565 -0.9740 -0.7455
 3046TIP3   OH2 9143   2.146   3.510   0.592  0.0834 -0.1579 -0.3273
 3046TIP3    H1 9144   2.059   3.493   0.630 -0.7192  1.0299 -1.5399
 3046TIP3    H2 9145   2.163   3.433   0.538 -0.6147 -0.0404 -0.7385
 3047TIP3   OH2 9146   4.853   1.235   3.991 -0.5335  0.1526  0.4118
 3047TIP3    H1 9147   4.766   1.236   3.952 -0.0474 -0.7818 -0.7487
 3047TIP3    H2 9148   4.855   1.155   4.044  0.1429 -0.7154 -0.8739
 3048TIP3   OH2 9149   6.220   4.531   1.211  0.0163  0.1411  0.0165
 3048TIP3    H1 9150   6.171   4.527   1.129  0.7830 -0.8159 -0.4104
 3048TIP3    H2 9151   6.154   4.550   1.277 -0.5506  1.4582 -0.8639
 3049TIP3   OH2 9152   1.452   1.338   0.758 -0.2973  0.0524 -0.1075
 3049TIP3    H1 9153   1.378   1.393   0.784 -0.3971  0.5527 -1.3746
 3049TIP3    H2 9154   1.436   1.254   0.801 -2.5235 -0.4199 -1.6811
 3050TIP3   OH2 9155   5.463   5.711   0.733  0.1434  0.3252 -0.3265
 3050TIP3    H1 9156   5.493   5.653   0.663  0.0129 -0.5730  0.3464
 3050TIP3    H2 9157   5.487   5.666   0.814 -1.3744  0.4394  0.2232
 3051TIP3   OH2 9158   6.196   5.590   2.881 -0.4914  0.2097 -0.4164
 3051TIP3    H1 9159   6.193   5.665   2.941 -0.3235 -0.0733 -0.0488
 3051TIP3    H2 9160   6.286   5.558   2.888 -0.4661  0.1897 -0.8413
 3052TIP3   OH2 9161   6.140   1.375   4.806 -0.3185  0.5818 -0.0942
 3052TIP3    H1 9162   6.127   1.281   4.792  0.1849  0.6204 -0.8764
 3052TIP3    H2 9163   6.055   1.407   4.837  0.0166 -0.4460  2.0251
 3053TIP3   OH2 9164   5.592   0.837   3.962 -0.1330 -0.0627 -0.7016
 3053TIP3    H1 9165   5.533   0.764   3.981 -1.3451  1.7083  3.3995
 3053TIP3    H2 9166   5.679   0.798   3.960 -0.5777 -1.6235  2.8785
 3054TIP3   OH2 9167   0.721   3.477   3.391 -0.0976 -0.3516 -0.2101
 3054TIP3    H1 9168   0.730   3.429   3.309 -0.3033  0.3337 -0.6474
 3054TIP3    H2 9169   0.774   3.556   3.379  0.2663 -0.4754  0.5057
 3055TIP3   OH2 9170   0.860   0.669   1.699  0.4871 -0.0061 -0.4258
 3055TIP3    H1 9171   0.913   0.614   1.642 -0.8319 -0.5522 -1.1795
 3055TIP3    H2 9172   0.923   0.711   1.758  1.5678 -2.0391 -0.0458
 3056TIP3   OH2 9173   2.295   0.104   3.001 -0.2550 -0.2591  0.9248
 3056TIP3    H1 9174   2.304   0.165   3.075 -1.4171 -1.0589  1.7658
 3056TIP3    H2 9175   2.346   0.144   2.931  2.2156 -0.2381  2.6114
 3057TIP3   OH2 9176   3.903   5.181   0.184 -0.1415 -0.3477 -0.0187
 3057TIP3    H1 9177   3.887   5.087   0.185 -0.0451 -0.3670 -0.2599
 3057TIP3    H2 9178   3.850   5.213   0.110  0.9387 -0.4122 -0.8378
 3058TIP3   OH2 9179   0.231   0.614   2.464  0.1973 -0.0978 -0.2415
 3058TIP3    H1 9180   0.264   0.527   2.442  1.4603  0.2077  0.3669
 3058TIP3    H2 9181   0.292   0.648   2.530 -0.9860  0.7547  0.4716
 3059TIP3   OH2 9182   0.384   3.497   0.710  1.2443  0.5186  0.2978
 3059TIP3    H1 9183   0.444   3.539   0.771  1.5492  0.3928  0.0910
 3059TIP3    H2 9184   0.340   3.430   0.762  0.5719  1.2576  0.6891
 3060TIP3   OH2 9185   5.298   4.253   1.527 -0.0841 -0.2376 -0.6289
 3060TIP3    H1 9186   5.257   4.193   1.466  1.1192 -0.1487 -1.5621
 3060TIP3    H2 9187   5.274   4.220   1.614  0.8555 -2.3211 -1.1015
 3061TIP3   OH2 9188   3.480   1.102   1.381 -0.2699 -0.1748  0.7243
 3061TIP3    H1 9189   3.531   1.104   1.301  2.4076 -1.2615  2.2806
 3061TIP3    H2 9190   3.487   1.191   1.417 -1.8590  0.4472 -0.3691
 3062TIP3   OH2 9191   4.260   2.874   2.124  0.3395 -0.4824 -0.0588
 3062TIP3    H1 9192   4.199   2.947   2.143  1.3366  0.9407 -2.0011
 3062TIP3    H2 9193   4.221   2.830   2.049  0.9294 -0.4831 -0.3669
 3063TIP3   OH2 9194   2.294   2.913   2.622  0.4438  0.2071 -0.2331
 3063TIP3    H1 9195   2.372   2.917   2.678 -0.7130  1.2534  1.4167
 3063TIP3    H2 9196   2.296   2.826   2.583  1.2888 -0.6094  1.5173
 3064TIP3   OH2 9197   2.358   3.044   3.013  0.2508  0.3125 -0.1143
 3064TIP3    H1 9198   2.405   3.012   2.936 -1.6835 -3.3831  0.0724
 3064TIP3    H2 9199   2.275   3.077   2.979 -0.5315 -1.1553  0.3211
 3065TIP3   OH2 9200   5.651   5.313   3.242  0.5662 -0.6889  1.1201
 3065TIP3    H1 9201   5.565   5.355   3.232 -0.0779 -2.1486  0.2556
 3065TIP3    H2 9202   5.695   5.331   3.159  1.5879  1.0034  1.9601
 3066TIP3   OH2 9203   1.149   3.114   0.192  0.3038 -0.4079 -0.2040
 3066TIP3    H1 9204   1.168   3.201   0.157  0.6711  0.3949  1.8399
 3066TIP3    H2 9205   1.065   3.090   0.154  0.7071  0.3667 -1.6206
 3067TIP3   OH2 9206   5.323   5.322   5.126  0.2243 -0.0642  0.1827
 3067TIP3    H1 9207   5.284   5.246   5.169 -0.9423  1.2314  1.5159
 3067TIP3    H2 9208   5.376   5.364   5.194 -0.5823  1.2863  0.0136
 3068TIP3   OH2 9209   5.217   2.748   4.819 -0.3684 -0.2633  0.3793
 3068TIP3    H1 9210   5.205   2.705   4.904  2.4198 -0.7759  0.6259
 3068TIP3    H2 9211   5.168   2.693   4.758 -1.2792 -0.6826  1.4433
 3069TIP3   OH2 9212   6.058   0.057   0.404  0.0511  0.2435  0.1770
 3069TIP3    H1 9213   6.095   0.014   0.481 -2.3727  0.3994  1.5240
 3069TIP3    H2 9214   6.133   0.071   0.346  2.3776  1.8804  3.2773
 3070TIP3   OH2 9215   0.657   1.078   2.854 -0.2635 -0.5257 -0.3970
 3070TIP3    H1 9216   0.725   1.013   2.837 -0.6132 -0.6959 -1.2006
 3070TIP3    H2 9217   0.700   1.162   2.840 -0.0247 -0.6026 -0.1471
 3071TIP3   OH2 9218   0.648   3.160   1.295  0.3199 -0.3606 -0.0827
 3071TIP3    H1 9219   0.627   3.149   1.388 -1.0590  0.4794 -0.2586
 3071TIP3    H2 9220   0.730   3.113   1.283  0.0320 -1.3036  1.3581
 3072TIP3   OH2 9221   5.175   3.207   4.248  0.4500  0.0582 -0.0487
 3072TIP3    H1 9222   5.162   3.189   4.155 -0.5834  0.9834 -0.1138
 3072TIP3    H2 9223   5.127   3.289   4.263 -1.1206 -1.1058  1.7241
 3073TIP3   OH2 9224   2.199   0.874   2.381 -0.1328 -0.3077 -0.1252
 3073TIP3    H1 9225   2.250   0.929   2.321 -0.6927 -0.0672 -0.3852
 3073TIP3    H2 9226   2.224   0.784   2.359 -0.0080 -0.2021 -0.4143
 3074TIP3   OH2 9227   0.829   5.160   3.254 -0.3905 -0.1861  0.9045
 3074TIP3    H1 9228   0.891   5.119   3.314 -0.2000 -1.4017 -0.0873
 3074TIP3    H2 9229   0.882   5.220   3.201 -0.1183 -0.8822  0.3703
 3075TIP3   OH2 9230   1.861   1.802   0.697 -0.3002 -0.0260 -0.6004
 3075TIP3    H1 9231   1.855   1.885   0.649  0.3576  0.2378 -0.2450
 3075TIP3    H2 9232   1.770   1.773   0.705 -0.7112  1.4441  0.6258
 3076TIP3   OH2 9233   2.878   3.122   0.397 -0.4666  0.3093  0.4699
 3076TIP3    H1 9234   2.873   3.032   0.364  1.3302  0.6046 -0.7770
 3076TIP3    H2 9235   2.835   3.175   0.330  1.0846  0.6550 -0.3023
 3077TIP3   OH2 9236   4.017   0.887   1.654 -0.4480 -0.3690 -0.1255
 3077TIP3    H1 9237   4.058   0.934   1.726 -1.0663 -0.2056  0.1215
 3077TIP3    H2 9238   3.942   0.941   1.629 -1.0396 -1.1092  0.0162
 3078TIP3   OH2 9239   5.556   3.278   1.676 -0.4867 -0.3777 -0.3923
 3078TIP3    H1 9240   5.614   3.204   1.695  0.8890  0.7034 -0.2439
 3078TIP3    H2 9241   5.492   3.243   1.614  0.6251 -1.4897 -0.9460
 3079TIP3   OH2 9242   3.257   5.756   2.798  0.1398 -0.2816  0.7247
 3079TIP3    H1 9243   3.208   5.674   2.804 -1.4017  0.6334  0.9777
 3079TIP3    H2 9244   3.205   5.819   2.847 -0.6168  1.7531 -2.3752
 3080TIP3   OH2 9245   5.600   2.539   0.642  0.4770 -0.4663 -0.4619
 3080TIP3    H1 9246   5.554   2.542   0.558 -0.9411 -4.4775 -0.0763
 3080TIP3    H2 9247   5.693   2.539   0.619  0.1653 -3.7463 -2.4277
 3081TIP3   OH2 9248   0.968   1.786   4.606 -0.2899 -0.1311 -0.0851
 3081TIP3    H1 9249   1.046   1.756   4.560 -0.3878 -0.2075 -0.2039
 3081TIP3    H2 9250   0.926   1.846   4.544  0.9976  1.9287  0.9248
 3082TIP3   OH2 9251   0.998   4.087   0.512  0.1227 -0.0783  0.1878
 3082TIP3    H1 9252   0.905   4.090   0.489 -0.4242 -0.1752  2.1876
 3082TIP3    H2 9253   1.017   4.172   0.551  0.1412 -0.9304  2.1840
 3083TIP3   OH2 9254   1.389   2.438   4.100  0.4346 -0.2501  0.1971
 3083TIP3    H1 9255   1.375   2.475   4.013 -0.4402  0.1369  0.4923
 3083TIP3    H2 9256   1.428   2.352   4.084  0.0526 -0.2852 -0.5754
 3084TIP3   OH2 9257   1.583   5.463   5.005  0.0958 -0.0607 -1.0660
 3084TIP3    H1 9258   1.533   5.382   4.997 -0.3626 -0.1517  1.6562
 3084TIP3    H2 9259   1.646   5.445   5.075  1.1942  1.3984 -1.6241
 3085TIP3   OH2 9260   4.298   3.946   1.208 -0.3366 -0.0844 -0.2717
 3085TIP3    H1 9261   4.273   3.959   1.300 -0.6052  0.2303 -0.3910
 3085TIP3    H2 9262   4.382   3.990   1.200 -0.2503 -0.2219 -0.1473
 3086TIP3   OH2 9263   5.763   1.094   1.465  0.2767  0.3990  0.0675
 3086TIP3    H1 9264   5.778   1.140   1.548 -0.0110  2.5246 -0.9778
 3086TIP3    H2 9265   5.844   1.109   1.416 -0.1791  0.5651 -0.6372
 3087TIP3   OH2 9266   5.708   5.792   4.221  0.6569  0.2909  0.1525
 3087TIP3    H1 9267   5.789   5.740   4.223 -0.3697 -1.3454  1.1043
 3087TIP3    H2 9268   5.703   5.824   4.131  1.9921 -0.1858 -0.1196
 3088TIP3   OH2 9269   4.165   2.323   2.198 -0.1542  0.9170 -0.3379
 3088TIP3    H1 9270   4.143   2.238   2.236 -1.4000  1.0202 -0.7844
 3088TIP3    H2 9271   4.230   2.360   2.258  1.2552 -0.7926 -0.7170
 3089TIP3   OH2 9272   3.893   2.638   2.945  0.5776  0.2364  0.0668
 3089TIP3    H1 9273   3.860   2.552   2.918 -0.0032  0.1370  1.0394
 3089TIP3    H2 9274   3.988   2.631   2.935  0.5208 -0.4582 -0.0390
 3090TIP3   OH2 9275   1.859   5.330   1.313 -0.0390 -0.5803  0.1645
 3090TIP3    H1 9276   1.823   5.250   1.352  0.9567 -1.1229  0.0093
 3090TIP3    H2 9277   1.817   5.335   1.227 -0.1488 -0.9061  0.1968
 3091TIP3   OH2 9278   4.301   3.860   1.954  0.4161 -0.3228 -0.2241
 3091TIP3    H1 9279   4.232   3.891   2.012  0.7938  0.6458 -0.2640
 3091TIP3    H2 9280   4.369   3.826   2.013 -0.2203 -1.5901 -0.1970
 3092TIP3   OH2 9281   2.930   0.061   4.493 -0.2841 -0.0115  0.6474
 3092TIP3    H1 9282   2.985   0.134   4.464 -2.1154  1.3631  0.4888
 3092TIP3    H2 9283   2.940  -0.005   4.424  2.0225 -0.2980  1.1861
 3093TIP3   OH2 9284   4.589   2.713   4.870  0.1161  0.0374  0.0350
 3093TIP3    H1 9285   4.668   2.663   4.851  0.6460  0.7606  0.2871
 3093TIP3    H2 9286   4.559   2.679   4.954  0.5984  0.2903  0.3124
 3094TIP3   OH2 9287   3.897   0.450   5.006  0.1520 -0.3587 -0.1990
 3094TIP3    H1 9288   3.819   0.478   5.054  0.3014  1.6745 -1.0635
 3094TIP3    H2 9289   3.892   0.354   5.007 -1.0662 -0.3353  1.8207
 3095TIP3   OH2 9290   2.482   0.131   4.027 -0.2296  0.5430 -0.0928
 3095TIP3    H1 9291   2.487   0.188   4.104 -0.3141  0.8966 -0.3487
 3095TIP3    H2 9292   2.562   0.078   4.032 -0.6164  0.0069  0.6705
 3096TIP3   OH2 9293   3.556   4.494   3.905  0.0420 -0.4371 -0.3757
 3096TIP3    H1 9294   3.627   4.478   3.843 -0.2983  0.4781 -1.0237
 3096TIP3    H2 9295   3.477   4.475   3.855 -0.1789 -2.4275  0.6323
 3097TIP3   OH2 9296   5.093   1.900   0.633  0.3374 -0.1714  0.1527
 3097TIP3    H1 9297   5.178   1.926   0.596  0.6619 -1.6729 -0.2287
 3097TIP3    H2 9298   5.095   1.804   0.632 -1.7069 -0.2472 -0.6172
 3098TIP3   OH2 9299   3.354   3.314   0.000  0.0092  0.6899  0.2270
 3098TIP3    H1 9300   3.429   3.289  -0.053 -0.1206  0.0810  0.3167
 3098TIP3    H2 9301   3.374   3.282   0.088 -1.0714 -1.0064 -0.0980
 3099TIP3   OH2 9302   5.260   5.862   4.053 -0.4962  0.0097  0.5332
 3099TIP3    H1 9303   5.289   5.926   3.988  0.3147 -1.4937 -0.6514
 3099TIP3    H2 9304   5.232   5.915   4.128 -0.7956  1.7704 -0.7606
 3100TIP3   OH2 9305   4.177   5.159   1.129 -0.5659 -0.5530 -0.1751
 3100TIP3    H1 9306   4.083   5.141   1.131 -0.9399  0.7497 -2.8326
 3100TIP3    H2 9307   4.197   5.178   1.037  2.3402 -0.8928  0.2719
 3101TIP3   OH2 9308   2.134   2.768   1.662 -0.1095  0.1127 -0.5317
 3101TIP3    H1 9309   2.192   2.723   1.724  0.5634  2.4601  0.6647
 3101TIP3    H2 9310   2.050   2.721   1.670  1.1340 -2.4391 -1.2260
 3102TIP3   OH2 9311   3.505   2.531   3.062 -0.0626 -0.7919  0.4452
 3102TIP3    H1 9312   3.571   2.480   3.016  1.1535  0.2335  0.9923
 3102TIP3    H2 9313   3.542   2.546   3.149  0.1016  1.7879  0.0204
 3103TIP3   OH2 9314   0.846   0.875   2.846 -0.3732 -0.0289  0.3717
 3103TIP3    H1 9315   0.811   0.794   2.882  0.1716 -0.2172  0.4897
 3103TIP3    H2 9316   0.901   0.847   2.773 -1.8236  0.3689 -0.9481
 3104TIP3   OH2 9317   5.825   0.501   2.906  0.2362  0.1297 -0.1449
 3104TIP3    H1 9318   5.750   0.519   2.963  0.8119  1.5227  0.2313
 3104TIP3    H2 9319   5.788   0.500   2.818 -0.5349 -1.2433  0.1648
 3105TIP3   OH2 9320   2.862   1.710   2.644  0.3870  0.4361 -0.5605
 3105TIP3    H1 9321   2.789   1.743   2.591  0.8715  0.1071 -1.4599
 3105TIP3    H2 9322   2.939   1.719   2.587  0.8509 -0.3626 -0.0815
 3106TIP3   OH2 9323   2.858   2.402   2.118  0.1632 -0.0041 -0.3127
 3106TIP3    H1 9324   2.831   2.355   2.197 -1.0427  0.7973 -0.2278
 3106TIP3    H2 9325   2.780   2.403   2.063  0.5905  0.6597 -0.9187
 3107TIP3   OH2 9326   0.072   1.393   3.876  0.1544 -0.1487  0.3490
 3107TIP3    H1 9327   0.085   1.473   3.826  0.6235 -0.3395  0.1531
 3107TIP3    H2 9328  -0.021   1.393   3.899  0.1340  0.3988  0.2667
 3108TIP3   OH2 9329   2.824   5.989   1.981  0.3301  0.0539 -0.2186
 3108TIP3    H1 9330   2.867   5.960   2.061  0.7155 -0.5079 -0.6276
 3108TIP3    H2 9331   2.851   5.927   1.914 -2.0730 -1.0758 -0.2707
 3109TIP3   OH2 9332   5.718   3.229   2.071  0.6600  0.3975  0.0694
 3109TIP3    H1 9333   5.783   3.163   2.094 -2.3317 -2.3999  1.2505
 3109TIP3    H2 9334   5.722   3.292   2.143  1.6523 -0.0213  0.4014
 3110TIP3   OH2 9335   6.275   1.756  -0.027  0.2585  0.1023  0.0734
 3110TIP3    H1 9336   6.329   1.824   0.014 -1.0494  0.8040  0.6860
 3110TIP3    H2 9337   6.192   1.759   0.021 -0.4405 -0.7322 -1.0398
 3111TIP3   OH2 9338   0.416   5.261   2.282  0.2539 -0.4124 -0.1214
 3111TIP3    H1 9339   0.469   5.294   2.355 -0.5815  1.7540 -0.4376
 3111TIP3    H2 9340   0.471   5.193   2.243  1.9797  0.4079  0.7355
 3112TIP3   OH2 9341   2.227   4.005   0.455  0.7570  0.0753 -0.1065
 3112TIP3    H1 9342   2.179   3.972   0.379 -0.2646  0.9547  0.1371
 3112TIP3    H2 9343   2.208   3.944   0.525  1.8574 -0.8488 -0.5772
 3113TIP3   OH2 9344   0.789   1.280   1.021  0.7477 -0.2870 -0.5855
 3113TIP3    H1 9345   0.848   1.208   1.044  3.6310  2.3166  0.9389
 3113TIP3    H2 9346   0.769   1.322   1.104  0.3472  1.5144 -1.5473
 3114TIP3   OH2 9347   4.989   5.260   0.549 -0.3373  0.0778  0.2995
 3114TIP3    H1 9348   5.079   5.233   0.529 -0.2965  0.3345  0.1330
 3114TIP3    H2 9349   4.998   5.318   0.625 -0.2974  0.5633 -0.0683
 3115TIP3   OH2 9350   0.622   5.333   2.507  0.4644 -0.0830 -0.0282
 3115TIP3    H1 9351   0.582   5.419   2.497  1.4299  0.4682  0.6687
 3115TIP3    H2 9352   0.656   5.332   2.597  0.4859 -1.1894 -0.0285
 3116TIP3   OH2 9353   4.882   2.499   0.795 -0.4754  0.8431 -0.4035
 3116TIP3    H1 9354   4.870   2.497   0.700  0.3818  0.8062 -0.5167
 3116TIP3    H2 9355   4.805   2.454   0.830 -1.1142  1.4211 -1.0485
 3117TIP3   OH2 9356   3.666   4.932   1.398 -0.2398  0.0195 -0.2819
 3117TIP3    H1 9357   3.621   4.910   1.316 -0.2766 -0.4731 -0.1314
 3117TIP3    H2 9358   3.680   5.027   1.393 -0.1936 -0.0140 -0.8831
 3118TIP3   OH2 9359   0.647   0.434   2.706 -0.6245  0.3933 -0.0202
 3118TIP3    H1 9360   0.610   0.346   2.720 -0.8541  0.0155 -2.5586
 3118TIP3    H2 9361   0.644   0.446   2.611  0.7067  2.6095  0.1631
 3119TIP3   OH2 9362   0.070   4.402   2.958  0.5859  0.2686 -0.2154
 3119TIP3    H1 9363  -0.023   4.426   2.963  0.1723 -1.1735 -0.5854
 3119TIP3    H2 9364   0.102   4.418   3.047 -0.4009 -0.6173  0.3369
 3120TIP3   OH2 9365   4.650   4.424   0.929 -0.2883  0.0188 -0.2065
 3120TIP3    H1 9366   4.710   4.468   0.989 -0.9834  2.3868 -1.1429
 3120TIP3    H2 9367   4.580   4.390   0.984  0.2601  0.0758  0.5438
 3121TIP3   OH2 9368   4.046   4.241   4.613 -0.1425 -0.5099 -0.5653
 3121TIP3    H1 9369   4.106   4.298   4.660  0.3632  0.0973 -1.8813
 3121TIP3    H2 9370   3.959   4.275   4.634  0.1899  1.6477 -2.3464
 3122TIP3   OH2 9371   5.016   3.039   4.397 -0.1404  0.4151  0.0806
 3122TIP3    H1 9372   4.949   3.094   4.438 -0.4186 -0.8300  1.3886
 3122TIP3    H2 9373   5.098   3.087   4.409 -0.7640  1.9546 -1.5336
 3123TIP3   OH2 9374   4.906   5.684   0.206  0.3652 -0.1458 -0.1766
 3123TIP3    H1 9375   4.984   5.660   0.257  0.2313  0.0000  0.0990
 3123TIP3    H2 9376   4.855   5.738   0.265 -0.0089 -0.3470 -0.3117
 3124TIP3   OH2 9377   3.824   2.589   1.990 -0.3459  0.2221 -0.1084
 3124TIP3    H1 9378   3.834   2.495   1.983 -1.5392  0.1637 -1.3964
 3124TIP3    H2 9379   3.882   2.614   2.062  1.9173 -1.1362 -1.3734
 3125TIP3   OH2 9380   1.125   1.901   5.047 -0.0782 -0.2609 -0.3415
 3125TIP3    H1 9381   1.130   1.928   4.956  2.0186 -0.4124 -0.3266
 3125TIP3    H2 9382   1.175   1.819   5.051 -0.8800 -0.7305  0.7808
 3126TIP3   OH2 9383   2.152   0.945   4.102 -0.7856 -0.0391 -0.3169
 3126TIP3    H1 9384   2.122   1.021   4.152 -0.3233  0.7263 -1.1754
 3126TIP3    H2 9385   2.244   0.935   4.128 -0.4020  0.6635 -1.3502
 3127TIP3   OH2 9386   3.058   2.973   3.608  0.1869  0.1803 -0.5400
 3127TIP3    H1 9387   2.993   2.982   3.677  0.2390 -1.0638 -0.2962
 3127TIP3    H2 9388   3.059   2.879   3.588  0.8082  0.3957 -1.6092
 3128TIP3   OH2 9389   3.900   4.088   4.053  0.4118  0.3286 -0.0408
 3128TIP3    H1 9390   3.898   4.173   4.098 -1.6549  0.2306  0.1325
 3128TIP3    H2 9391   3.984   4.087   4.008  0.1500  2.8373 -0.7479
 3129TIP3   OH2 9392   2.008   1.578   5.153  0.0993  0.6971  0.0724
 3129TIP3    H1 9393   2.048   1.491   5.158  0.3146  0.8403  1.0434
 3129TIP3    H2 9394   2.081   1.639   5.155 -0.1106  0.9375  1.0260
 3130TIP3   OH2 9395   1.106   4.422   3.028  0.0633 -0.0480 -0.0339
 3130TIP3    H1 9396   1.048   4.486   3.070 -0.4363 -0.5561  0.0636
 3130TIP3    H2 9397   1.172   4.403   3.095  0.4717  0.6870 -0.2184
 3131TIP3   OH2 9398   3.387   0.976   3.073 -0.1031  0.6124  0.3817
 3131TIP3    H1 9399   3.446   0.903   3.055 -1.0989  0.0010 -0.5501
 3131TIP3    H2 9400   3.445   1.050   3.090  0.9247 -0.3261  1.0932
 3132TIP3   OH2 9401   3.418   5.453   4.078  0.5167 -0.1843  0.6532
 3132TIP3    H1 9402   3.479   5.482   4.010 -0.3074  0.8786  0.3359
 3132TIP3    H2 9403   3.460   5.477   4.160  1.4871 -1.4084  0.5321
 3133TIP3   OH2 9404   3.236   3.190   4.271  0.0473 -0.2350 -0.1621
 3133TIP3    H1 9405   3.265   3.191   4.362  2.1198  0.9300 -0.7689
 3133TIP3    H2 9406   3.265   3.105   4.237  0.2241 -0.2433  0.0082
 3134TIP3   OH2 9407   0.368   5.232   3.952  0.2496 -0.1764  0.3120
 3134TIP3    H1 9408   0.329   5.243   4.038 -1.1082 -0.5644 -0.2224
 3134TIP3    H2 9409   0.296   5.201   3.897  1.6995 -2.6071 -0.3669
 3135TIP3   OH2 9410   1.649   0.927   0.064  0.6097 -0.0941  0.2168
 3135TIP3    H1 9411   1.571   0.926   0.120  1.2758 -0.3527  1.1648
 3135TIP3    H2 9412   1.623   0.881  -0.015  0.3222 -1.8119  1.2711
 3136TIP3   OH2 9413   1.185   4.937   2.697 -0.0040  0.0008  0.0360
 3136TIP3    H1 9414   1.121   4.869   2.677 -0.6706  0.5329  0.3394
 3136TIP3    H2 9415   1.168   4.960   2.788  0.1464  0.6528 -0.0975
 3137TIP3   OH2 9416   4.172   4.729   3.376 -0.3456  0.8671  0.6660
 3137TIP3    H1 9417   4.252   4.781   3.382  1.0729 -1.0707 -0.2429
 3137TIP3    H2 9418   4.202   4.641   3.355 -2.6088 -0.4088  2.3149
 3138TIP3   OH2 9419   3.024   2.526   2.940  0.0815  0.0669 -0.6742
 3138TIP3    H1 9420   2.990   2.449   2.985 -0.3966  1.3020  1.1947
 3138TIP3    H2 9421   3.013   2.506   2.847  1.1571 -2.6184 -0.3350
 3139TIP3   OH2 9422   4.721   5.365   4.321 -0.1129  0.1655  0.3851
 3139TIP3    H1 9423   4.793   5.350   4.259 -0.1276  0.4342  0.3013
 3139TIP3    H2 9424   4.687   5.278   4.339  1.3992 -0.1700  1.8428
 3140TIP3   OH2 9425   2.257   5.269   2.413 -0.1645  0.1184  0.4601
 3140TIP3    H1 9426   2.201   5.197   2.383  0.0397  0.5420 -1.0499
 3140TIP3    H2 9427   2.224   5.346   2.366 -0.0634  0.9267  1.6688
 3141TIP3   OH2 9428   5.047   1.813   4.910  0.2016  0.8785  0.0751
 3141TIP3    H1 9429   4.989   1.806   4.985 -0.0078 -0.7033 -0.1962
 3141TIP3    H2 9430   5.135   1.824   4.947  0.0936  0.1491  0.5552
 3142TIP3   OH2 9431   3.248   0.068   2.646 -0.3954  0.4288 -0.4682
 3142TIP3    H1 9432   3.223  -0.009   2.594 -0.4438 -0.7127  1.1515
 3142TIP3    H2 9433   3.322   0.105   2.599 -1.0749  0.0776 -1.8959
 3143TIP3   OH2 9434   2.846   0.557   2.665  0.3032 -0.6614 -0.1388
 3143TIP3    H1 9435   2.788   0.581   2.738  1.5625  0.0283  0.6767
 3143TIP3    H2 9436   2.788   0.518   2.600 -1.5644  2.3763 -0.5314
 3144TIP3   OH2 9437   3.203   5.696   5.049 -0.4564  0.2132  0.3571
 3144TIP3    H1 9438   3.237   5.611   5.077 -1.0686  0.1739  0.9942
 3144TIP3    H2 9439   3.121   5.706   5.096 -0.3652  1.1895  0.3272
 3145TIP3   OH2 9440   1.808   2.981   0.181 -0.2689  0.3818  0.6564
 3145TIP3    H1 9441   1.777   2.910   0.125  1.1876  0.3888 -0.2064
 3145TIP3    H2 9442   1.731   3.036   0.196 -0.9622 -0.3013 -0.3003
 3146TIP3   OH2 9443   0.993   2.232   4.541  0.3214 -0.1203  0.1573
 3146TIP3    H1 9444   0.925   2.190   4.594  2.1248 -1.5817  1.4563
 3146TIP3    H2 9445   0.953   2.244   4.455 -1.6650 -0.6070  0.9533
 3147TIP3   OH2 9446   0.472   1.146   1.012  0.0761 -0.5744  0.0177
 3147TIP3    H1 9447   0.427   1.166   0.930 -1.1193  0.8531  0.9698
 3147TIP3    H2 9448   0.553   1.104   0.985 -0.6027 -0.7788 -1.8641
 3148TIP3   OH2 9449   1.764   3.347   3.960 -0.2684  0.4385 -0.3186
 3148TIP3    H1 9450   1.736   3.439   3.957 -0.1896  0.4493 -0.7459
 3148TIP3    H2 9451   1.802   3.337   4.047  0.6096  1.0743 -0.6153
 3149TIP3   OH2 9452   1.780   4.925   1.919  0.2264  0.0193  0.3369
 3149TIP3    H1 9453   1.827   4.988   1.864 -0.6537  1.4177  1.1287
 3149TIP3    H2 9454   1.733   4.870   1.856  0.4563  0.5874 -0.3564
 3150TIP3   OH2 9455   4.618   5.164   0.349  0.2781 -0.4977  0.0702
 3150TIP3    H1 9456   4.538   5.115   0.331 -1.0266  1.0498  1.3958
 3150TIP3    H2 9457   4.657   5.179   0.263 -1.2911 -0.5368 -0.6804
 3151TIP3   OH2 9458   3.146   1.103   0.465 -0.0925  0.1280 -0.0763
 3151TIP3    H1 9459   3.127   1.018   0.504 -2.0589  0.8661  0.6512
 3151TIP3    H2 9460   3.233   1.092   0.427 -0.1963 -2.1260  0.2044
 3152TIP3   OH2 9461   3.563   5.380   5.085 -0.4881  0.1753 -0.2587
 3152TIP3    H1 9462   3.539   5.311   5.146 -1.3306 -0.3996 -1.2180
 3152TIP3    H2 9463   3.492   5.444   5.091 -0.4554  0.2312 -0.4713
 3153TIP3   OH2 9464   5.210   2.852   0.885 -0.0240 -0.5164 -0.8531
 3153TIP3    H1 9465   5.244   2.817   0.967  0.6670 -1.1228 -1.3898
 3153TIP3    H2 9466   5.235   2.945   0.887  0.5429 -0.6673 -0.6579
 3154TIP3   OH2 9467   3.116   0.403   1.132  0.5985  0.2760  0.1772
 3154TIP3    H1 9468   3.121   0.423   1.226  0.1230 -1.2295  0.5475
 3154TIP3    H2 9469   3.060   0.325   1.127  1.4340 -0.2673 -1.2651
 3155TIP3   OH2 9470   0.506   2.328   2.847 -0.6856  0.2266 -0.0541
 3155TIP3    H1 9471   0.461   2.254   2.887 -2.8619  1.0286 -0.8942
 3155TIP3    H2 9472   0.484   2.403   2.902 -1.9130  0.9491 -1.4704
 3156TIP3   OH2 9473   6.033   3.021   0.487  0.0131 -0.8965  0.0321
 3156TIP3    H1 9474   6.030   3.035   0.392  0.5809  0.3376  0.1758
 3156TIP3    H2 9475   6.042   3.109   0.524  0.7951 -1.4385  1.1892
 3157TIP3   OH2 9476   6.014   2.959   3.946  0.4271  0.0912  0.2671
 3157TIP3    H1 9477   5.932   2.909   3.949 -1.2276  2.5670 -0.8509
 3157TIP3    H2 9478   6.014   3.009   4.028  0.9243 -0.0189  0.3383
 3158TIP3   OH2 9479   0.179   2.685   4.482  0.0868 -0.3515 -0.4329
 3158TIP3    H1 9480   0.138   2.770   4.464  1.5097  0.2256 -1.1222
 3158TIP3    H2 9481   0.233   2.668   4.405  0.9918 -1.1541  0.3566
 3159TIP3   OH2 9482   4.223   5.741   3.926  0.3594  0.3867 -0.5018
 3159TIP3    H1 9483   4.222   5.647   3.938 -1.0616  0.2379 -1.4783
 3159TIP3    H2 9484   4.268   5.775   4.003  0.4533 -1.0504  0.1019
 3160TIP3   OH2 9485   0.479   3.403   1.622 -0.1613  0.2064  0.0282
 3160TIP3    H1 9486   0.412   3.447   1.570 -1.3871  1.9716  2.8767
 3160TIP3    H2 9487   0.470   3.439   1.710  2.8357 -1.4288  1.1819
 3161TIP3   OH2 9488   1.930   2.018   0.284 -0.1166 -0.3353 -0.0693
 3161TIP3    H1 9489   2.023   2.010   0.309 -0.3058 -0.4626  0.6123
 3161TIP3    H2 9490   1.926   1.977   0.197  0.4630 -0.3350 -0.1065
 3162TIP3   OH2 9491   1.150   2.506   4.514 -0.1980 -0.2716  0.0923
 3162TIP3    H1 9492   1.131   2.423   4.556 -2.7087 -0.5172 -1.3807
 3162TIP3    H2 9493   1.067   2.535   4.477  1.2411  1.3298 -2.2036
 3163TIP3   OH2 9494   2.960   0.433   3.465  0.0698  0.2735 -0.0318
 3163TIP3    H1 9495   2.909   0.352   3.472  1.4124 -0.9252 -2.7769
 3163TIP3    H2 9496   2.895   0.503   3.471 -0.9993 -0.8291  3.7037
 3164TIP3   OH2 9497   1.638   4.714   3.103 -0.0154 -0.0011 -0.8439
 3164TIP3    H1 9498   1.579   4.784   3.131  1.0880  1.7828 -2.7048
 3164TIP3    H2 9499   1.581   4.650   3.060 -1.2106 -0.9835  1.9632
 3165TIP3   OH2 9500   5.506   0.571   1.714  0.0823 -0.1995 -0.4490
 3165TIP3    H1 9501   5.446   0.525   1.655 -0.9661  0.0402  0.4019
 3165TIP3    H2 9502   5.588   0.523   1.707 -0.6093 -1.4099 -0.5749
 3166TIP3   OH2 9503   5.060   2.107   1.425  0.0709  0.3106 -0.0719
 3166TIP3    H1 9504   4.996   2.078   1.490  2.3614  0.4603  2.4381
 3166TIP3    H2 9505   5.064   2.036   1.361 -1.6595 -0.2397  0.3847
 3167TIP3   OH2 9506   3.285   1.833   4.514 -0.5197  0.1392 -0.2703
 3167TIP3    H1 9507   3.306   1.849   4.606  0.8593 -2.0063 -0.1392
 3167TIP3    H2 9508   3.332   1.901   4.467 -0.9275  1.0278  0.5618
 3168TIP3   OH2 9509   5.975   5.664   4.126  0.0928 -0.2496  0.4101
 3168TIP3    H1 9510   6.000   5.583   4.170  0.4070 -0.5603 -0.3189
 3168TIP3    H2 9511   6.058   5.709   4.109 -0.0442 -0.0003  0.3903
 3169TIP3   OH2 9512   2.273   4.611   4.690  0.3092  0.1895 -0.1397
 3169TIP3    H1 9513   2.262   4.696   4.647  0.6548 -0.5484 -1.7618
 3169TIP3    H2 9514   2.210   4.613   4.762  0.7834  2.0664  0.2878
 3170TIP3   OH2 9515   0.740   1.425   3.441  0.5650  0.2023  0.0774
 3170TIP3    H1 9516   0.670   1.460   3.386  0.5724  0.1690  0.0470
 3170TIP3    H2 9517   0.803   1.387   3.380  1.0653  1.0601  0.0539
 3171TIP3   OH2 9518   2.258   3.758   0.688  0.2777  0.0135  0.1354
 3171TIP3    H1 9519   2.343   3.714   0.688  0.7289  0.8462  0.2946
 3171TIP3    H2 9520   2.200   3.701   0.638  1.1266 -0.2143 -0.6139
 3172TIP3   OH2 9521   3.211   3.580   0.591 -0.1416  0.0796 -0.3391
 3172TIP3    H1 9522   3.297   3.615   0.613  1.2693 -0.5968 -4.0697
 3172TIP3    H2 9523   3.215   3.488   0.619  0.2417  0.1040 -0.3035
 3173TIP3   OH2 9524   0.346   2.877  -0.011 -0.3459  0.6899  0.5009
 3173TIP3    H1 9525   0.355   2.783  -0.024  0.9219  0.7214  1.0200
 3173TIP3    H2 9526   0.285   2.885   0.063  0.3422  0.2320  1.1319
 3174TIP3   OH2 9527   4.909   3.124   4.072 -0.2187  0.0315 -0.1728
 3174TIP3    H1 9528   4.835   3.125   4.012  0.3030  1.8721 -0.8676
 3174TIP3    H2 9529   4.893   3.196   4.132  1.0837  0.6150 -0.4765
 3175TIP3   OH2 9530   0.302   0.193   1.587  0.1741 -0.0128 -0.0980
 3175TIP3    H1 9531   0.285   0.207   1.680  0.6385 -0.8867  0.1270
 3175TIP3    H2 9532   0.391   0.227   1.574 -0.0145  0.4071 -0.2940
 3176TIP3   OH2 9533   5.618   1.611   4.677 -0.3028  0.0134 -0.2652
 3176TIP3    H1 9534   5.681   1.547   4.646  0.8788  0.3634  1.2606
 3176TIP3    H2 9535   5.664   1.695   4.670 -2.0284  0.8454 -2.7881
 3177TIP3   OH2 9536   3.359   0.120   0.105 -0.5636 -0.5372  0.5253
 3177TIP3    H1 9537   3.356   0.213   0.129 -1.5509  0.4864 -3.0121
 3177TIP3    H2 9538   3.411   0.117   0.025 -1.7333 -2.8259 -0.2482
 3178TIP3   OH2 9539   0.009   2.738   3.208  0.2999 -0.1655 -0.0441
 3178TIP3    H1 9540   0.044   2.684   3.137 -0.0536 -0.7679  0.2257
 3178TIP3    H2 9541  -0.012   2.674   3.277 -2.5947 -0.0111 -0.6905
 3179TIP3   OH2 9542   0.688   2.912   3.723 -0.5809 -0.3327 -0.1568
 3179TIP3    H1 9543   0.663   2.980   3.785 -0.1647 -1.0103  0.7817
 3179TIP3    H2 9544   0.629   2.839   3.742 -1.8831  0.1776 -2.0138
 3180TIP3   OH2 9545   4.465   2.805   0.373  0.7337 -0.0482 -0.0945
 3180TIP3    H1 9546   4.538   2.817   0.312 -0.4177  0.6463 -1.3883
 3180TIP3    H2 9547   4.443   2.893   0.403 -0.6543 -0.0263 -1.0658
 3181TIP3   OH2 9548   5.389   5.571   3.691  0.0754 -0.1378  0.1035
 3181TIP3    H1 9549   5.296   5.551   3.684  0.0138  0.3921 -0.7525
 3181TIP3    H2 9550   5.433   5.489   3.671 -0.2015 -0.8358  2.1735
 3182TIP3   OH2 9551   4.980   3.619   0.564 -0.6043  0.4525 -0.8197
 3182TIP3    H1 9552   4.992   3.530   0.599  0.9307  0.5514 -1.0335
 3182TIP3    H2 9553   4.914   3.609   0.496  0.8594 -0.8953 -2.1169
 3183TIP3   OH2 9554   2.400   2.308   3.699  0.0314  0.0430  0.2166
 3183TIP3    H1 9555   2.388   2.391   3.744 -1.3293 -0.4828  0.8634
 3183TIP3    H2 9556   2.339   2.247   3.742  1.3073 -1.4147  0.0700
 3184TIP3   OH2 9557   1.392   4.942   0.238  0.3706 -0.3836  0.4756
 3184TIP3    H1 9558   1.440   4.994   0.302  0.9052 -1.0307  0.6098
 3184TIP3    H2 9559   1.425   4.853   0.249  0.9581 -0.4081 -1.1301
 3185TIP3   OH2 9560   2.364   1.850   3.670  0.5133 -0.2337  0.5409
 3185TIP3    H1 9561   2.435   1.804   3.625 -0.4286 -0.7912 -0.4235
 3185TIP3    H2 9562   2.305   1.876   3.599  0.2949  1.1971  1.2184
 3186TIP3   OH2 9563   4.875   1.606   4.799 -0.4482 -0.7533  0.6318
 3186TIP3    H1 9564   4.812   1.663   4.756  0.0300 -1.4209 -1.0654
 3186TIP3    H2 9565   4.945   1.664   4.829 -0.5677 -0.3059  0.0462
 3187TIP3   OH2 9566   5.750   4.090   0.232 -0.2514  0.0563  0.6350
 3187TIP3    H1 9567   5.690   4.106   0.159  1.2008 -0.8764 -0.8319
 3187TIP3    H2 9568   5.710   4.018   0.281 -0.4583 -0.4045 -0.1972
 3188TIP3   OH2 9569   3.498   5.796   0.640 -0.3752 -0.2670  1.1723
 3188TIP3    H1 9570   3.550   5.875   0.655  1.3836 -0.9230 -0.8546
 3188TIP3    H2 9571   3.439   5.791   0.715  0.2309  2.3292  1.9247
 3189TIP3   OH2 9572   5.165   1.713   3.610  0.2328  0.0034 -0.2062
 3189TIP3    H1 9573   5.179   1.764   3.530  1.2750 -0.4592 -0.3322
 3189TIP3    H2 9574   5.190   1.772   3.681 -1.7145  0.7928 -0.1212
 3190TIP3   OH2 9575   5.604   3.807   3.024  0.3621 -1.1977  0.0045
 3190TIP3    H1 9576   5.529   3.749   3.037  0.1678 -1.2204 -1.1249
 3190TIP3    H2 9577   5.677   3.761   3.065 -0.2980 -0.9830  1.4963
 3191TIP3   OH2 9578   0.736   3.705   3.967  0.3881  0.2719  0.0371
 3191TIP3    H1 9579   0.675   3.649   3.918 -0.7801  1.2328  0.3633
 3191TIP3    H2 9580   0.752   3.779   3.909  0.9320  0.2419  0.1372
 3192TIP3   OH2 9581   6.143   1.203   2.484  0.4154 -0.3757 -0.1459
 3192TIP3    H1 9582   6.235   1.197   2.458  0.0593 -0.1231 -1.5445
 3192TIP3    H2 9583   6.097   1.221   2.403 -0.9951 -1.5783  0.3523
 3193TIP3   OH2 9584   2.780   4.697   1.770  0.3205  0.2429 -0.1443
 3193TIP3    H1 9585   2.763   4.690   1.864  0.8650  0.8299  0.0118
 3193TIP3    H2 9586   2.849   4.763   1.764  0.2543  0.2445 -0.9635
 3194TIP3   OH2 9587   2.006   4.566   0.025  0.1266  0.0547 -0.3122
 3194TIP3    H1 9588   2.057   4.636   0.068 -0.0093  0.4952 -0.8637
 3194TIP3    H2 9589   2.000   4.593  -0.066 -1.2704  0.1133 -0.2247
 3195TIP3   OH2 9590   0.666   5.120   2.226  0.5599 -0.0586  0.0368
 3195TIP3    H1 9591   0.724   5.122   2.150  1.1967  1.6937  0.5348
 3195TIP3    H2 9592   0.721   5.087   2.297  0.5506  0.2505  0.1893
 3196TIP3   OH2 9593   3.035   2.296   3.427 -0.4299 -0.0702  0.6587
 3196TIP3    H1 9594   2.990   2.323   3.347 -0.6013  0.3057  0.8783
 3196TIP3    H2 9595   2.993   2.213   3.451 -0.8416  0.1541  0.7253
 3197TIP3   OH2 9596   1.864   4.634   3.214 -0.0920  0.1374  0.3545
 3197TIP3    H1 9597   1.839   4.681   3.294 -2.6350 -0.8384  0.2457
 3197TIP3    H2 9598   1.805   4.670   3.147  0.7832 -0.3177 -0.6909
 3198TIP3   OH2 9599   0.967   3.680   4.505 -0.3832  0.0159  0.5246
 3198TIP3    H1 9600   0.935   3.764   4.535 -0.5437 -0.6780  2.4315
 3198TIP3    H2 9601   0.999   3.697   4.416  0.2270  2.2273  1.0998
 3199TIP3   OH2 9602   0.354   2.034   1.191 -0.1598 -0.0015  0.2424
 3199TIP3    H1 9603   0.301   2.033   1.271  0.4583 -0.4159  0.6501
 3199TIP3    H2 9604   0.409   2.111   1.199  0.2442 -0.3056  0.4499
 3200TIP3   OH2 9605   4.387   0.473   1.086 -0.1097 -0.1949  0.1662
 3200TIP3    H1 9606   4.324   0.439   1.150 -1.1183  1.1972 -0.0341
 3200TIP3    H2 9607   4.333   0.497   1.010  0.7329  0.5518 -0.2170
 3201TIP3   OH2 9608   1.172   0.908   0.843  0.3789 -0.1605 -0.0782
 3201TIP3    H1 9609   1.235   0.980   0.844  0.9860 -0.6425  2.4423
 3201TIP3    H2 9610   1.224   0.829   0.859 -0.6929 -0.6907  0.9812
 3202TIP3   OH2 9611   3.458   1.715   1.321  0.2294 -0.1675  0.9330
 3202TIP3    H1 9612   3.418   1.680   1.401 -0.1280  0.0210  0.8381
 3202TIP3    H2 9613   3.480   1.806   1.343 -2.1251  0.6938  0.0673
 3203TIP3   OH2 9614   1.750   0.783   4.975  0.1847  0.1783  0.2170
 3203TIP3    H1 9615   1.710   0.869   4.983  1.7545  1.2144 -1.9289
 3203TIP3    H2 9616   1.700   0.740   4.906 -0.8196 -0.8194  1.5261
 3204TIP3   OH2 9617   3.566   1.273   4.701  0.2227  0.6066 -0.1873
 3204TIP3    H1 9618   3.471   1.284   4.713  0.2412  0.0207  0.6177
 3204TIP3    H2 9619   3.603   1.356   4.731 -0.0549  1.0124 -0.9387
 3205TIP3   OH2 9620   2.970   5.676   3.254  0.2013  0.1575  0.2221
 3205TIP3    H1 9621   2.910   5.647   3.323  0.2453  0.2460  0.2976
 3205TIP3    H2 9622   3.020   5.598   3.231  0.2186  0.1391  0.3233
 3206TIP3   OH2 9623   3.250   4.501   3.441  0.6617 -0.1644  0.0198
 3206TIP3    H1 9624   3.175   4.442   3.443  1.3370 -1.0375 -0.0515
 3206TIP3    H2 9625   3.273   4.508   3.348  0.6011  0.1969  0.0299
 3207TIP3   OH2 9626   5.650   2.884   3.363  0.4221 -0.0388 -0.1062
 3207TIP3    H1 9627   5.672   2.976   3.347  1.1093 -0.1226  0.2858
 3207TIP3    H2 9628   5.657   2.843   3.277 -0.4730  0.3774 -0.3917
 3208TIP3   OH2 9629   4.385   1.748   4.123  0.0232  0.1558  0.2078
 3208TIP3    H1 9630   4.430   1.752   4.207 -1.5997 -1.9448  1.2825
 3208TIP3    H2 9631   4.342   1.833   4.114  0.8562  0.6869  1.1025
 3209TIP3   OH2 9632   3.029   0.904   3.379 -0.1946  0.4983 -0.5902
 3209TIP3    H1 9633   3.014   0.811   3.366  1.8678  0.0941 -0.5189
 3209TIP3    H2 9634   3.044   0.912   3.474 -1.9361  1.1890 -0.3498
 3210TIP3   OH2 9635   3.008   2.263   1.010  0.3947  0.5580  0.4941
 3210TIP3    H1 9636   2.960   2.232   0.933  0.0178  1.7165  0.2396
 3210TIP3    H2 9637   3.090   2.213   1.009  0.0037 -0.0831 -0.1456
 3211TIP3   OH2 9638   4.769   0.359   4.884 -0.2288 -0.1954  0.2452
 3211TIP3    H1 9639   4.683   0.321   4.901 -0.5380  0.0240 -0.7989
 3211TIP3    H2 9640   4.826   0.283   4.869 -0.4581 -0.3056 -0.0675
 3212TIP3   OH2 9641   5.581   5.538   4.241  0.0458  0.8902  0.2154
 3212TIP3    H1 9642   5.540   5.553   4.156  0.7606  1.2938 -0.0643
 3212TIP3    H2 9643   5.614   5.624   4.268  2.0497  0.3299 -0.2821
 3213TIP3   OH2 9644   0.666   4.529   3.162  0.7454 -0.0514  1.0092
 3213TIP3    H1 9645   0.643   4.497   3.249  1.7081  0.5578  1.5060
 3213TIP3    H2 9646   0.722   4.461   3.125 -0.2398 -0.6443  0.5604
 3214TIP3   OH2 9647   3.844   4.828   2.936 -0.3950 -0.1933  0.4429
 3214TIP3    H1 9648   3.854   4.793   2.848  3.9684  0.3400  0.5142
 3214TIP3    H2 9649   3.875   4.919   2.930 -1.7033  0.4379  2.2289
 3215TIP3   OH2 9650   0.576   1.164   4.166  0.1660  0.2467  0.1955
 3215TIP3    H1 9651   0.516   1.214   4.110  2.4160  0.9755 -1.7391
 3215TIP3    H2 9652   0.635   1.230   4.202  3.0356 -0.7734 -2.1794
 3216TIP3   OH2 9653   0.428   5.865   4.966 -0.0218 -0.4596 -0.1109
 3216TIP3    H1 9654   0.386   5.782   4.944  0.0693 -0.9414  1.4451
 3216TIP3    H2 9655   0.367   5.932   4.935 -0.7461 -1.1194 -0.1381
 3217TIP3   OH2 9656   1.926   5.230   4.436 -0.7070  0.1861  0.1469
 3217TIP3    H1 9657   1.907   5.270   4.351 -1.6953 -2.2026 -0.8600
 3217TIP3    H2 9658   1.981   5.155   4.416  0.2199  0.3696  1.8136
 3218TIP3   OH2 9659   3.343   4.886   4.639 -0.1136  1.1930 -0.1957
 3218TIP3    H1 9660   3.415   4.835   4.675  0.7208  2.1632 -0.4516
 3218TIP3    H2 9661   3.341   4.966   4.691 -1.8419  0.6504  0.6536
 3219TIP3   OH2 9662   3.380   5.479   2.077  0.4198  0.0866 -0.4854
 3219TIP3    H1 9663   3.393   5.525   1.994  2.2264  1.4662  0.4807
 3219TIP3    H2 9664   3.315   5.531   2.124  1.5221  0.9969  0.0869
 3220TIP3   OH2 9665   3.754   1.798   2.990 -0.2278 -0.1951  0.8334
 3220TIP3    H1 9666   3.708   1.881   2.978  0.6977  0.3775  1.1427
 3220TIP3    H2 9667   3.691   1.743   3.036 -0.8020  0.3827  0.7601
 3221TIP3   OH2 9668   2.508   5.403   4.392  0.1461 -0.1308  0.3647
 3221TIP3    H1 9669   2.430   5.454   4.413  0.0208 -0.3257  0.3737
 3221TIP3    H2 9670   2.576   5.468   4.378 -0.1656  0.0719 -0.2604
 3222TIP3   OH2 9671   2.899   4.614   0.538  0.0827 -0.6505  0.0799
 3222TIP3    H1 9672   2.944   4.558   0.602 -0.5094 -1.2164  0.0162
 3222TIP3    H2 9673   2.969   4.658   0.491  0.5821 -1.6721 -0.1541
 3223TIP3   OH2 9674   4.661   2.514   2.718 -0.4916  0.3866 -0.0091
 3223TIP3    H1 9675   4.672   2.605   2.745 -2.3395  0.4992  0.5314
 3223TIP3    H2 9676   4.566   2.501   2.717 -0.2552 -1.9407  1.3162
 3224TIP3   OH2 9677   6.293   3.817   0.962  0.0073 -0.0090  0.1327
 3224TIP3    H1 9678   6.363   3.877   0.984  0.0960  0.5267 -1.4776
 3224TIP3    H2 9679   6.334   3.753   0.904 -1.3000  1.8860 -3.1613
 3225TIP3   OH2 9680   4.170   0.897   4.675 -0.3295 -0.1891 -0.2091
 3225TIP3    H1 9681   4.172   0.816   4.726 -1.7835  0.2037  0.5247
 3225TIP3    H2 9682   4.138   0.963   4.737  1.1130  1.0261 -0.7095
 3226TIP3   OH2 9683   5.205   3.684   5.082  0.4624 -0.6424  0.4544
 3226TIP3    H1 9684   5.276   3.638   5.036 -1.1057 -1.1484 -1.6307
 3226TIP3    H2 9685   5.126   3.634   5.060 -1.1452  2.2104 -0.8597
 3227TIP3   OH2 9686   1.585   5.239   2.109 -0.3357  0.1695  0.0983
 3227TIP3    H1 9687   1.524   5.310   2.128 -0.2396 -0.2322  2.2033
 3227TIP3    H2 9688   1.564   5.172   2.174  2.3870  0.0713  0.9872
 3228TIP3   OH2 9689   4.327   4.991   3.553  0.2326  0.0269 -0.1043
 3228TIP3    H1 9690   4.387   4.959   3.485  0.0819  0.8345 -0.6368
 3228TIP3    H2 9691   4.279   5.062   3.510 -1.3579 -0.8133  0.2014
 3229TIP3   OH2 9692   3.207   2.612   1.700 -0.1565 -0.2427 -0.2822
 3229TIP3    H1 9693   3.262   2.616   1.778  1.0118 -1.0844 -1.0401
 3229TIP3    H2 9694   3.242   2.678   1.642  1.4198 -2.1214 -1.5871
 3230TIP3   OH2 9695   2.627   0.789   0.623  0.1153  0.0543 -0.3449
 3230TIP3    H1 9696   2.564   0.831   0.683 -0.2747  0.5810 -1.1017
 3230TIP3    H2 9697   2.706   0.842   0.631 -0.9100  2.1644 -2.6131
 3231TIP3   OH2 9698   0.130   2.825   2.917 -0.3027 -0.0450  0.0994
 3231TIP3    H1 9699   0.094   2.909   2.945 -0.2531  0.0536 -0.1303
 3231TIP3    H2 9700   0.224   2.832   2.934 -0.3807 -0.2901  0.6668
 3232TIP3   OH2 9701   3.296   2.425   3.212  0.0863 -0.1372 -0.1301
 3232TIP3    H1 9702   3.226   2.487   3.232 -0.0131 -0.7640  1.7100
 3232TIP3    H2 9703   3.357   2.474   3.158  0.1225  1.6689  1.4544
 3233TIP3   OH2 9704   1.253   2.308   1.067  0.0816 -0.0400  0.4053
 3233TIP3    H1 9705   1.246   2.243   1.137  0.8977  0.1398  0.6726
 3233TIP3    H2 9706   1.306   2.378   1.105 -0.8781  0.8479  0.1644
 3234TIP3   OH2 9707   1.874   1.535   0.578 -0.3834  0.7622 -0.2870
 3234TIP3    H1 9708   1.826   1.471   0.630  0.0344  0.8022  0.1542
 3234TIP3    H2 9709   1.885   1.610   0.636  0.4084  0.6626 -0.3005
 3235TIP3   OH2 9710   3.079   5.098   0.268 -0.6672  0.3528  0.2869
 3235TIP3    H1 9711   3.013   5.071   0.332  0.3291 -1.3011  0.6629
 3235TIP3    H2 9712   3.162   5.087   0.314 -0.0342  1.1586 -0.6219
 3236TIP3   OH2 9713   0.910   5.572   1.969 -0.2532 -0.5145 -0.2756
 3236TIP3    H1 9714   0.948   5.574   2.057 -1.1619  0.1993  0.1157
 3236TIP3    H2 9715   0.964   5.509   1.921  1.6083  0.6649  0.1623
 3237TIP3   OH2 9716   0.584   4.580   2.139 -0.1751  0.2215  0.1630
 3237TIP3    H1 9717   0.630   4.512   2.089 -3.3443 -0.3924 -2.2029
 3237TIP3    H2 9718   0.611   4.662   2.097  1.3446  0.2278  1.0753
 3238TIP3   OH2 9719   4.023   5.620   2.450 -0.4558 -0.2366 -0.4504
 3238TIP3    H1 9720   4.102   5.568   2.464  0.5669  1.8932  2.9517
 3238TIP3    H2 9721   3.954   5.573   2.497 -0.4424 -0.4480 -0.6424
 3239TIP3   OH2 9722   1.667   1.973   4.793  0.0110  0.2815 -0.6083
 3239TIP3    H1 9723   1.727   2.009   4.727 -0.9934  0.6780 -1.3290
 3239TIP3    H2 9724   1.580   1.998   4.762 -0.5913 -1.0048 -0.0264
 3240TIP3   OH2 9725   3.372   0.347   1.357 -0.0910 -0.4200 -0.0661
 3240TIP3    H1 9726   3.369   0.277   1.423 -2.9831 -0.4902 -0.1232
 3240TIP3    H2 9727   3.301   0.406   1.381 -0.1951  0.4341 -2.1937
 3241TIP3   OH2 9728   0.468   3.158   2.873  0.3993 -0.1375 -0.1184
 3241TIP3    H1 9729   0.477   3.113   2.789 -0.6470 -1.8572  0.6286
 3241TIP3    H2 9730   0.554   3.199   2.887  0.7486 -0.2310 -1.7688
 3242TIP3   OH2 9731   2.449   0.395   4.804  0.3368  0.3017  0.9599
 3242TIP3    H1 9732   2.449   0.329   4.874 -0.6922 -0.0354  0.6627
 3242TIP3    H2 9733   2.357   0.419   4.793  0.0830 -1.4990 -1.9479
 3243TIP3   OH2 9734   0.871   3.306   4.182  0.3131  0.1848  0.2133
 3243TIP3    H1 9735   0.894   3.292   4.091  0.4479 -0.4335  0.3335
 3243TIP3    H2 9736   0.804   3.239   4.200  0.8545 -0.2112  0.7766
 3244TIP3   OH2 9737   3.544   1.528   0.375 -0.4052 -0.2886 -0.3933
 3244TIP3    H1 9738   3.595   1.465   0.325 -1.6195 -1.3060 -0.3928
 3244TIP3    H2 9739   3.462   1.537   0.325 -0.5018  0.8187 -0.0642
 3245TIP3   OH2 9740   6.193   3.199   1.667  0.2224 -0.0686  0.7889
 3245TIP3    H1 9741   6.123   3.158   1.615  0.2345 -1.0685  1.5207
 3245TIP3    H2 9742   6.173   3.292   1.666  0.6386  0.0711 -1.6385
 3246TIP3   OH2 9743   0.632   2.887   3.372 -0.2972  0.7019  0.4215
 3246TIP3    H1 9744   0.694   2.837   3.425  1.8494 -0.8734 -3.1880
 3246TIP3    H2 9745   0.552   2.835   3.373  0.6872 -0.9030 -0.2307
 3247TIP3   OH2 9746   1.671   4.612   2.304 -0.0935  0.2227 -0.5312
 3247TIP3    H1 9747   1.698   4.697   2.267  0.7279 -0.9238 -2.7320
 3247TIP3    H2 9748   1.591   4.590   2.257 -0.6217 -0.0000  0.4407
 3248TIP3   OH2 9749   5.577   3.640   4.335  0.5939  0.1670  0.0739
 3248TIP3    H1 9750   5.488   3.619   4.308  0.0289 -0.4092  2.1791
 3248TIP3    H2 9751   5.612   3.693   4.263 -1.3820  0.2930 -0.8693
 3249TIP3   OH2 9752   2.830   3.272   2.029 -0.0677 -0.1336 -0.2250
 3249TIP3    H1 9753   2.785   3.190   2.009  0.5598 -0.2172 -1.4132
 3249TIP3    H2 9754   2.773   3.317   2.091 -0.3306 -1.5437  0.5823
 3250TIP3   OH2 9755   4.903   4.125   4.580  0.0402  0.4467  0.1809
 3250TIP3    H1 9756   4.879   4.109   4.671 -1.0460  0.3259 -0.1166
 3250TIP3    H2 9757   4.833   4.180   4.546  0.0237 -0.1498 -0.7928
 3251TIP3   OH2 9758   2.832   2.368   4.393 -0.1858  0.4166  0.2208
 3251TIP3    H1 9759   2.830   2.273   4.407 -2.3119  0.3962  0.2251
 3251TIP3    H2 9760   2.884   2.402   4.466  2.0389 -0.8214 -0.6874
 3252TIP3   OH2 9761   4.961   0.433   2.533  0.0332  0.5660  0.4009
 3252TIP3    H1 9762   4.936   0.501   2.596  1.1021 -1.1370  2.7876
 3252TIP3    H2 9763   5.021   0.477   2.474 -1.3281  2.3318  0.2283
 3253TIP3   OH2 9764   2.765   4.161   2.607  0.1420 -0.0300 -0.0840
 3253TIP3    H1 9765   2.822   4.088   2.630 -0.8884 -0.4138  1.3498
 3253TIP3    H2 9766   2.767   4.164   2.511  0.6942 -1.5289 -0.1343
 3254TIP3   OH2 9767   0.112   1.652   4.223  0.0535  0.1251  0.7287
 3254TIP3    H1 9768   0.042   1.600   4.262  0.5334 -0.0905  1.3168
 3254TIP3    H2 9769   0.070   1.696   4.149 -0.9017  0.6087  1.5311
 3255TIP3   OH2 9770   5.457   2.356   1.684 -0.3099 -0.9421  0.3194
 3255TIP3    H1 9771   5.373   2.335   1.643 -0.7087  1.3020 -0.1626
 3255TIP3    H2 9772   5.475   2.446   1.656  2.2577 -1.3486  0.4359
 3256TIP3   OH2 9773   1.953   4.527   2.283  0.0176 -0.4288 -0.3163
 3256TIP3    H1 9774   1.865   4.564   2.288 -0.3748 -1.3624 -0.1019
 3256TIP3    H2 9775   1.942   4.446   2.233  0.6228 -0.9446  0.3647
 3257TIP3   OH2 9776   4.981   4.017   2.940 -0.4726 -0.3957 -0.5086
 3257TIP3    H1 9777   5.001   4.102   2.979 -0.1929 -0.2742 -0.9068
 3257TIP3    H2 9778   5.001   3.953   3.008 -0.5489 -0.1518 -0.2569
 3258TIP3   OH2 9779   3.731   4.014   4.571 -0.5893 -0.5404 -0.0938
 3258TIP3    H1 9780   3.754   4.042   4.482  1.2716 -0.3375  0.4007
 3258TIP3    H2 9781   3.671   4.082   4.602 -0.0999  0.1928 -0.6974
 3259TIP3   OH2 9782   1.997   3.538   3.668  0.1315 -0.2276 -0.0286
 3259TIP3    H1 9783   1.944   3.536   3.588  2.1880  2.8885 -1.6780
 3259TIP3    H2 9784   2.001   3.631   3.691  4.7674 -0.2331 -0.0499
 3260TIP3   OH2 9785   1.199   0.397   0.434  0.4293  0.5782  0.4624
 3260TIP3    H1 9786   1.171   0.360   0.518 -0.8540  0.8092  0.1626
 3260TIP3    H2 9787   1.285   0.358   0.418 -0.6253 -1.9105  0.3955
 3261TIP3   OH2 9788   2.891   2.696   4.984 -0.3783  0.3653 -0.4158
 3261TIP3    H1 9789   2.984   2.704   5.004 -0.4764  2.0942 -0.5241
 3261TIP3    H2 9790   2.875   2.601   4.982  1.1502  0.0536  0.5662
 3262TIP3   OH2 9791   1.920   3.085   0.895 -0.0084  0.7138  1.1157
 3262TIP3    H1 9792   1.935   3.128   0.979  0.7449  0.0072  1.3622
 3262TIP3    H2 9793   1.901   2.994   0.918 -1.1952  0.8157  0.5874
 3263TIP3   OH2 9794   1.165   0.502   2.378 -0.3275 -0.4279  1.3499
 3263TIP3    H1 9795   1.182   0.596   2.364 -1.8366 -0.4087 -0.8329
 3263TIP3    H2 9796   1.123   0.498   2.464  0.9958  0.6985  2.1023
 3264TIP3   OH2 9797   2.132   1.507   3.255 -0.0328 -0.6787 -0.6878
 3264TIP3    H1 9798   2.156   1.415   3.249  1.1216 -0.4421 -0.0513
 3264TIP3    H2 9799   2.202   1.547   3.306 -0.1115  0.7043 -1.5977
 3265TIP3   OH2 9800   0.470   2.043   3.567  0.3945 -0.5565 -0.2303
 3265TIP3    H1 9801   0.446   2.103   3.497 -0.7483 -0.8472 -0.1214
 3265TIP3    H2 9802   0.540   1.989   3.530  0.2733 -0.2569 -0.9126
 3266TIP3   OH2 9803   1.731   2.404   3.772  0.3471 -0.2055  0.7784
 3266TIP3    H1 9804   1.757   2.401   3.864  0.0666 -0.1255  0.8611
 3266TIP3    H2 9805   1.740   2.314   3.741  0.9411 -0.1393  0.7426
 3267TIP3   OH2 9806   0.217   1.404   4.262  0.1416 -0.2829 -0.4193
 3267TIP3    H1 9807   0.208   1.499   4.259  1.6372 -0.1294 -1.2590
 3267TIP3    H2 9808   0.252   1.386   4.349  1.9086  0.1945 -0.9799
 3268TIP3   OH2 9809   4.270   1.465   2.897 -0.0424 -0.2825 -0.2319
 3268TIP3    H1 9810   4.193   1.518   2.876  0.4578 -0.1199 -1.7361
 3268TIP3    H2 9811   4.255   1.436   2.987 -0.9291  1.3536  0.1858
 3269TIP3   OH2 9812   2.696   1.347   2.178 -0.5288  0.3299 -0.3277
 3269TIP3    H1 9813   2.728   1.327   2.090  0.8279  2.4167 -0.3801
 3269TIP3    H2 9814   2.671   1.439   2.174 -2.2371 -0.0265  0.9962
 3270TIP3   OH2 9815   2.146   1.749   1.262  0.2517  0.7830  0.2479
 3270TIP3    H1 9816   2.065   1.736   1.212 -0.0756  1.6683  0.5262
 3270TIP3    H2 9817   2.120   1.735   1.353  0.8003 -0.6183  0.2117
 3271TIP3   OH2 9818   6.024   3.437   2.173  0.2414  0.1503 -0.0769
 3271TIP3    H1 9819   6.073   3.365   2.213  1.2658  1.7064  1.6315
 3271TIP3    H2 9820   5.935   3.426   2.205  0.4088 -0.3211  0.2358
 3272TIP3   OH2 9821   5.633   0.910   0.006  0.2840 -0.1850  0.2015
 3272TIP3    H1 9822   5.651   0.821  -0.023 -2.4763 -0.7301 -0.1420
 3272TIP3    H2 9823   5.628   0.904   0.102  1.8362  0.0063  0.3130
 3273TIP3   OH2 9824   5.759   3.259   0.419  0.5121  0.6880  0.8522
 3273TIP3    H1 9825   5.839   3.290   0.461  0.2948  0.5892  1.3445
 3273TIP3    H2 9826   5.725   3.335   0.373  1.6684  0.3713 -0.5995
 3274TIP3   OH2 9827   0.156   5.995   2.400  0.2572 -0.0663  0.7201
 3274TIP3    H1 9828   0.077   6.037   2.435 -0.4083 -0.1985 -0.5399
 3274TIP3    H2 9829   0.151   5.905   2.433 -0.3237 -0.1748  0.3632
 3275TIP3   OH2 9830   1.960   3.928   2.448 -0.4284 -0.0096 -0.6647
 3275TIP3    H1 9831   1.971   4.006   2.393 -0.3503  0.0470 -0.5707
 3275TIP3    H2 9832   1.867   3.928   2.471 -0.3199  0.3791 -0.1970
 3276TIP3   OH2 9833   5.967   4.651   0.514 -0.0491 -0.2107 -0.1302
 3276TIP3    H1 9834   5.946   4.705   0.438  0.2335 -1.4939 -1.1565
 3276TIP3    H2 9835   6.041   4.597   0.485  0.7867  0.0463  1.4320
 3277TIP3   OH2 9836   4.840   0.838   1.366  0.1919 -0.2832  0.0609
 3277TIP3    H1 9837   4.921   0.798   1.397  0.3457  0.0330  0.0756
 3277TIP3    H2 9838   4.775   0.768   1.372  0.7870 -1.0044 -1.4459
 3278TIP3   OH2 9839   2.016   1.936   5.052  0.0412  0.3302  0.2908
 3278TIP3    H1 9840   2.054   1.935   5.140  0.7110 -1.5452  0.0229
 3278TIP3    H2 9841   2.090   1.942   4.993 -0.2909 -0.1804 -0.1847
 3279TIP3   OH2 9842   4.708   5.430   3.436 -0.5981 -0.6932  0.5300
 3279TIP3    H1 9843   4.653   5.382   3.497  0.4688 -1.5942  0.8065
 3279TIP3    H2 9844   4.778   5.466   3.490 -0.1825 -0.6696 -0.0186
 3280TIP3   OH2 9845   5.328   4.808   4.311  0.1056 -0.4183 -0.1823
 3280TIP3    H1 9846   5.339   4.803   4.216  1.5659 -2.0895  0.0182
 3280TIP3    H2 9847   5.346   4.899   4.333 -1.4068  0.2807 -1.5983
 3281TIP3   OH2 9848   0.225   2.608   0.058  0.3163  0.0661  0.3071
 3281TIP3    H1 9849   0.130   2.621   0.055  0.0975 -1.2201  0.8291
 3281TIP3    H2 9850   0.245   2.559  -0.022  0.5104  0.1545  0.3018
 3282TIP3   OH2 9851   5.856   4.914   2.036  0.1975  0.1650 -0.0184
 3282TIP3    H1 9852   5.763   4.936   2.031 -0.0369 -0.2966  1.6555
 3282TIP3    H2 9853   5.868   4.879   2.124  2.0711  0.6991 -0.0023
 3283TIP3   OH2 9854   4.738   0.359   3.145 -0.0288 -0.2811 -0.4221
 3283TIP3    H1 9855   4.681   0.422   3.188  0.7017 -0.3667  0.7081
 3283TIP3    H2 9856   4.720   0.371   3.052 -0.7332  0.7872 -0.1732
 3284TIP3   OH2 9857   0.382   4.561   1.876 -0.0743  0.5714  0.1315
 3284TIP3    H1 9858   0.442   4.525   1.942 -0.2725 -1.5229 -0.7439
 3284TIP3    H2 9859   0.302   4.510   1.886 -0.0224  0.0111 -1.8673
 3285TIP3   OH2 9860   1.110   3.450   4.607  0.2967 -0.0699 -0.5045
 3285TIP3    H1 9861   1.063   3.532   4.590 -1.6419 -1.1839 -0.7176
 3285TIP3    H2 9862   1.079   3.390   4.540 -0.4278 -1.8058  1.2969
 3286TIP3   OH2 9863   0.413   5.201   3.440  0.4205  0.1542  0.2326
 3286TIP3    H1 9864   0.418   5.108   3.464  0.0325  0.0881  0.0728
 3286TIP3    H2 9865   0.483   5.213   3.376  0.5187 -0.0129  0.3087
 3287TIP3   OH2 9866   2.212   0.969   0.212 -0.6908 -0.0545  0.0165
 3287TIP3    H1 9867   2.125   0.964   0.252 -0.0455 -2.3816  1.3689
 3287TIP3    H2 9868   2.218   0.889   0.161 -0.1072  1.1400 -1.8522
 3288TIP3   OH2 9869   0.949   3.068   3.689 -0.2458  0.0908 -0.3525
 3288TIP3    H1 9870   0.863   3.027   3.676  0.1876 -1.7700  1.9569
 3288TIP3    H2 9871   0.933   3.161   3.677 -2.6236 -0.1820  0.1302
 3289TIP3   OH2 9872   1.825   2.626   1.572 -0.3493  0.1569 -0.0800
 3289TIP3    H1 9873   1.754   2.669   1.620 -1.1789 -1.3633  0.1045
 3289TIP3    H2 9874   1.851   2.690   1.506 -0.0636  1.7880  1.5479
 3290TIP3   OH2 9875   1.741   0.875   4.571 -0.1055 -1.0577 -0.4533
 3290TIP3    H1 9876   1.715   0.967   4.576 -0.6835 -1.2443  0.1847
 3290TIP3    H2 9877   1.771   0.864   4.481 -1.0238 -0.4941 -0.8443
 3291TIP3   OH2 9878   6.232   3.628   3.059 -0.2062 -0.0154 -0.5475
 3291TIP3    H1 9879   6.223   3.533   3.066  0.3611 -0.0739 -0.5283
 3291TIP3    H2 9880   6.249   3.643   2.966 -2.5095  0.2805 -0.9683
 3292TIP3   OH2 9881   2.736   0.791   5.181 -0.0483  0.2995  0.2515
 3292TIP3    H1 9882   2.707   0.838   5.102  1.9694  1.8665  0.3622
 3292TIP3    H2 9883   2.762   0.705   5.149 -2.6673 -0.4404 -0.1540
 3293TIP3   OH2 9884   4.630   4.854   3.992 -0.1212 -0.0005 -0.6036
 3293TIP3    H1 9885   4.551   4.852   4.047  0.1529 -0.9989 -0.2218
 3293TIP3    H2 9886   4.679   4.776   4.018  0.1030 -0.4166 -2.1371
 3294TIP3   OH2 9887   6.185   2.073   4.473 -0.4757  0.5285  0.3948
 3294TIP3    H1 9888   6.153   2.145   4.528 -1.0095  0.5922  0.0052
 3294TIP3    H2 9889   6.126   2.000   4.494 -2.3606  1.2470 -1.9356
 3295TIP3   OH2 9890   5.323   0.514   4.176 -0.7335 -0.4272 -0.4025
 3295TIP3    H1 9891   5.292   0.525   4.086 -0.1680 -0.9841 -0.6804
 3295TIP3    H2 9892   5.280   0.434   4.207  1.2006 -1.8466 -1.1813
 3296TIP3   OH2 9893   5.975   2.514   0.859 -0.0261  0.0754  0.0860
 3296TIP3    H1 9894   5.952   2.603   0.830  1.4384  0.9451  1.4196
 3296TIP3    H2 9895   5.915   2.495   0.931 -1.2188 -0.5890 -1.0480
 3297TIP3   OH2 9896   0.754   5.960   1.168 -0.5755  0.4198  0.0814
 3297TIP3    H1 9897   0.774   5.939   1.077 -2.4708  1.3214 -0.6030
 3297TIP3    H2 9898   0.781   5.883   1.217  0.7531  0.0257 -1.1758
 3298TIP3   OH2 9899   0.677   4.735   0.980 -0.0693  0.0588 -0.2406
 3298TIP3    H1 9900   0.736   4.714   0.908  0.3476  1.0004 -0.1867
 3298TIP3    H2 9901   0.718   4.809   1.025  0.4420 -1.4137  1.8667
 3299TIP3   OH2 9902   4.438   2.307   0.046  0.2956 -0.0821 -0.2027
 3299TIP3    H1 9903   4.416   2.284   0.137  0.3264 -0.0825 -0.1953
 3299TIP3    H2 9904   4.366   2.270  -0.006 -0.0489  0.4631 -0.1229
 3300TIP3   OH2 9905   2.352   1.803   4.614 -0.3475  0.3402 -0.3343
 3300TIP3    H1 9906   2.354   1.773   4.524 -0.8162  0.7163 -0.4775
 3300TIP3    H2 9907   2.314   1.891   4.609  0.6570  0.8184  0.1071
 3301TIP3   OH2 9908   4.754   4.155   3.937 -0.1113  0.1482  0.4418
 3301TIP3    H1 9909   4.757   4.194   4.024 -1.5007 -0.3546  0.7405
 3301TIP3    H2 9910   4.682   4.201   3.893 -1.7930 -1.9957  0.8030
 3302TIP3   OH2 9911   3.193   5.380   1.499 -0.1818 -0.1284 -0.5365
 3302TIP3    H1 9912   3.099   5.374   1.518 -0.4822 -0.4690 -2.0054
 3302TIP3    H2 9913   3.235   5.388   1.585 -1.3332 -2.7114  0.3486
 3303TIP3   OH2 9914   6.281   4.064   2.819  0.3070 -0.3503  0.3018
 3303TIP3    H1 9915   6.317   4.036   2.735  0.7149 -1.8350  0.9448
 3303TIP3    H2 9916   6.326   4.146   2.838  0.0745  0.0983 -0.9999
 3304TIP3   OH2 9917   3.761   5.596   3.134  0.3539  0.4246 -0.0553
 3304TIP3    H1 9918   3.690   5.599   3.198  0.7304 -2.9273  0.7073
 3304TIP3    H2 9919   3.742   5.668   3.074 -1.6465  1.8803  2.1407
 3305TIP3   OH2 9920   5.509   3.182   4.550  0.7462  0.3993 -0.3438
 3305TIP3    H1 9921   5.598   3.161   4.523  1.5102  1.5005  1.1885
 3305TIP3    H2 9922   5.502   3.148   4.639  0.3608  2.1922  0.3441
 3306TIP3   OH2 9923   1.209   3.984   1.156 -0.0826 -0.6901  0.0521
 3306TIP3    H1 9924   1.250   3.955   1.238  2.6491  0.8271 -0.6530
 3306TIP3    H2 9925   1.192   4.077   1.169 -1.6631 -0.8926 -0.3897
 3307TIP3   OH2 9926   5.219   5.964   4.720 -0.0113  0.1600  0.0659
 3307TIP3    H1 9927   5.224   5.886   4.776  0.5513 -0.1924 -0.4661
 3307TIP3    H2 9928   5.201   5.930   4.633  1.6646  0.4892 -0.4518
 3308TIP3   OH2 9929   4.010   2.818   1.083  0.1786  0.0671  0.1544
 3308TIP3    H1 9930   3.984   2.815   1.175  1.3045 -0.3148  0.4811
 3308TIP3    H2 9931   4.084   2.878   1.081  0.8446 -0.7377 -0.3083
 3309TIP3   OH2 9932   3.482   2.030   1.244 -0.3585  0.1346  0.2641
 3309TIP3    H1 9933   3.399   2.051   1.288 -0.1112  0.4439  0.5938
 3309TIP3    H2 9934   3.517   2.115   1.217 -0.2321 -0.0090 -0.0335
 3310TIP3   OH2 9935   0.270   5.029   5.141  0.0508 -0.0052  0.1357
 3310TIP3    H1 9936   0.250   5.051   5.232  0.1000  0.3591  0.0600
 3310TIP3    H2 9937   0.362   5.000   5.144  0.6313  1.6813 -0.0595
 3311TIP3   OH2 9938   0.356   4.259   0.708 -0.0828 -0.1102 -0.0759
 3311TIP3    H1 9939   0.369   4.353   0.699 -0.3745  0.0392  0.9049
 3311TIP3    H2 9940   0.339   4.228   0.619  0.1174  0.7419 -0.4203
 3312TIP3   OH2 9941   5.576   0.483   0.700  0.2150 -0.0160  0.0945
 3312TIP3    H1 9942   5.523   0.439   0.633  0.5906  0.6540 -0.6664
 3312TIP3    H2 9943   5.526   0.561   0.724  0.5413  0.2795 -0.1587
 3313TIP3   OH2 9944   3.185   4.201   1.089 -0.3181 -0.7825  0.7963
 3313TIP3    H1 9945   3.106   4.255   1.096 -0.7383 -1.1148 -0.9603
 3313TIP3    H2 9946   3.209   4.206   0.996  1.4371 -1.1111  1.1958
 3314TIP3   OH2 9947   2.180   4.275   3.333 -0.2225 -0.1974 -0.3971
 3314TIP3    H1 9948   2.147   4.259   3.245 -1.2845 -0.8051  0.0821
 3314TIP3    H2 9949   2.274   4.283   3.323 -0.4389  0.9578 -1.7442
 3315TIP3   OH2 9950   6.305   0.359   2.769  0.3606  0.4171  0.3614
 3315TIP3    H1 9951   6.263   0.285   2.814  0.8231  0.2579  0.5398
 3315TIP3    H2 9952   6.233   0.404   2.724  0.1935 -0.6258 -0.4393
 3316TIP3   OH2 9953   4.131   3.517   3.456 -0.4576  0.0521 -0.0405
 3316TIP3    H1 9954   4.082   3.475   3.385 -2.9508  1.3487  0.8009
 3316TIP3    H2 9955   4.111   3.464   3.533  0.9851 -0.4588 -0.0034
 3317TIP3   OH2 9956   2.255   3.096   2.016  0.5861 -0.6836  0.5211
 3317TIP3    H1 9957   2.293   3.161   2.076 -1.2489  0.1238  0.8752
 3317TIP3    H2 9958   2.289   3.120   1.930 -0.5098  1.1788  0.5464
 3318TIP3   OH2 9959   0.633   1.780   3.827 -0.1784  0.5017 -0.0851
 3318TIP3    H1 9960   0.627   1.704   3.771 -0.7245  0.4501  0.0393
 3318TIP3    H2 9961   0.711   1.827   3.796  0.0605 -0.0090 -0.2709
 3319TIP3   OH2 9962   2.887   1.152   5.009  0.3204  0.6623  0.2581
 3319TIP3    H1 9963   2.929   1.230   5.044  0.0733  0.1059  1.8709
 3319TIP3    H2 9964   2.821   1.129   5.074  0.4439 -0.9286 -0.1360
 3320TIP3   OH2 9965   3.077   5.412   1.941 -0.1836  0.4193  0.0683
 3320TIP3    H1 9966   3.110   5.347   1.878  0.0122 -1.0580  1.5978
 3320TIP3    H2 9967   3.103   5.496   1.905 -0.2195 -0.3594 -1.8824
 3321TIP3   OH2 9968   2.465   4.386   3.883  0.1289  0.0023  0.5814
 3321TIP3    H1 9969   2.490   4.462   3.833 -1.2499  0.0373 -0.1091
 3321TIP3    H2 9970   2.545   4.334   3.892  0.7906  0.9113 -0.0197
 3322TIP3   OH2 9971   0.634   1.647   0.446  0.5210  0.0819 -0.3910
 3322TIP3    H1 9972   0.635   1.552   0.457 -0.4703  0.0623 -0.4038
 3322TIP3    H2 9973   0.713   1.677   0.490  1.0027 -0.7737 -0.6488
 3323TIP3   OH2 9974   1.975   3.182   2.344  0.3408 -0.1960  0.7204
 3323TIP3    H1 9975   2.054   3.131   2.360 -1.4099 -2.5898  2.4218
 3323TIP3    H2 9976   1.976   3.250   2.411  1.6239  0.7345 -0.1991
 3324TIP3   OH2 9977   2.881   1.119   3.776 -0.5225  0.5838  0.1040
 3324TIP3    H1 9978   2.926   1.098   3.694 -0.8823 -2.8050  0.6371
 3324TIP3    H2 9979   2.789   1.128   3.751 -0.6044 -0.2533  0.0840
 3325TIP3   OH2 9980   4.091   3.665   2.593 -0.0412  0.2255  0.2016
 3325TIP3    H1 9981   4.071   3.599   2.659 -3.5452  1.4762  0.5850
 3325TIP3    H2 9982   4.008   3.681   2.549  1.2786  2.4458 -1.7167
 3326TIP3   OH2 9983   3.766   1.350   4.506  0.6334 -0.3868 -0.6704
 3326TIP3    H1 9984   3.814   1.391   4.577  1.0434  1.3044 -1.8828
 3326TIP3    H2 9985   3.695   1.301   4.549  1.4341 -0.1718  0.9189
 3327TIP3   OH2 9986   6.219   1.211   4.359  0.8398 -0.0101 -0.2151
 3327TIP3    H1 9987   6.282   1.223   4.430  1.0756 -0.2338 -0.3826
 3327TIP3    H2 9988   6.251   1.134   4.312  0.1088 -0.4759  0.0426
 3328TIP3   OH2 9989   5.026   0.779   4.840  0.3933  0.4208 -0.2388
 3328TIP3    H1 9990   5.059   0.747   4.924 -0.7579  0.6349  0.3164
 3328TIP3    H2 9991   5.103   0.786   4.785  1.2544  0.8493  0.9840
 3329TIP3   OH2 9992   3.562   3.033   2.995 -0.2498  0.1745  0.0764
 3329TIP3    H1 9993   3.485   3.050   2.941 -0.6709 -2.1526 -0.1647
 3329TIP3    H2 9994   3.540   3.070   3.080 -1.1193  0.6195 -0.3207
 3330TIP3   OH2 9995   5.513   2.350   1.376 -0.4195 -0.4988  0.1505
 3330TIP3    H1 9996   5.516   2.408   1.452 -0.1697 -0.8443  0.4097
 3330TIP3    H2 9997   5.525   2.407   1.301 -4.7867  0.5552 -0.0415
 3331TIP3   OH2 9998   0.486   1.606   4.578 -0.5003 -0.2259 -0.4320
 3331TIP3    H1 9999   0.494   1.607   4.673  0.6365  1.1900 -0.4971
 3331TIP3    H210000   0.436   1.528   4.558  0.6120 -1.4156  1.2240
 3332TIP3   OH210001   0.540   5.356   1.921 -0.1367  0.1193  0.2748
 3332TIP3    H110002   0.535   5.283   1.983  0.3375 -0.7881 -0.7483
 3332TIP3    H210003   0.471   5.338   1.857 -1.4348  1.6768  1.1430
 3333TIP3   OH210004   1.909   4.313   2.602 -0.1979  0.8005 -0.4580
 3333TIP3    H110005   1.963   4.392   2.599  0.0329  0.6075 -2.0127
 3333TIP3    H210006   1.837   4.331   2.541 -0.6165  0.1459 -0.1684
 3334TIP3   OH210007   0.808   4.650   2.784  0.1439 -0.1004  0.5456
 3334TIP3    H110008   0.852   4.655   2.869 -0.3296 -0.4861  0.8151
 3334TIP3    H210009   0.775   4.739   2.768  1.2678  0.2710  0.1995
 3335TIP3   OH210010   4.910   2.132   1.131  0.1666 -0.3447 -0.1251
 3335TIP3    H110011   4.870   2.192   1.194  1.0153 -0.7870  0.8665
 3335TIP3    H210012   4.999   2.164   1.120  0.9227 -1.8920  1.1113
 3336TIP3   OH210013   3.776   5.433   0.921  0.2421  0.2387  0.4062
 3336TIP3    H110014   3.842   5.470   0.862  2.2141 -0.4449  2.0607
 3336TIP3    H210015   3.824   5.413   1.001 -1.0352 -4.0823  0.3660
 3337TIP3   OH210016   4.368   5.330   1.871  0.0455  0.1606 -0.3142
 3337TIP3    H110017   4.450   5.335   1.821  0.2864 -0.6862 -0.0068
 3337TIP3    H210018   4.324   5.252   1.838  0.9652 -1.4005  1.8935
 3338TIP3   OH210019   3.674   2.418   2.613  0.4684  0.2018  0.3661
 3338TIP3    H110020   3.615   2.428   2.687  0.8167 -0.6407  0.7770
 3338TIP3    H210021   3.616   2.419   2.536 -0.1664 -1.0873  0.7843
 3339TIP3   OH210022   6.197   1.197   2.799 -0.1104 -0.7434  0.4167
 3339TIP3    H110023   6.165   1.205   2.710 -3.2434 -2.3635  1.2538
 3339TIP3    H210024   6.187   1.285   2.836 -4.7572 -1.1645  0.7954
 3340TIP3   OH210025   5.400   0.607   2.430  0.0185 -0.9105 -0.1290
 3340TIP3    H110026   5.429   0.695   2.405 -1.2278 -0.1931  0.8195
 3340TIP3    H210027   5.432   0.550   2.360 -0.5233  0.5191 -1.6118
 3341TIP3   OH210028   1.516   0.751   1.119 -0.1646 -0.2624 -0.5913
 3341TIP3    H110029   1.510   0.693   1.195  0.4492 -0.1368 -0.4467
 3341TIP3    H210030   1.590   0.809   1.138 -0.7907  0.5988 -0.7094
 3342TIP3   OH210031   5.656   5.309   2.295 -0.1214  0.5228 -0.2005
 3342TIP3    H110032   5.650   5.250   2.370 -2.2368  1.2074  0.2483
 3342TIP3    H210033   5.749   5.330   2.289  0.4468 -1.4890  0.6664
 3343TIP3   OH210034   1.619   1.065   5.042 -0.1684  0.2235 -0.1358
 3343TIP3    H110035   1.577   1.124   4.979 -0.4571  1.0589  0.8008
 3343TIP3    H210036   1.552   1.051   5.109  0.3642 -0.0847  0.3355
 3344TIP3   OH210037   4.272   2.448   2.424  0.1097  0.1271  0.1169
 3344TIP3    H110038   4.316   2.530   2.400  1.8094 -1.3293 -2.3353
 3344TIP3    H210039   4.342   2.396   2.464  0.0906 -1.3559 -1.6388
 3345TIP3   OH210040   3.081   2.144   3.708  0.6098  0.2940 -0.3473
 3345TIP3    H110041   3.021   2.137   3.634  2.0586  0.0934 -1.5542
 3345TIP3    H210042   3.137   2.067   3.700 -0.3621 -0.7759  2.0929
 3346TIP3   OH210043   5.122   5.201   2.012 -0.0846 -0.5118 -0.6218
 3346TIP3    H110044   5.135   5.200   1.917  0.7991  2.8562 -0.6518
 3346TIP3    H210045   5.070   5.280   2.029  0.9177 -0.2821  1.7860
 3347TIP3   OH210046   3.051   0.651   2.049  0.1459 -0.4983 -0.0794
 3347TIP3    H110047   3.077   0.712   1.980  0.4297 -2.2036 -1.5491
 3347TIP3    H210048   3.111   0.578   2.040  0.4806 -0.6002  2.3164
 3348TIP3   OH210049   4.317   3.049   0.741  0.4421  0.5295 -0.2082
 3348TIP3    H110050   4.264   2.973   0.721 -0.1606  1.0162 -0.4999
 3348TIP3    H210051   4.402   3.031   0.699  1.0172 -0.8713  1.4412
 3349TIP3   OH210052   3.719   0.222   1.587  0.3812  0.1796  0.1895
 3349TIP3    H110053   3.809   0.223   1.619  0.5571 -0.5385 -0.2678
 3349TIP3    H210054   3.725   0.187   1.498 -0.4648 -0.8293  0.5064
 3350TIP3   OH210055   5.687   0.449   2.679  0.0239 -0.1711 -0.2303
 3350TIP3    H110056   5.609   0.499   2.704 -0.8361 -0.7533 -1.6180
 3350TIP3    H210057   5.655   0.382   2.619  1.6684 -0.0531 -1.3262
 3351TIP3   OH210058   6.142   0.502   3.343 -0.3896  0.0852 -0.2231
 3351TIP3    H110059   6.147   0.559   3.267 -1.7949  0.2446 -0.2101
 3351TIP3    H210060   6.112   0.418   3.309  1.2848 -0.5742 -0.1813
 3352TIP3   OH210061   2.855   0.259   1.240  0.3738 -0.1589 -0.6058
 3352TIP3    H110062   2.875   0.166   1.248 -0.9886 -0.3732  0.6816
 3352TIP3    H210063   2.773   0.263   1.193 -1.7034  0.0689  2.6875
 3353TIP3   OH210064   0.945   0.979   3.927 -0.2993 -0.0260 -0.1820
 3353TIP3    H110065   1.027   0.983   3.877 -1.2401 -0.1303 -1.7978
 3353TIP3    H210066   0.895   0.909   3.885 -0.8600 -0.5785  1.3611
 3354TIP3   OH210067   5.079   3.829   0.431  0.1198  0.1442  0.3586
 3354TIP3    H110068   5.047   3.748   0.472 -1.4385  1.2320  1.3932
 3354TIP3    H210069   5.135   3.799   0.360  0.4827 -1.8428  1.4099
 3355TIP3   OH210070   1.848   4.079   3.956 -0.3434  0.0937 -0.6436
 3355TIP3    H110071   1.807   4.126   4.028 -0.6246  0.4233 -1.0130
 3355TIP3    H210072   1.919   4.029   3.997 -1.2200 -0.6293  0.0370
 3356TIP3   OH210073   4.203   0.645   3.515 -0.6397  0.1522  0.1145
 3356TIP3    H110074   4.171   0.721   3.564 -0.4071 -0.3266  1.0488
 3356TIP3    H210075   4.174   0.660   3.425 -1.4301  0.8756  0.4723
 3357TIP3   OH210076   5.739   0.406   0.168  0.6419  0.6499 -0.1242
 3357TIP3    H110077   5.643   0.405   0.162  0.7075  0.4957 -1.4377
 3357TIP3    H210078   5.763   0.314   0.177  0.7774  0.3595 -2.7199
 3358TIP3   OH210079   5.710   4.592   0.628  0.4499  0.1047  0.0857
 3358TIP3    H110080   5.706   4.498   0.645  0.1169  0.3365  1.4127
 3358TIP3    H210081   5.796   4.605   0.588  0.1100 -0.8796 -1.0537
 3359TIP3   OH210082   3.706   2.876   0.093  0.1313  0.4380  0.4059
 3359TIP3    H110083   3.625   2.881   0.143  0.1861 -0.7860  0.6370
 3359TIP3    H210084   3.711   2.786   0.062  0.9762  0.7162 -0.3341
 3360TIP3   OH210085   0.406   2.766   1.970  0.0395  0.7197  0.4776
 3360TIP3    H110086   0.453   2.684   1.989 -0.2500  0.5325  0.3903
 3360TIP3    H210087   0.360   2.786   2.051 -1.5164 -0.2912 -0.0955
 3361TIP3   OH210088   0.422   1.098   4.959  0.1650  0.0616  0.0763
 3361TIP3    H110089   0.513   1.128   4.969  0.1809 -0.0129  0.1581
 3361TIP3    H210090   0.427   1.003   4.972  0.5472 -0.3921 -2.7886
 3362TIP3   OH210091   5.520   1.958   0.909  0.4051  0.2294 -0.0446
 3362TIP3    H110092   5.493   2.030   0.852 -0.8440  0.5216  0.8987
 3362TIP3    H210093   5.471   1.882   0.877  2.0905 -0.4017 -1.3655
 3363TIP3   OH210094   0.072   3.647   0.803  0.6827 -0.0620  0.0710
 3363TIP3    H110095   0.109   3.575   0.853 -1.8471 -0.2798  1.7906
 3363TIP3    H210096   0.018   3.606   0.737 -1.3961  0.1561  1.5490
 3364TIP3   OH210097   0.801   1.215   1.757  0.2495  0.4666  0.1070
 3364TIP3    H110098   0.821   1.257   1.674 -1.5010 -1.1413 -1.2182
 3364TIP3    H210099   0.876   1.157   1.773  0.5132  0.6484 -0.4606
 3365TIP3   OH210100   0.320   4.645   3.969 -0.0617 -0.1250 -0.1166
 3365TIP3    H110101   0.412   4.635   3.994 -0.0033  1.6342  0.4774
 3365TIP3    H210102   0.304   4.739   3.974 -1.3721 -0.2005 -2.1799
 3366TIP3   OH210103   0.120   3.237   3.098  0.0523 -0.7886  0.6462
 3366TIP3    H110104   0.134   3.291   3.020  0.2101 -0.4076  0.9326
 3366TIP3    H210105   0.111   3.301   3.170  2.1222 -1.1465  1.3021
 3367TIP3   OH210106   4.189   1.420   0.832  0.3908 -0.0730  0.4071
 3367TIP3    H110107   4.232   1.335   0.840  2.7918  0.7905 -1.7565
 3367TIP3    H210108   4.237   1.478   0.891  0.2628  0.2783  0.1727
 3368TIP3   OH210109   1.284   0.182   1.505  0.0909  0.5034 -0.5067
 3368TIP3    H110110   1.266   0.118   1.574  0.9657 -0.6652 -1.3116
 3368TIP3    H210111   1.315   0.129   1.431  0.3783  1.8243 -1.3693
 3369TIP3   OH210112   2.056   4.340   0.718 -0.9842  0.0298 -0.6510
 3369TIP3    H110113   1.985   4.299   0.668 -0.4143  0.0780 -1.5231
 3369TIP3    H210114   2.136   4.314   0.673 -0.4821  0.4814 -0.0459
 3370TIP3   OH210115   3.103   1.144   1.772 -0.0301 -0.2594  0.0650
 3370TIP3    H110116   3.140   1.099   1.848 -0.3525  0.8184  0.8865
 3370TIP3    H210117   3.134   1.234   1.779  0.2794 -0.2253 -1.3259
 3371TIP3   OH210118   5.047   0.054   3.993  0.0053 -0.1313  0.2549
 3371TIP3    H110119   5.094   0.001   4.057 -0.2057 -0.2895  0.2760
 3371TIP3    H210120   4.979   0.098   4.043 -1.2071 -1.4967 -0.1279
 3372TIP3   OH210121   3.933   5.377   2.173  0.3643  0.1036  0.0839
 3372TIP3    H110122   3.989   5.343   2.242  1.9103  0.8631 -0.7332
 3372TIP3    H210123   3.994   5.416   2.110 -1.0388  0.1778 -1.2919
 3373TIP3   OH210124   0.042   0.885   3.011  0.3104  0.1506  1.1711
 3373TIP3    H110125  -0.042   0.910   3.049  0.4438  0.9334  0.9616
 3373TIP3    H210126   0.072   0.962   2.963  1.0820 -0.1659  1.1137
 3374TIP3   OH210127   3.191   3.912   0.311 -0.4990  0.0380 -0.1905
 3374TIP3    H110128   3.238   3.962   0.377 -0.1731  0.1921 -0.5355
 3374TIP3    H210129   3.098   3.932   0.326 -0.3589  0.9893 -0.5172
 3375TIP3   OH210130   5.172   2.653   2.292 -0.6795  0.5013  0.7651
 3375TIP3    H110131   5.233   2.580   2.283  0.6575  1.6804 -0.1921
 3375TIP3    H210132   5.092   2.623   2.250  0.3060  0.0622 -0.8686
 3376TIP3   OH210133   1.884   1.807   3.708  0.1804 -0.1284  0.1398
 3376TIP3    H110134   1.854   1.735   3.652  1.5484 -1.1951  0.7040
 3376TIP3    H210135   1.815   1.816   3.774 -1.1270  0.7012 -1.2898
 3377TIP3   OH210136   4.179   4.472   0.404  0.1930 -0.4320  0.4754
 3377TIP3    H110137   4.267   4.508   0.397 -0.0404  0.5830  2.1634
 3377TIP3    H210138   4.191   4.377   0.394  1.1528 -0.1442 -1.4906
 3378TIP3   OH210139   6.072   5.581   2.188 -0.1919 -0.2423  0.0952
 3378TIP3    H110140   6.139   5.600   2.254  0.2490  1.2658 -0.7437
 3378TIP3    H210141   6.118   5.584   2.105 -1.2955  0.9174 -0.5075
 3379TIP3   OH210142   5.149   2.994   3.447  0.2332 -0.7591  0.0212
 3379TIP3    H110143   5.243   3.010   3.437 -0.1360  0.2839 -3.2539
 3379TIP3    H210144   5.135   2.909   3.405 -0.3345 -0.7752  0.2414
 3380TIP3   OH210145   6.214   0.038   4.413 -0.2043  1.0848  0.1284
 3380TIP3    H110146   6.302   0.067   4.438  1.7979 -2.2331 -2.1318
 3380TIP3    H210147   6.183  -0.012   4.488  1.2617 -0.2884 -0.1295
 3381TIP3   OH210148   0.153   4.543   0.822 -0.1002 -0.5384 -0.0654
 3381TIP3    H110149   0.097   4.493   0.881  0.4607 -1.8077 -0.5786
 3381TIP3    H210150   0.096   4.612   0.788 -1.0452 -1.1471  0.2524
 3382TIP3   OH210151   5.126   5.469   3.498  0.2296  0.5077  0.0119
 3382TIP3    H110152   5.081   5.552   3.504 -0.4461  0.1043  0.7019
 3382TIP3    H210153   5.114   5.428   3.584  2.0977  0.4793  0.3045
 3383TIP3   OH210154   4.421   2.970   3.994  0.4124 -0.5726  0.7543
 3383TIP3    H110155   4.468   2.972   3.910  0.7251 -0.4991  0.9270
 3383TIP3    H210156   4.476   3.022   4.053 -1.1609  1.7069  0.3318
 3384TIP3   OH210157   1.011   2.867   0.529 -0.2782  0.5434  0.1445
 3384TIP3    H110158   0.974   2.953   0.544 -0.1258  0.7626 -0.6710
 3384TIP3    H210159   0.938   2.813   0.499 -0.0773  0.8182 -0.8827
 3385TIP3   OH210160   5.509   3.296   1.020 -0.2918  0.8585 -0.0408
 3385TIP3    H110161   5.535   3.230   1.084 -1.1084  0.5049 -0.0662
 3385TIP3    H210162   5.576   3.364   1.028  0.3818  0.1855  0.2121
 3386TIP3   OH210163   5.844   0.946   1.112  0.2600 -0.2499 -0.5881
 3386TIP3    H110164   5.936   0.973   1.109  0.1978 -0.0518 -0.7357
 3386TIP3    H210165   5.846   0.852   1.096  0.6178 -0.6397  1.4577
 3387TIP3   OH210166   1.055   0.058   2.386 -0.0171 -0.1250 -0.2808
 3387TIP3    H110167   1.002   0.094   2.456 -0.5435  0.0744 -0.7712
 3387TIP3    H210168   1.068   0.131   2.325  0.5674 -0.2521 -0.3093
 3388TIP3   OH210169   2.389   3.682   4.131 -0.5555  0.5005 -0.1809
 3388TIP3    H110170   2.321   3.681   4.064  0.9578  0.5454 -1.8016
 3388TIP3    H210171   2.454   3.743   4.097 -0.5538  1.9444  2.2426
 3389TIP3   OH210172   0.941   3.953   0.777  0.0797  0.2636  0.0397
 3389TIP3    H110173   0.965   3.898   0.852 -0.5536 -1.6321 -1.0686
 3389TIP3    H210174   1.001   3.926   0.708 -2.9217 -2.3474 -1.8446
 3390TIP3   OH210175   0.112   2.248   0.956  0.6094  0.0680 -0.3302
 3390TIP3    H110176   0.141   2.160   0.980  2.1658  0.6928  0.2497
 3390TIP3    H210177   0.052   2.274   1.026  0.5926 -0.3081 -0.2033
 3391TIP3   OH210178   2.325   3.159   4.548 -0.3415 -0.3520 -0.2576
 3391TIP3    H110179   2.293   3.095   4.613 -1.9529  0.6399 -0.0089
 3391TIP3    H210180   2.290   3.127   4.465  0.0008 -0.5189 -0.3386
 3392TIP3   OH210181   3.786   3.508   2.212  0.4368  0.1713  0.0505
 3392TIP3    H110182   3.804   3.594   2.250  1.4323 -0.1812  0.4214
 3392TIP3    H210183   3.749   3.527   2.126  2.1282  0.9889 -0.5547
 3393TIP3   OH210184   1.276   2.805   1.452 -0.0635  0.1667 -0.0764
 3393TIP3    H110185   1.243   2.844   1.533 -0.6675  0.3216 -0.3867
 3393TIP3    H210186   1.218   2.730   1.437  1.3918 -1.1911  0.7879
 3394TIP3   OH210187   6.261   1.865   1.108 -0.0132 -0.0394  0.0684
 3394TIP3    H110188   6.219   1.804   1.168  0.6071 -0.1873  0.3660
 3394TIP3    H210189   6.268   1.946   1.158  0.6156 -0.1983  0.2490
 3395TIP3   OH210190   0.453   5.807   0.537  0.5133  0.5812 -0.6317
 3395TIP3    H110191   0.423   5.833   0.624 -0.8613  0.3994 -1.0203
 3395TIP3    H210192   0.393   5.852   0.476  0.7038 -0.2149 -1.4333
 3396TIP3   OH210193   0.363   1.408   1.522 -0.2263  0.3531 -0.6312
 3396TIP3    H110194   0.401   1.328   1.485 -0.0873 -0.2063  0.6662
 3396TIP3    H210195   0.385   1.404   1.615 -2.0342  0.8414 -0.1530
 3397TIP3   OH210196   4.743   4.266   1.818 -0.0923 -0.5120 -0.0588
 3397TIP3    H110197   4.764   4.321   1.743 -1.1378  0.5597  0.4132
 3397TIP3    H210198   4.656   4.295   1.847 -0.6950 -2.4096  0.2080
 3398TIP3   OH210199   6.223   1.980   5.222 -0.1203  0.2835  0.4391
 3398TIP3    H110200   6.171   1.939   5.153 -1.8009  0.8114  1.3360
 3398TIP3    H210201   6.287   2.033   5.175 -0.8290  0.1597 -0.7192
 3399TIP3   OH210202   0.706   0.948   4.271 -0.2530  0.1914  0.0726
 3399TIP3    H110203   0.680   0.857   4.256 -1.6526  0.4616  0.6658
 3399TIP3    H210204   0.650   0.998   4.211 -0.6283  0.7596  0.8876
 3400TIP3   OH210205   4.463   0.387   3.718 -0.2802  0.1761 -0.3804
 3400TIP3    H110206   4.461   0.481   3.731 -0.4174  0.2208 -0.7068
 3400TIP3    H210207   4.528   0.374   3.649 -0.7103  0.0898 -0.7779
 3401TIP3   OH210208   4.421   0.777   2.410  0.1768  0.4439  0.3216
 3401TIP3    H110209   4.454   0.728   2.485  2.8230  1.5630 -0.0058
 3401TIP3    H210210   4.400   0.864   2.444 -1.6239  0.0752  0.3005
 3402TIP3   OH210211   2.888   5.548   2.889 -0.4237 -0.8941 -0.1172
 3402TIP3    H110212   2.827   5.612   2.927 -0.5750 -0.1692 -1.5137
 3402TIP3    H210213   2.853   5.530   2.802  1.7298  0.1466 -1.2784
 3403TIP3   OH210214   4.787   0.795   0.256  0.0630  0.2106 -0.3543
 3403TIP3    H110215   4.697   0.806   0.225 -0.0582  0.7411  0.1611
 3403TIP3    H210216   4.783   0.724   0.320  0.2868 -0.7854 -1.4250
 3404TIP3   OH210217   4.360   1.978   3.052 -0.7842  0.4051 -0.3265
 3404TIP3    H110218   4.280   2.000   3.100 -1.1841 -0.6798 -0.4568
 3404TIP3    H210219   4.331   1.914   2.987  0.2660 -0.3570 -0.0709
 3405TIP3   OH210220   5.235   5.595   1.188  0.1086 -0.5224 -0.2049
 3405TIP3    H110221   5.290   5.564   1.260 -0.3768  0.2155  0.4897
 3405TIP3    H210222   5.275   5.678   1.161 -1.9309  1.2471  1.8560
 3406TIP3   OH210223   4.170   2.638   4.996  0.0441 -0.0746 -0.1646
 3406TIP3    H110224   4.257   2.620   4.960  0.1778  0.0142  0.1138
 3406TIP3    H210225   4.176   2.612   5.088 -0.6699 -1.4997 -0.4969
 3407TIP3   OH210226   1.528   5.282   3.307  0.3786  0.5758  0.2554
 3407TIP3    H110227   1.555   5.278   3.215  1.1926  0.7299  0.4797
 3407TIP3    H210228   1.571   5.207   3.348  0.2152  0.6474  0.5616
 3408TIP3   OH210229   2.522   3.867   2.187 -0.2306 -0.0168 -0.3284
 3408TIP3    H110230   2.459   3.794   2.186 -1.0189  0.6407 -0.2146
 3408TIP3    H210231   2.534   3.887   2.280 -1.6664  1.3535 -0.4017
 3409TIP3   OH210232   2.119   4.777   2.554 -0.2979 -0.1193 -0.1753
 3409TIP3    H110233   2.111   4.812   2.465 -0.9519 -2.2210 -1.0115
 3409TIP3    H210234   2.146   4.852   2.607 -0.9811  1.4485 -1.9333
 3410TIP3   OH210235   4.713   4.561   2.241 -0.0383 -0.5937 -0.1098
 3410TIP3    H110236   4.804   4.535   2.254 -0.1154 -0.5159  0.5909
 3410TIP3    H210237   4.667   4.529   2.318 -0.6723 -0.9329 -0.6245
 3411TIP3   OH210238   4.853   4.705   4.411 -0.0313  0.1317  0.2097
 3411TIP3    H110239   4.923   4.770   4.408  1.2612 -1.2107 -0.3425
 3411TIP3    H210240   4.899   4.622   4.423 -1.4924 -0.8766 -0.8448
 3412TIP3   OH210241   0.350   4.189   2.375  0.0851  0.0043  0.8155
 3412TIP3    H110242   0.440   4.157   2.375  0.5663  1.2704  1.8335
 3412TIP3    H210243   0.348   4.256   2.443 -1.7228 -0.2426  1.0556
 3413TIP3   OH210244   3.688   0.412   3.105  0.0870  0.2956  0.0534
 3413TIP3    H110245   3.619   0.422   3.040  0.0948 -0.5656 -0.1054
 3413TIP3    H210246   3.721   0.323   3.091 -0.7617 -0.3858  2.0391
 3414TIP3   OH210247   4.840   1.839   0.169  0.2218 -0.1844 -1.0115
 3414TIP3    H110248   4.853   1.910   0.106  0.9095  0.5599 -0.0786
 3414TIP3    H210249   4.747   1.843   0.191 -0.0100 -0.4199 -1.9382
 3415TIP3   OH210250   2.558   4.470   0.937  0.0523  0.1457  0.1981
 3415TIP3    H110251   2.517   4.534   0.995 -0.9362 -0.3384  0.0704
 3415TIP3    H210252   2.526   4.385   0.969 -0.8324 -0.1099 -1.2493
 3416TIP3   OH210253   0.999   1.823   2.561 -0.3785 -0.2272 -0.3399
 3416TIP3    H110254   0.919   1.802   2.610 -0.6310 -0.7159 -0.9543
 3416TIP3    H210255   1.070   1.793   2.619 -0.7075 -2.0149 -0.7931
 3417TIP3   OH210256   4.319   0.346   0.426 -0.4808  0.1303 -0.0308
 3417TIP3    H110257   4.362   0.430   0.413  1.7656 -1.0397 -0.7012
 3417TIP3    H210258   4.255   0.339   0.355 -0.3323  1.0322 -0.2573
 3418TIP3   OH210259   3.725   3.853   4.118 -0.6189 -0.1243 -0.2136
 3418TIP3    H110260   3.641   3.839   4.161  0.6188 -0.2060  2.3421
 3418TIP3    H210261   3.743   3.946   4.132 -0.1018 -0.1978 -0.3725
 3419TIP3   OH210262   4.723   5.123   4.875 -0.2978  0.2706  0.0909
 3419TIP3    H110263   4.712   5.155   4.785 -0.3960 -0.6184 -0.2237
 3419TIP3    H210264   4.794   5.176   4.911 -0.5920  0.9745 -0.3468
 3420TIP3   OH210265   4.709   3.831   0.227  0.6797  0.0423 -0.2173
 3420TIP3    H110266   4.734   3.923   0.233  0.4547  0.2505 -1.9712
 3420TIP3    H210267   4.764   3.795   0.158 -0.3090 -0.7402 -0.6318
 3421TIP3   OH210268   1.410   3.962   4.759  0.3483  0.1923 -0.7075
 3421TIP3    H110269   1.474   3.916   4.814  1.8095  1.7644 -0.9936
 3421TIP3    H210270   1.337   3.981   4.818  1.3539  0.7608  0.3900
 3422TIP3   OH210271   3.793   2.305   4.595 -0.0893  0.0898 -0.2266
 3422TIP3    H110272   3.882   2.317   4.628 -0.3929  0.2422  0.5551
 3422TIP3    H210273   3.783   2.374   4.528 -0.3500  1.5391  1.2285
 3423TIP3   OH210274   4.565   4.098   4.994 -0.8717 -0.1024  0.4299
 3423TIP3    H110275   4.473   4.081   4.978 -0.6936 -1.0507  0.3767
 3423TIP3    H210276   4.596   4.021   5.042  0.1605 -0.3204 -0.5553
 3424TIP3   OH210277   0.644   4.561   1.357  0.0669 -0.2470  0.1095
 3424TIP3    H110278   0.655   4.468   1.336  0.4449  0.0723 -1.2416
 3424TIP3    H210279   0.549   4.574   1.356  0.0473 -0.2575 -1.6057
 3425TIP3   OH210280   5.503   2.136   2.709  0.5121  0.2895 -0.2086
 3425TIP3    H110281   5.537   2.226   2.706 -0.0349  0.4879 -0.5836
 3425TIP3    H210282   5.475   2.118   2.620  1.6849 -0.6826 -0.4161
 3426TIP3   OH210283   0.151   0.402   4.473  0.0585  0.2276 -0.6356
 3426TIP3    H110284   0.240   0.380   4.446  0.0696 -1.4311  0.5163
 3426TIP3    H210285   0.126   0.476   4.419  0.7415 -1.6388 -3.7181
 3427TIP3   OH210286   0.134   3.319   4.415  0.4667 -0.0273  0.0348
 3427TIP3    H110287   0.125   3.306   4.321  0.0364 -3.3849  0.4176
 3427TIP3    H210288   0.045   3.309   4.449  0.7429  0.3192  0.8817
 3428TIP3   OH210289   4.935   2.263   2.929  0.3028 -0.1139 -0.1840
 3428TIP3    H110290   5.027   2.259   2.953  0.5769  0.2290 -1.1159
 3428TIP3    H210291   4.892   2.202   2.988  0.9720  0.4485  0.9391
 3429TIP3   OH210292   2.541   1.098   4.651 -0.5497  0.0852  0.3233
 3429TIP3    H110293   2.603   1.025   4.647 -1.2764 -0.5030 -1.4131
 3429TIP3    H210294   2.568   1.149   4.727  2.2273  0.0164 -0.5164
 3430TIP3   OH210295   2.175   2.443   1.735 -0.4796 -0.2025  0.1439
 3430TIP3    H110296   2.116   2.411   1.804 -0.8549  0.8378  0.3247
 3430TIP3    H210297   2.231   2.507   1.779 -1.6092  1.4769 -0.7605
 3431TIP3   OH210298   5.087   1.394   4.056  0.3316  0.0758 -0.7351
 3431TIP3    H110299   5.021   1.326   4.051  1.0035 -0.5665 -1.1312
 3431TIP3    H210300   5.168   1.351   4.026  0.6712  1.1587 -1.4349
 3432TIP3   OH210301   0.809   1.888   1.927  0.0983  0.5521  0.1795
 3432TIP3    H110302   0.808   1.902   1.833  2.5265  2.0043  0.2876
 3432TIP3    H210303   0.773   1.969   1.964  0.2497  0.4569  0.5435
 3433TIP3   OH210304   2.663   1.121   0.220  0.3541  0.2966 -0.0681
 3433TIP3    H110305   2.631   1.067   0.292 -0.7280  0.7361 -0.2001
 3433TIP3    H210306   2.623   1.082   0.142  2.0781 -0.6163 -0.5505
 3434TIP3   OH210307   4.663   0.331   0.571 -0.3067  0.6918 -0.7738
 3434TIP3    H110308   4.664   0.248   0.618  2.3501  2.9786  4.0401
 3434TIP3    H210309   4.706   0.312   0.487 -0.1639 -2.7882 -0.0506
 3435TIP3   OH210310   1.573   5.728   2.712  0.1739 -0.2223  0.7804
 3435TIP3    H110311   1.501   5.789   2.732 -0.7249 -1.4205  1.3416
 3435TIP3    H210312   1.651   5.783   2.710 -0.7199  1.0938  0.3809
 3436TIP3   OH210313   0.781   0.409   3.754  0.0357 -0.2821  0.2766
 3436TIP3    H110314   0.758   0.416   3.661  0.3256 -0.3745  0.1994
 3436TIP3    H210315   0.809   0.318   3.765 -0.6816 -0.4714  0.6075
 3437TIP3   OH210316   2.286   2.839   0.009 -0.1407  0.5572  0.0666
 3437TIP3    H110317   2.284   2.890   0.090  0.3700  0.7234 -0.0178
 3437TIP3    H210318   2.379   2.819  -0.004 -0.2392  0.3780 -0.3787
 3438TIP3   OH210319   0.083   5.699   2.105  0.4606 -0.1408 -0.1843
 3438TIP3    H110320   0.129   5.780   2.083  0.8755  0.0189  1.1820
 3438TIP3    H210321  -0.000   5.728   2.143  0.1829 -0.3906 -0.5872
 3439TIP3   OH210322   5.672   4.823   1.684 -0.1510 -0.5248 -0.5889
 3439TIP3    H110323   5.678   4.733   1.653  0.7444 -0.0426 -1.9265
 3439TIP3    H210324   5.646   4.815   1.776  1.0441 -2.1956 -0.3422
 3440TIP3   OH210325   5.229   1.795   0.101 -0.6143  0.1201 -0.3536
 3440TIP3    H110326   5.277   1.724   0.058  0.9371  1.5867 -1.1894
 3440TIP3    H210327   5.232   1.774   0.194  1.8887  0.2389 -0.3486
 3441TIP3   OH210328   5.666   2.764   3.095 -0.1167 -0.0236  0.2978
 3441TIP3    H110329   5.687   2.681   3.051 -0.3296  0.8383 -1.5091
 3441TIP3    H210330   5.606   2.808   3.035  0.4467  1.7117  0.9472
 3442TIP3   OH210331   3.042   4.351   1.364  0.0393  0.0276 -0.0256
 3442TIP3    H110332   3.004   4.375   1.280 -0.6350 -1.4046 -0.1684
 3442TIP3    H210333   3.105   4.420   1.383 -1.4083  1.5679 -0.6145
 3443TIP3   OH210334   2.400  -0.016   0.404  0.3026 -0.4865 -0.0975
 3443TIP3    H110335   2.484   0.025   0.380  0.7167  1.8796  4.2710
 3443TIP3    H210336   2.334   0.048   0.378  0.1402 -0.9517 -0.8289
 3444TIP3   OH210337   0.013   4.073   3.196 -0.5984  0.0763 -0.4134
 3444TIP3    H110338   0.046   4.027   3.273 -0.5829 -4.7638 -2.8888
 3444TIP3    H210339   0.075   4.145   3.182  1.4800 -1.0729  2.0450
 3445TIP3   OH210340   0.991   4.673   4.641  1.0395  0.2028 -0.0986
 3445TIP3    H110341   1.064   4.729   4.614  0.1087  1.2287 -0.5669
 3445TIP3    H210342   1.028   4.616   4.708  2.3099  0.5840 -0.4437
 3446TIP3   OH210343   2.645   0.956   4.032 -0.2598  0.0802 -0.2816
 3446TIP3    H110344   2.730   0.947   3.990  0.2719 -0.0275  0.8070
 3446TIP3    H210345   2.605   1.032   3.989  0.7061  0.6154 -0.2629
 3447TIP3   OH210346   1.595   4.047   1.353 -0.2381  0.5221 -0.1284
 3447TIP3    H110347   1.663   4.053   1.420 -0.1626  0.4801 -0.2010
 3447TIP3    H210348   1.617   3.968   1.303  0.9843  1.7346 -1.5978
 3448TIP3   OH210349   5.369   5.795   2.458 -0.3733 -0.1489  0.1662
 3448TIP3    H110350   5.323   5.874   2.429 -0.2242 -0.3689 -0.6988
 3448TIP3    H210351   5.323   5.768   2.537 -1.2626  0.0442 -0.2811
 3449TIP3   OH210352   5.788   4.563   4.029  0.5461 -0.7148 -0.0421
 3449TIP3    H110353   5.778   4.472   4.001 -0.1890 -1.0470  1.1997
 3449TIP3    H210354   5.845   4.558   4.106 -1.7062 -0.5151  1.7518
 3450TIP3   OH210355   2.513   4.481   4.400  0.1837 -0.4789  0.7003
 3450TIP3    H110356   2.608   4.491   4.402  0.2479 -0.8009 -0.2803
 3450TIP3    H210357   2.489   4.465   4.492  1.5060 -3.8580  0.6288
 3451TIP3   OH210358   1.326   3.831   0.258 -0.7697  0.4843 -0.5027
 3451TIP3    H110359   1.269   3.896   0.217 -0.9823  0.0779 -0.8645
 3451TIP3    H210360   1.381   3.881   0.317  0.3200  1.2798 -2.1053
 3452TIP3   OH210361   1.125   2.036   1.823  0.5436  0.4280  0.1136
 3452TIP3    H110362   1.060   1.985   1.872 -0.2340  2.8161  1.7723
 3452TIP3    H210363   1.209   2.001   1.852  0.0320 -0.0972  1.0200
 3453TIP3   OH210364   0.395   5.006   0.190  0.4002  0.3279 -0.1310
 3453TIP3    H110365   0.361   5.013   0.279 -0.4980 -1.9442 -0.2118
 3453TIP3    H210366   0.488   5.026   0.197  0.2357  0.6856  1.2155
 3454TIP3   OH210367   1.605   5.192   1.820  0.3006 -0.5514 -0.5967
 3454TIP3    H110368   1.599   5.201   1.915  1.1070 -0.5851 -0.5386
 3454TIP3    H210369   1.696   5.168   1.804  0.4680  0.5838 -1.4723
 3455TIP3   OH210370   0.492   5.515   3.502 -0.1161  0.2977 -0.5503
 3455TIP3    H110371   0.456   5.426   3.504 -1.5157  0.8402  1.1267
 3455TIP3    H210372   0.586   5.502   3.515 -0.3708 -0.9238  0.2904
 3456TIP3   OH210373   3.529   5.929   3.551  0.1396  0.1009 -0.4468
 3456TIP3    H110374   3.444   5.941   3.509  0.1761  1.8961 -0.0661
 3456TIP3    H210375   3.531   5.994   3.621  1.4354 -0.5812  0.1927
 3457TIP3   OH210376   1.559   0.641   1.669  0.6099  0.1698  0.1897
 3457TIP3    H110377   1.609   0.563   1.695  0.0548 -0.3122 -0.1775
 3457TIP3    H210378   1.468   0.616   1.681  0.4483  1.2191  1.3334
 3458TIP3   OH210379   5.390   4.312   3.856  0.0439 -0.2279 -0.3134
 3458TIP3    H110380   5.410   4.399   3.891  1.5373 -0.5122 -0.4105
 3458TIP3    H210381   5.311   4.285   3.904 -1.7337  1.9949 -1.7350
 3459TIP3   OH210382   3.817   4.288   4.974 -0.4746 -0.1528 -0.3255
 3459TIP3    H110383   3.824   4.380   5.001 -0.6207 -0.6089  1.3225
 3459TIP3    H210384   3.758   4.291   4.898 -0.1206  1.1573 -0.5746
 3460TIP3   OH210385   2.012   2.945   0.376  0.3232  0.0094 -0.5476
 3460TIP3    H110386   1.949   2.972   0.308 -1.1615  0.1097  0.8131
 3460TIP3    H210387   2.097   2.962   0.337 -0.4612 -0.3795 -2.5774
 3461TIP3   OH210388   2.811   0.457   3.860 -0.4965 -0.0631 -0.2099
 3461TIP3    H110389   2.829   0.375   3.906 -0.7589 -0.0804 -0.1371
 3461TIP3    H210390   2.897   0.499   3.851 -0.4817  0.0883  0.5753
 3462TIP3   OH210391   5.538   0.994   4.217 -0.3028  0.6722  0.0192
 3462TIP3    H110392   5.558   0.931   4.147 -1.6863  0.9398 -0.6432
 3462TIP3    H210393   5.464   0.956   4.263 -1.2331  1.8583 -0.4603
 3463TIP3   OH210394   4.885   3.250   4.773  0.1274 -0.7989  0.1687
 3463TIP3    H110395   4.793   3.246   4.747 -0.9267  1.4762  2.9641
 3463TIP3    H210396   4.932   3.270   4.692 -2.0225 -0.4952 -1.0845
 3464TIP3   OH210397   1.445   2.326   3.651 -0.4033 -0.3095  0.2037
 3464TIP3    H110398   1.411   2.254   3.597 -0.4947 -0.9520  1.0955
 3464TIP3    H210399   1.537   2.333   3.625  0.2938 -2.4091  1.7751
 3465TIP3   OH210400   1.751   1.973   1.606  0.3751  0.5257  0.6761
 3465TIP3    H110401   1.696   2.048   1.626  0.1735  0.0447  2.0046
 3465TIP3    H210402   1.757   1.924   1.688  0.0382 -1.2086 -0.2601
 3466TIP3   OH210403   6.096   0.173   2.818 -0.1744  0.5746 -0.6202
 3466TIP3    H110404   6.057   0.254   2.852 -0.4052  1.0321 -1.8968
 3466TIP3    H210405   6.031   0.139   2.756  0.0453 -0.4410 -0.3145
 3467TIP3   OH210406   2.718   4.322   3.553  0.2617  0.1917  0.3828
 3467TIP3    H110407   2.665   4.248   3.579  0.6600 -0.3815 -0.3919
 3467TIP3    H210408   2.657   4.382   3.510 -0.0440  0.2827  0.9420
 3468TIP3   OH210409   1.476   5.505   1.826  0.7510 -0.1971 -0.0662
 3468TIP3    H110410   1.495   5.421   1.784  1.5981  0.8797 -1.9912
 3468TIP3    H210411   1.393   5.533   1.788  0.5396 -0.0914  0.4654
 3469TIP3   OH210412   5.012   5.959   4.243 -0.8290 -0.2398 -0.0913
 3469TIP3    H110413   5.020   5.864   4.248  0.3912 -0.1133  1.2339
 3469TIP3    H210414   5.072   5.992   4.310 -1.3050  1.4699 -0.4337
 3470TIP3   OH210415   5.038   1.526   5.119  0.1144  0.5220 -0.1569
 3470TIP3    H110416   4.946   1.547   5.104  0.3228  1.7132  0.1601
 3470TIP3    H210417   5.052   1.444   5.072 -0.4922  1.5703 -2.2624
 3471TIP3   OH210418   6.290   1.706   3.955  0.0063  0.0562  0.5392
 3471TIP3    H110419   6.286   1.645   3.881  1.8340 -0.5957  0.9134
 3471TIP3    H210420   6.361   1.766   3.932 -2.4346  2.8642 -0.3383
 3472TIP3   OH210421   3.120   4.460   3.090 -0.0890  0.6249  0.2202
 3472TIP3    H110422   3.090   4.410   3.013 -0.1055 -1.3193  1.4098
 3472TIP3    H210423   3.056   4.439   3.158  2.2981 -1.4222  2.0328
 3473TIP3   OH210424   5.301   3.577   2.217  0.0887  0.1019 -0.2181
 3473TIP3    H110425   5.234   3.510   2.204 -0.1316  0.6829 -2.4986
 3473TIP3    H210426   5.271   3.651   2.164  2.4927  0.4185 -1.2448
 3474TIP3   OH210427   3.456   3.676   0.900  0.0567 -0.2995  0.6072
 3474TIP3    H110428   3.494   3.748   0.950 -2.7510  1.3664  0.5656
 3474TIP3    H210429   3.454   3.708   0.810 -1.6533 -0.1933  0.6599
 3475TIP3   OH210430   1.082   2.603   1.143 -0.0073 -0.2504  0.3871
 3475TIP3    H110431   0.997   2.647   1.135  0.2952  0.2350 -0.1823
 3475TIP3    H210432   1.065   2.531   1.204 -0.3380  1.0402  1.8534
 3476TIP3   OH210433   5.506   1.117   3.813 -0.3439  0.4872 -0.1281
 3476TIP3    H110434   5.450   1.151   3.883  0.4271  1.2499  0.1410
 3476TIP3    H210435   5.520   1.025   3.836 -0.3531  0.6531  0.5562
 3477TIP3   OH210436   4.224   4.885   4.986  0.5783  0.7661 -0.0432
 3477TIP3    H110437   4.311   4.888   5.025  1.3695 -0.7587 -1.5507
 3477TIP3    H210438   4.239   4.851   4.898 -1.6480 -0.6141  0.0395
 3478TIP3   OH210439   0.963   2.065   0.624 -0.1149  0.0967  0.4602
 3478TIP3    H110440   0.980   1.971   0.633 -1.6045 -0.2098  0.2920
 3478TIP3    H210441   0.969   2.099   0.713  1.5846  0.0763  0.3835
 3479TIP3   OH210442   3.175   5.083   0.599 -0.1324  0.2050  0.5229
 3479TIP3    H110443   3.240   5.108   0.665 -0.5021  0.1131  0.9243
 3479TIP3    H210444   3.226   5.070   0.519  0.3069  0.4113  0.7651
 3480TIP3   OH210445   4.508   4.602   2.752 -0.0731 -0.3586  0.3375
 3480TIP3    H110446   4.516   4.624   2.660  0.7509 -2.0259 -0.0369
 3480TIP3    H210447   4.595   4.571   2.777 -0.2672  0.1074  1.6971
 3481TIP3   OH210448   6.062   0.854   3.702 -0.5951 -0.2073  0.5512
 3481TIP3    H110449   6.088   0.945   3.705  0.4502 -0.4857  3.8056
 3481TIP3    H210450   6.103   0.819   3.623  0.3826  1.7372  0.1467
 3482TIP3   OH210451   3.198   3.862   4.734 -0.3909  0.1850 -0.2722
 3482TIP3    H110452   3.145   3.858   4.814 -0.8484  1.3939 -0.4900
 3482TIP3    H210453   3.199   3.772   4.702 -0.5217 -0.2544  0.8771
 3483TIP3   OH210454   2.374   1.242   3.363 -0.5249 -0.9446  0.3623
 3483TIP3    H110455   2.292   1.229   3.316 -0.6078 -0.4570  0.3676
 3483TIP3    H210456   2.350   1.236   3.455 -0.5641 -0.7464  0.3649
 3484TIP3   OH210457   1.112   2.365   5.112  0.0584  0.3602  0.3024
 3484TIP3    H110458   1.034   2.392   5.160 -0.7435 -0.1748 -0.6513
 3484TIP3    H210459   1.126   2.274   5.138 -1.8116 -0.7622 -2.1451
 3485TIP3   OH210460   0.839   2.290   2.153  0.2901  0.1725  0.4574
 3485TIP3    H110461   0.747   2.265   2.157  0.4927 -0.4631  1.2518
 3485TIP3    H210462   0.887   2.214   2.184  1.0200  0.8819  1.1367
 3486TIP3   OH210463   2.192   3.524   4.745  0.5552 -0.2477 -0.1709
 3486TIP3    H110464   2.257   3.478   4.799 -0.8241 -1.5088  0.4903
 3486TIP3    H210465   2.115   3.531   4.801  0.8698  3.6296  0.0426
 3487TIP3   OH210466   3.208   4.991   2.387 -0.2752 -0.6633  0.2528
 3487TIP3    H110467   3.133   4.974   2.443  0.7772  0.5062  2.1142
 3487TIP3    H210468   3.199   5.082   2.360  1.9522  0.5825  3.1159
 3488TIP3   OH210469   1.780   5.574   2.323 -0.0802 -0.5435  1.1220
 3488TIP3    H110470   1.750   5.595   2.411  0.7762  0.1854  1.2611
 3488TIP3    H210471   1.732   5.495   2.299 -1.3420  0.0267  1.6973
 3489TIP3   OH210472   0.507   5.440   4.336  0.6851  0.3091  0.3379
 3489TIP3    H110473   0.578   5.420   4.397  0.3894  0.1666  0.6343
 3489TIP3    H210474   0.543   5.509   4.280  1.6136 -0.8033 -0.4960
 3490TIP3   OH210475   0.530   3.229   2.246  0.1001 -0.3144  0.8231
 3490TIP3    H110476   0.437   3.228   2.222  0.2525 -0.5598  0.2194
 3490TIP3    H210477   0.572   3.172   2.182  1.1164  2.1432 -0.8756
 3491TIP3   OH210478   5.404   4.112   5.184 -0.3639 -0.3401 -0.1715
 3491TIP3    H110479   5.391   4.172   5.258 -2.1303 -1.8641  0.8271
 3491TIP3    H210480   5.418   4.169   5.109  0.3869  1.2754  1.1325
 3492TIP3   OH210481   5.977   5.490   4.365  0.7453 -0.5577  0.0630
 3492TIP3    H110482   5.996   5.420   4.427  0.2719  0.0540  0.9231
 3492TIP3    H210483   6.010   5.569   4.407 -0.9438  0.0921  0.2512
 3493TIP3   OH210484   1.375   5.216   3.867 -0.5376  0.2327  0.0192
 3493TIP3    H110485   1.397   5.136   3.821 -0.7401  0.7229 -0.9578
 3493TIP3    H210486   1.383   5.285   3.801  0.3789  1.1247  1.0220
 3494TIP3   OH210487   4.152   2.994   1.765 -0.3181  0.3461 -0.1051
 3494TIP3    H110488   4.127   2.907   1.796  0.1689  0.7347  1.4574
 3494TIP3    H210489   4.097   3.054   1.814  1.5257  1.0553  1.2239
 3495TIP3   OH210490   4.129   2.654   3.332 -0.2367  0.4242  0.4675
 3495TIP3    H110491   4.093   2.615   3.412  0.0899 -0.2863  0.2723
 3495TIP3    H210492   4.165   2.738   3.361  0.9759 -0.3502  1.3085
 3496TIP3   OH210493   4.194   3.511   2.896 -0.3272 -0.3819  0.3444
 3496TIP3    H110494   4.240   3.436   2.932 -0.3684 -0.4806  0.1935
 3496TIP3    H210495   4.208   3.581   2.960 -0.2232 -0.4956  0.4462
 3497TIP3   OH210496   4.137   2.183   0.395  0.4067  0.3057  0.0529
 3497TIP3    H110497   4.173   2.145   0.314  0.1112 -0.4367  0.2620
 3497TIP3    H210498   4.156   2.118   0.462  2.9821  2.0007  1.1500
 3498TIP3   OH210499   2.563   2.302   2.742  0.0274  0.3031 -0.1537
 3498TIP3    H110500   2.497   2.233   2.741  0.3278  0.0074 -1.3947
 3498TIP3    H210501   2.514   2.383   2.728 -0.1528  0.1629 -0.3307
 3499TIP3   OH210502   2.614   3.407   2.144 -0.6182 -0.5448  0.3097
 3499TIP3    H110503   2.590   3.380   2.233 -0.4747 -0.9201  0.2314
 3499TIP3    H210504   2.530   3.423   2.101 -0.6844  0.2052  0.6836
 3500TIP3   OH210505   1.623   0.717   4.758  0.2751  0.7058 -0.3359
 3500TIP3    H110506   1.645   0.785   4.694 -0.0114  2.1155  1.0024
 3500TIP3    H210507   1.586   0.646   4.706  1.9313  0.9478 -1.9291
 3501TIP3   OH210508   1.051   1.504   4.938 -0.1458  0.1523  0.3061
 3501TIP3    H110509   1.031   1.440   5.005 -0.6139 -0.7181 -0.6356
 3501TIP3    H210510   0.978   1.500   4.877  0.4212  0.6675 -0.4394
 3502TIP3   OH210511   3.328   0.253   3.706 -0.4087 -0.0089 -0.6370
 3502TIP3    H110512   3.377   0.191   3.761 -1.3558 -0.6196 -0.4617
 3502TIP3    H210513   3.262   0.290   3.764 -2.7052 -2.0904 -1.7462
 3503TIP3   OH210514   5.634   1.398   1.208  0.4147  0.5938 -0.4048
 3503TIP3    H110515   5.721   1.358   1.208  0.7157  1.2243 -0.6421
 3503TIP3    H210516   5.637   1.461   1.280 -0.5340 -0.7732  0.9019
 3504TIP3   OH210517   1.498   3.585   2.669  0.4342  0.5652  0.6577
 3504TIP3    H110518   1.567   3.622   2.724 -1.2787  1.4794  2.3296
 3504TIP3    H210519   1.456   3.661   2.629  0.0117  0.0675  0.1364
 3505TIP3   OH210520   3.868   5.656   0.049 -0.4707  0.0892 -0.1407
 3505TIP3    H110521   3.856   5.709   0.128  0.7923  0.3288 -0.0849
 3505TIP3    H210522   3.795   5.594   0.051 -0.3454 -0.0566  1.3277
 3506TIP3   OH210523   0.115   5.561   5.120 -0.3595 -0.1836 -0.0044
 3506TIP3    H110524   0.149   5.482   5.160  0.4519  0.3361  0.3685
 3506TIP3    H210525   0.107   5.624   5.192 -0.1811  0.3354 -0.4297
 3507TIP3   OH210526   5.938   1.803   0.741  0.1162  0.7176 -0.0093
 3507TIP3    H110527   6.004   1.827   0.807 -0.5096 -0.0536  0.9367
 3507TIP3    H210528   5.979   1.825   0.658  1.2641  0.9937  0.5924
 3508TIP3   OH210529   4.628   1.992   2.081 -0.3688 -0.5197 -0.5978
 3508TIP3    H110530   4.659   2.022   1.995  1.9652  0.6960  0.5806
 3508TIP3    H210531   4.574   2.063   2.114  0.0015 -0.3012 -0.4470
 3509TIP3   OH210532   3.905   1.628   5.003 -0.1335 -0.4194  0.0781
 3509TIP3    H110533   3.849   1.676   5.063  1.5059  2.3006 -0.3908
 3509TIP3    H210534   3.903   1.679   4.922  0.4868 -2.0364 -1.0142
 3510TIP3   OH210535   1.832   3.275   3.029 -0.2574  0.2406  0.0537
 3510TIP3    H110536   1.868   3.254   3.116 -0.9388 -1.6463 -0.0798
 3510TIP3    H210537   1.825   3.190   2.985  1.5327  1.2727 -2.4708
 3511TIP3   OH210538   3.496   1.885   3.997 -0.7907 -0.3331  0.2314
 3511TIP3    H110539   3.513   1.797   3.962  0.5721 -0.7462  1.8144
 3511TIP3    H210540   3.489   1.940   3.919  0.3337 -1.5073 -0.7626
 3512TIP3   OH210541   4.086   1.503   0.584 -0.1003  0.1127  0.2990
 3512TIP3    H110542   4.125   1.490   0.671  2.1130  2.0609 -0.3070
 3512TIP3    H210543   4.031   1.580   0.594 -1.2576 -0.6880  0.3356
 3513TIP3   OH210544   4.442   2.036   4.409 -0.4359  0.4672 -0.1145
 3513TIP3    H110545   4.518   2.085   4.377 -0.0050  0.7347  1.2884
 3513TIP3    H210546   4.464   1.944   4.392  1.0314  0.3983  1.9342
 3514TIP3   OH210547   2.974   5.864   1.508 -0.0900  0.4846 -0.3225
 3514TIP3    H110548   3.069   5.860   1.522  0.0814  0.3198 -1.4840
 3514TIP3    H210549   2.963   5.918   1.430 -0.8793 -0.4032 -0.8500
 3515TIP3   OH210550   0.483   2.116   3.837 -0.0897  0.2572  1.1413
 3515TIP3    H110551   0.527   2.078   3.760  0.3172 -0.9671  1.9446
 3515TIP3    H210552   0.445   2.041   3.882 -2.6466  1.2277  0.7514
 3516TIP3   OH210553   5.100   3.531   3.437 -0.1592 -0.0462  0.0220
 3516TIP3    H110554   5.066   3.528   3.526  0.5406  0.0370  0.2915
 3516TIP3    H210555   5.112   3.439   3.413  0.3034 -0.0482  0.2626
 3517TIP3   OH210556   1.516   3.028   4.875  0.1052  0.1873  0.3488
 3517TIP3    H110557   1.439   2.973   4.859 -2.3748  3.1468  1.0969
 3517TIP3    H210558   1.515   3.091   4.803  2.3658 -0.1448 -0.0435
 3518TIP3   OH210559   3.963   3.995   4.745  0.1373  0.3273 -0.4007
 3518TIP3    H110560   3.885   3.982   4.691  1.9600 -2.8395 -2.6248
 3518TIP3    H210561   4.003   4.075   4.710 -2.0945  2.2129  1.0124
 3519TIP3   OH210562   2.927   4.830   4.463  0.4140 -0.2191 -0.0051
 3519TIP3    H110563   2.873   4.771   4.410 -0.2426 -0.1623  0.5908
 3519TIP3    H210564   2.914   4.801   4.553  1.7856 -0.5252  0.1096
 3520TIP3   OH210565   0.103   5.095   0.766  0.3166  0.4334 -0.2494
 3520TIP3    H110566   0.045   5.096   0.842  0.1718  1.0183 -0.3643
 3520TIP3    H210567   0.173   5.035   0.790  0.0146  0.2351  0.1520
 3521TIP3   OH210568   6.012   4.532   0.982  0.2502 -0.0903  0.2872
 3521TIP3    H110569   6.021   4.587   0.904 -1.0175 -1.6396 -1.0145
 3521TIP3    H210570   5.948   4.577   1.036  0.5944  0.6347  0.0984
 3522TIP3   OH210571   0.323   4.526   4.930 -0.5716 -0.4573 -0.4924
 3522TIP3    H110572   0.260   4.504   4.999 -0.9772  0.4255 -0.5705
 3522TIP3    H210573   0.278   4.589   4.875  0.1482 -0.3187 -0.9383
 3523TIP3   OH210574   2.584   2.143   1.365  0.2870 -0.4630 -0.1436
 3523TIP3    H110575   2.606   2.222   1.415  0.7518 -0.9204  0.3903
 3523TIP3    H210576   2.629   2.155   1.281  0.6411 -0.3231  0.0653
 3524TIP3   OH210577   1.443   4.859   4.402  0.4198  0.6838 -0.0259
 3524TIP3    H110578   1.422   4.843   4.310  0.3403  1.3289 -0.1245
 3524TIP3    H210579   1.416   4.950   4.418  0.2953  0.5317  0.6748
 3525TIP3   OH210580   5.675   0.705   0.223  0.2840 -0.2221 -0.1799
 3525TIP3    H110581   5.581   0.689   0.232  0.0048  1.2499 -0.3061
 3525TIP3    H210582   5.702   0.652   0.148 -0.6763  0.2161 -0.8513
 3526TIP3   OH210583   1.594   0.854   3.093  0.5046  0.4116 -0.1021
 3526TIP3    H110584   1.578   0.760   3.091 -0.6341  0.5127  1.6184
 3526TIP3    H210585   1.517   0.890   3.138  1.4391  2.0268  0.2819
 3527TIP3   OH210586   2.727   2.278   4.050 -0.0090 -0.1643  0.3982
 3527TIP3    H110587   2.788   2.267   4.122 -0.6880  2.2617  1.4519
 3527TIP3    H210588   2.774   2.246   3.973  0.8700 -2.4326  1.8069
 3528TIP3   OH210589   3.576   0.489   1.903  0.6027 -0.0672 -0.1472
 3528TIP3    H110590   3.623   0.478   1.986  0.4420  0.6543  0.0445
 3528TIP3    H210591   3.508   0.554   1.923  0.1708 -0.3489 -0.6844
 3529TIP3   OH210592   6.266   4.094   4.574  0.9481 -0.3482  0.3027
 3529TIP3    H110593   6.332   4.069   4.510  1.2449  0.1004  0.4306
 3529TIP3    H210594   6.249   4.187   4.558 -1.9178 -1.0890 -1.7624
 3530TIP3   OH210595   4.979   2.744   3.384  0.0468  0.0520 -0.6295
 3530TIP3    H110596   4.924   2.730   3.461  1.0771 -0.1310  0.0953
 3530TIP3    H210597   4.937   2.693   3.315 -0.6047 -0.1991 -0.0631
 3531TIP3   OH210598   4.455   5.700   2.698  0.2496  0.0233 -0.1805
 3531TIP3    H110599   4.445   5.773   2.760 -1.5475  0.7114 -1.1896
 3531TIP3    H210600   4.422   5.624   2.745 -0.3333  0.3861  0.0163
 3532TIP3   OH210601   3.496   0.947   4.084  0.4800  0.1878  0.4061
 3532TIP3    H110602   3.470   1.037   4.063 -0.5101  0.0079  0.8353
 3532TIP3    H210603   3.583   0.957   4.124  0.9658  0.8210 -0.7457
 3533TIP3   OH210604   3.887   3.190   0.601 -0.4436 -0.4949  0.4923
 3533TIP3    H110605   3.824   3.217   0.668 -0.3003  0.1475  0.3744
 3533TIP3    H210606   3.911   3.100   0.625  1.8996  0.6532  3.0840
 3534TIP3   OH210607   0.327   2.748   4.746 -0.1284  0.3417  0.7203
 3534TIP3    H110608   0.317   2.695   4.667  0.8015 -1.0168  1.4572
 3534TIP3    H210609   0.306   2.837   4.718  0.7120  0.0071 -1.2089
 3535TIP3   OH210610   1.295   4.708   4.656 -0.0874 -0.1378 -0.3392
 3535TIP3    H110611   1.255   4.628   4.624 -2.6486  1.3863 -1.2217
 3535TIP3    H210612   1.355   4.734   4.585  1.0127 -1.3865  0.0981
 3536TIP3   OH210613   6.264   4.324   2.208 -0.3135  0.0278  0.0153
 3536TIP3    H110614   6.259   4.304   2.302  0.1558  0.1993  0.0789
 3536TIP3    H210615   6.320   4.402   2.203 -2.5658  1.7260 -0.1803
 3537TIP3   OH210616   0.793   5.310   3.770  0.2585 -0.0581 -0.0581
 3537TIP3    H110617   0.872   5.263   3.743  0.0822 -0.6934  0.4955
 3537TIP3    H210618   0.803   5.398   3.734  1.1175 -0.1976 -0.1652
 3538TIP3   OH210619   0.532   1.423   4.964 -0.1885  0.8292 -0.1723
 3538TIP3    H110620   0.475   1.486   4.920 -0.7970  0.2880 -0.1611
 3538TIP3    H210621   0.498   1.417   5.053  0.3924  1.1170  0.0791
 3539TIP3   OH210622   4.196   4.042   4.494  0.3636 -0.3145  0.1988
 3539TIP3    H110623   4.134   4.112   4.510 -0.1961 -0.9160  0.7309
 3539TIP3    H210624   4.220   4.051   4.402 -1.7861 -1.0691 -0.4895
 3540TIP3   OH210625   1.239   3.092   2.213  0.0778 -0.0096  0.1741
 3540TIP3    H110626   1.236   3.188   2.219 -0.3862 -0.1234  2.3136
 3540TIP3    H210627   1.332   3.071   2.225 -0.0420  0.1051  1.3885
 3541TIP3   OH210628   1.325   1.490   1.469 -0.4449  0.7004 -0.1402
 3541TIP3    H110629   1.290   1.501   1.381 -1.4001 -1.9704 -0.1931
 3541TIP3    H210630   1.282   1.411   1.502  0.6855  1.0164  2.3297
 3542TIP3   OH210631   2.700   1.676   4.492 -0.4209 -0.2616 -0.4528
 3542TIP3    H110632   2.702   1.762   4.449 -0.4650 -0.1448 -0.2252
 3542TIP3    H210633   2.690   1.696   4.585  1.1770 -0.4729 -0.2121
 3543TIP3   OH210634   5.644   5.742   2.796 -0.4232 -0.0454 -0.3672
 3543TIP3    H110635   5.560   5.707   2.767 -0.1558 -0.0337 -1.1958
 3543TIP3    H210636   5.624   5.832   2.824 -0.7972 -0.2652  0.0845
 3544TIP3   OH210637   5.662   2.324   4.433  0.0101 -0.3755 -0.1893
 3544TIP3    H110638   5.638   2.375   4.356 -0.2064  0.6341  0.5296
 3544TIP3    H210639   5.584   2.326   4.488  0.3007 -0.7559  0.2437
 3545TIP3   OH210640   1.896   1.043   1.376  0.4311 -0.3280 -0.3432
 3545TIP3    H110641   1.921   1.099   1.450  0.4368 -0.0105 -0.5847
 3545TIP3    H210642   1.960   0.972   1.377  0.5125 -0.2531 -0.1249
 3546TIP3   OH210643   6.299   5.912   3.797 -0.4329  0.0152 -0.5762
 3546TIP3    H110644   6.217   5.960   3.788 -0.3976  0.4024  0.8033
 3546TIP3    H210645   6.279   5.842   3.859 -0.0044 -0.5992 -1.1238
 3547TIP3   OH210646   3.882   5.696   1.556  0.7683  0.4819  0.5948
 3547TIP3    H110647   3.873   5.713   1.463 -0.3048 -0.7322  0.4541
 3547TIP3    H210648   3.969   5.656   1.565  1.0600  1.0121  0.2025
 3548TIP3   OH210649   5.180   3.008   2.917  0.2350 -0.1407 -0.2446
 3548TIP3    H110650   5.111   2.976   2.975  0.6033 -1.5386 -0.5388
 3548TIP3    H210651   5.133   3.045   2.842 -0.2284 -1.5180 -0.6699
 3549TIP3   OH210652   2.177   5.560   0.264 -0.1838  0.4897  0.4291
 3549TIP3    H110653   2.269   5.572   0.286 -0.3695 -0.1416  1.6113
 3549TIP3    H210654   2.135   5.642   0.289 -0.0220  0.5982  0.3419
 3550TIP3   OH210655   5.062   5.244   2.922  0.1876 -0.1994  0.2206
 3550TIP3    H110656   4.973   5.244   2.888 -0.1660 -2.2007  1.0595
 3550TIP3    H210657   5.117   5.243   2.843 -0.4654  1.2690 -0.3055
 3551TIP3   OH210658   5.250   1.069   4.381  0.6148 -0.6525 -0.1984
 3551TIP3    H110659   5.250   1.164   4.394 -0.7160 -0.7292  0.5699
 3551TIP3    H210660   5.159   1.048   4.360  0.7923 -1.8174  0.1230
 3552TIP3   OH210661   3.645   4.168   2.357  0.1314 -0.2579 -0.0443
 3552TIP3    H110662   3.628   4.112   2.282 -0.2749 -1.7959  1.1598
 3552TIP3    H210663   3.740   4.167   2.367  0.1940  0.0251 -0.5729
 3553TIP3   OH210664   1.040   3.587   2.541 -0.5644  0.1883 -0.1051
 3553TIP3    H110665   0.950   3.571   2.569 -0.6477  0.0527 -0.4461
 3553TIP3    H210666   1.042   3.563   2.449 -0.1610  0.1294 -0.0866
 3554TIP3   OH210667   0.482   4.206   0.251 -0.1000  0.9047 -0.8119
 3554TIP3    H110668   0.486   4.115   0.222 -1.7059  0.7892 -0.8065
 3554TIP3    H210669   0.388   4.223   0.261  0.2307  1.4337  2.7025
 3555TIP3   OH210670   0.275   2.708   1.567  0.2197  0.7213 -0.8089
 3555TIP3    H110671   0.339   2.749   1.626 -0.9184 -0.5211  1.4215
 3555TIP3    H210672   0.220   2.655   1.625 -0.5435 -1.1601 -3.1053
 3556TIP3   OH210673   0.695   1.852   4.735  0.0189 -0.4324 -0.0772
 3556TIP3    H110674   0.684   1.907   4.657 -0.7916 -0.7681 -0.2103
 3556TIP3    H210675   0.785   1.822   4.730  0.9769  2.0500  0.7868
 3557TIP3   OH210676   3.243   5.823   0.800 -0.3070  0.1548 -0.0518
 3557TIP3    H110677   3.183   5.872   0.745  0.0941  0.5542 -0.1341
 3557TIP3    H210678   3.189   5.754   0.839 -0.8357  0.5662 -0.0522
 3558TIP3   OH210679   4.973   0.934   4.401 -0.1523  0.3146  0.2250
 3558TIP3    H110680   4.887   0.969   4.377  0.0052  0.5584  0.0086
 3558TIP3    H210681   4.984   0.958   4.493 -0.3642  0.1849  0.2843
 3559TIP3   OH210682   0.026   1.032   1.777  0.1930 -0.3042  0.2690
 3559TIP3    H110683   0.056   1.118   1.807  0.7196  0.4891 -2.3147
 3559TIP3    H210684   0.099   0.973   1.796  0.2168 -0.0124  1.1563
 3560TIP3   OH210685   1.066   3.445   0.493  0.2371 -0.1734  0.5433
 3560TIP3    H110686   0.986   3.393   0.504  0.2811 -0.2898  0.3198
 3560TIP3    H210687   1.089   3.472   0.582  0.8103 -1.4452  0.7992
 3561TIP3   OH210688   4.272   3.210   5.084 -0.1273  0.2949 -0.1621
 3561TIP3    H110689   4.213   3.144   5.047 -0.8581 -0.2963  1.8687
 3561TIP3    H210690   4.317   3.248   5.009 -2.5691  0.2700 -1.7556
 3562TIP3   OH210691   1.102   2.037   3.527  0.0358  0.1899  0.2099
 3562TIP3    H110692   1.164   2.012   3.459  0.5787  1.3700  0.2495
 3562TIP3    H210693   1.153   2.034   3.608  0.2135  1.6445  0.1853
 3563TIP3   OH210694   4.067   5.381   2.662  0.2930  0.5052  0.3430
 3563TIP3    H110695   4.078   5.447   2.731  0.4715  0.5864  0.2363
 3563TIP3    H210696   3.982   5.401   2.624 -0.1789 -0.0420  1.0843
 3564TIP3   OH210697   1.922   3.969   0.971  0.1561 -0.0854  0.0200
 3564TIP3    H110698   2.010   3.931   0.979  0.1094 -0.0531  0.8009
 3564TIP3    H210699   1.872   3.904   0.922  0.3907 -0.5116  0.3280
 3565TIP3   OH210700   5.392   4.617   2.964  0.0890  0.4231 -0.4615
 3565TIP3    H110701   5.311   4.668   2.957 -0.0838  0.0164 -1.6340
 3565TIP3    H210702   5.370   4.531   2.928  1.0175  0.2829 -0.7267
 3566TIP3   OH210703   0.124   0.737   0.673  0.3657 -0.1575  0.3205
 3566TIP3    H110704   0.161   0.797   0.737  0.8682 -0.5930  0.4508
 3566TIP3    H210705   0.045   0.702   0.715  0.1547  0.2910  0.3020
 3567TIP3   OH210706   2.324   5.821   0.015 -0.5254 -0.4363  0.5127
 3567TIP3    H110707   2.405   5.850  -0.027 -2.0584  0.2641 -2.1454
 3567TIP3    H210708   2.354   5.763   0.085  2.2615 -1.5799 -1.4233
 3568TIP3   OH210709   3.660   5.882   4.880  0.2386 -0.3001  0.4231
 3568TIP3    H110710   3.724   5.950   4.896  0.0518 -0.5290  2.5037
 3568TIP3    H210711   3.710   5.810   4.840  0.9641  0.0936  0.6092
 3569TIP3   OH210712   1.131   1.447   3.448 -0.3870  0.7350 -0.2075
 3569TIP3    H110713   1.120   1.373   3.507  3.1063  0.5415  0.4351
 3569TIP3    H210714   1.080   1.518   3.487 -2.0733 -0.6977  0.3049
 3570TIP3   OH210715   5.952   4.227   2.420 -0.1573 -0.3350  0.4901
 3570TIP3    H110716   6.036   4.216   2.465 -0.2766 -0.0774  0.7736
 3570TIP3    H210717   5.908   4.297   2.467  0.7058  1.6425 -1.4807
 3571TIP3   OH210718   4.017   4.989   2.433 -0.0926 -0.3230  0.1831
 3571TIP3    H110719   4.006   4.944   2.516 -0.4416 -1.8953 -0.6832
 3571TIP3    H210720   4.110   4.978   2.411 -0.1823 -0.6603 -0.0387
 3572TIP3   OH210721   2.318   2.548   0.573 -0.0277  0.5422 -0.1428
 3572TIP3    H110722   2.270   2.622   0.536 -0.0043  1.2298  1.1277
 3572TIP3    H210723   2.251   2.483   0.591  0.0855 -0.2543 -2.3202
 3573TIP3   OH210724   0.677   0.642   0.264 -0.3028  0.7435 -0.2146
 3573TIP3    H110725   0.670   0.633   0.359  2.9692  0.0298  0.0667
 3573TIP3    H210726   0.697   0.734   0.250  0.4816  0.5936 -0.0936
 3574TIP3   OH210727   3.803   4.401   0.375 -0.5206 -0.2875  0.0757
 3574TIP3    H110728   3.708   4.391   0.364 -0.5594  0.1149  0.0114
 3574TIP3    H210729   3.830   4.321   0.420 -1.0532  0.0174  0.9802
 3575TIP3   OH210730   4.459   4.845   3.342  0.2464  0.0267  0.0979
 3575TIP3    H110731   4.492   4.810   3.259  0.8086 -0.1627  0.3960
 3575TIP3    H210732   4.537   4.866   3.392 -0.0818  0.9431  0.2551
 3576TIP3   OH210733   1.758   1.340   3.451 -0.3378 -0.1092 -0.1975
 3576TIP3    H110734   1.797   1.417   3.492 -0.5200 -0.3228  0.3891
 3576TIP3    H210735   1.665   1.361   3.444 -0.2982 -0.0528 -0.5508
 3577TIP3   OH210736   1.877   0.517   2.209  0.6262 -0.4030  0.0546
 3577TIP3    H110737   1.839   0.507   2.122  1.7066  1.9018 -0.7677
 3577TIP3    H210738   1.820   0.465   2.266  0.0254 -2.1738 -2.0208
 3578TIP3   OH210739   5.775   1.930   3.382 -0.0287 -0.6098 -0.2646
 3578TIP3    H110740   5.771   1.919   3.477 -0.6987  0.5993 -0.1401
 3578TIP3    H210741   5.829   1.857   3.352 -0.3993 -1.4238  0.9683
 3579TIP3   OH210742   1.601   0.342   3.493  0.6278 -0.4635  0.2006
 3579TIP3    H110743   1.557   0.298   3.421  0.7629  1.7214 -1.3202
 3579TIP3    H210744   1.670   0.281   3.520 -0.2516 -1.8707 -0.6120
 3580TIP3   OH210745   4.866   4.476   1.106 -0.0066 -0.0275  0.3038
 3580TIP3    H110746   4.916   4.408   1.063  1.0706  0.2447  1.0794
 3580TIP3    H210747   4.922   4.505   1.179 -0.6243  1.3602  0.2608
 3581TIP3   OH210748   1.238   3.940   1.976  0.6024  0.1445 -0.0911
 3581TIP3    H110749   1.293   3.992   2.035  0.3251 -0.2765  0.5505
 3581TIP3    H210750   1.282   3.946   1.891  1.1425  0.5565  0.2078
 3582TIP3   OH210751   1.652   5.418   0.189 -0.0032 -0.1542  0.8155
 3582TIP3    H110752   1.626   5.376   0.271 -0.8869  0.2702  0.7626
 3582TIP3    H210753   1.719   5.360   0.152  2.5360  1.0059  3.1883
 3583TIP3   OH210754   2.718   0.448   0.933  0.2585  0.0263 -0.8207
 3583TIP3    H110755   2.633   0.421   0.966  1.2291 -1.8197  0.3326
 3583TIP3    H210756   2.713   0.544   0.927 -2.2548 -0.1158 -1.9623
 3584TIP3   OH210757   1.363   2.297   4.688  0.4537  0.2043  0.4562
 3584TIP3    H110758   1.344   2.299   4.594 -0.6499 -0.7820  0.6318
 3584TIP3    H210759   1.397   2.209   4.703  2.9830  1.1123  0.6040
 3585TIP3   OH210760   4.044   5.631   3.147  0.3009  0.5757 -0.8045
 3585TIP3    H110761   4.016   5.712   3.105  0.0214 -0.0646 -1.9095
 3585TIP3    H210762   3.962   5.585   3.166  0.4798 -0.0309 -1.4253
 3586TIP3   OH210763   5.716   0.128   4.004  0.5342  0.0509  0.0366
 3586TIP3    H110764   5.670   0.109   4.086  0.4362  1.3848  0.3172
 3586TIP3    H210765   5.781   0.194   4.028  3.1406 -2.2358 -0.1959
 3587TIP3   OH210766   0.446   2.892   1.711 -0.4222  0.6647 -0.2572
 3587TIP3    H110767   0.412   2.847   1.789  2.7699  0.2224  1.0122
 3587TIP3    H210768   0.463   2.981   1.741  1.0119  0.4388 -0.3532
 3588TIP3   OH210769   4.707   2.795   0.222 -0.4606 -0.6341 -0.7816
 3588TIP3    H110770   4.773   2.740   0.180  0.1367  0.0361 -0.7295
 3588TIP3    H210771   4.697   2.870   0.163  1.2277  0.9091  0.7657
 3589TIP3   OH210772   1.068   2.325   3.446  0.2040  0.0315 -0.8037
 3589TIP3    H110773   1.145   2.321   3.390  0.8143 -0.3468  0.0315
 3589TIP3    H210774   1.067   2.239   3.490 -0.5196  0.1475 -0.5849
 3590TIP3   OH210775   5.552   0.417   3.447  0.5632  0.6017  0.1594
 3590TIP3    H110776   5.638   0.386   3.417  1.3066 -0.5144  3.1372
 3590TIP3    H210777   5.571   0.496   3.497 -0.7931  3.1598 -2.9669
 3591TIP3   OH210778   1.161   3.486   4.229  0.7651  0.1364 -0.6255
 3591TIP3    H110779   1.159   3.580   4.244  1.7113 -0.1553  1.7497
 3591TIP3    H210780   1.072   3.456   4.252  1.1839  0.1742  1.1977
 3592TIP3   OH210781   0.213   1.191   5.124 -0.5749 -0.2361 -0.0772
 3592TIP3    H110782   0.135   1.198   5.068  0.3772  1.1329 -1.2957
 3592TIP3    H210783   0.278   1.148   5.068 -0.3475 -1.1305  0.8455
 3593TIP3   OH210784   5.425   1.355   1.770 -0.1715  0.2760  0.1596
 3593TIP3    H110785   5.359   1.412   1.808  1.9814  1.8262  1.8001
 3593TIP3    H210786   5.408   1.269   1.808 -1.4408  0.5457  0.2342
 3594TIP3   OH210787   1.238   4.261   2.714  0.5991  0.1159  0.4451
 3594TIP3    H110788   1.209   4.282   2.625 -1.2413 -0.5600  0.8320
 3594TIP3    H210789   1.208   4.335   2.767  1.6538  0.4973  0.5241
 3595TIP3   OH210790   4.292   5.609   1.793 -0.0937 -0.9232 -0.2041
 3595TIP3    H110791   4.364   5.600   1.730 -0.5080 -0.3570 -0.7812
 3595TIP3    H210792   4.280   5.522   1.829  0.4973 -1.1467 -0.5293
 3596TIP3   OH210793   2.258   0.775   0.605 -0.0382  0.5601  0.5958
 3596TIP3    H110794   2.292   0.790   0.516 -0.4526 -1.6721  0.0009
 3596TIP3    H210795   2.173   0.820   0.606 -0.6332 -0.4577 -0.6261
 3597TIP3   OH210796   0.412   1.100   3.555  0.4638 -0.2720  0.2469
 3597TIP3    H110797   0.429   1.112   3.462  0.4813  0.8032  0.3722
 3597TIP3    H210798   0.327   1.142   3.570  1.3512  1.3682  1.0449
 3598TIP3   OH210799   2.091   5.412   1.039  0.2908 -0.5256 -0.3682
 3598TIP3    H110800   2.086   5.489   0.981 -0.6467 -0.5274 -0.3071
 3598TIP3    H210801   2.083   5.448   1.127  1.2905 -0.5666 -0.2474
 3599TIP3   OH210802   3.152   0.350   2.734 -0.4091  0.7274 -0.5442
 3599TIP3    H110803   3.057   0.355   2.738 -0.5973 -1.9329  0.3050
 3599TIP3    H210804   3.170   0.289   2.663  0.6612  1.0438 -0.5624
 3600TIP3   OH210805   5.499   5.018   4.014  0.4703  0.2644 -0.1667
 3600TIP3    H110806   5.543   5.048   3.934  0.8442 -0.1803 -0.1297
 3600TIP3    H210807   5.570   5.004   4.077  0.3671 -1.1327 -0.3221
 3601TIP3   OH210808   5.191   2.383   2.726  0.7469  0.0425  0.4044
 3601TIP3    H110809   5.265   2.408   2.671 -1.7548 -0.7241 -3.7495
 3601TIP3    H210810   5.157   2.465   2.760  1.1887  0.8344 -0.9937
 3602TIP3   OH210811   2.472   3.431   5.178 -0.8234  0.0617 -0.5736
 3602TIP3    H110812   2.500   3.519   5.205 -1.9526  0.4635 -0.6400
 3602TIP3    H210813   2.552   3.390   5.144  0.2900  0.1370  1.7669
 3603TIP3   OH210814   3.094   5.341   3.365 -0.5744  0.3249  0.3622
 3603TIP3    H110815   3.038   5.348   3.288 -0.7729  0.3924  0.5115
 3603TIP3    H210816   3.182   5.329   3.330 -0.5774  0.9763  0.1219
 3604TIP3   OH210817   1.161   1.537   2.632  0.4640  0.3862  0.2691
 3604TIP3    H110818   1.066   1.527   2.624  0.5027  0.9089 -1.2396
 3604TIP3    H210819   1.196   1.450   2.617  0.1972 -0.1413  2.3690
 3605TIP3   OH210820   2.502   4.219   2.442  0.1767  0.4022  0.3753
 3605TIP3    H110821   2.554   4.276   2.385 -0.2985 -0.1816 -0.6668
 3605TIP3    H210822   2.456   4.279   2.501  0.2736  1.0442 -0.1970
 3606TIP3   OH210823   0.136   5.423   0.818  0.0212 -0.2143 -0.0262
 3606TIP3    H110824   0.232   5.417   0.824  0.0833 -0.0842 -0.8383
 3606TIP3    H210825   0.110   5.469   0.898  0.6951  0.3521 -0.1282
 3607TIP3   OH210826   3.318   2.991   2.460  0.2643 -0.5180  0.0660
 3607TIP3    H110827   3.261   2.914   2.451 -0.5573  0.1372 -0.5436
 3607TIP3    H210828   3.362   2.979   2.544  1.5892 -2.5899 -0.8387
 3608TIP3   OH210829   4.883   5.546   3.586  0.3135  0.3484 -0.3116
 3608TIP3    H110830   4.855   5.635   3.567 -1.8659  0.0686  1.2247
 3608TIP3    H210831   4.905   5.547   3.679  0.2596 -0.6870 -0.2763
 3609TIP3   OH210832   2.641   5.247   2.723 -0.3436 -0.0968  0.1745
 3609TIP3    H110833   2.662   5.339   2.704  0.6694  0.0209  1.6855
 3609TIP3    H210834   2.672   5.199   2.646  2.3873  0.4863  0.7874
 3610TIP3   OH210835   2.548   4.236   2.851  0.4522 -0.3091  0.8307
 3610TIP3    H110836   2.592   4.203   2.773  0.0207  0.8533  0.0773
 3610TIP3    H210837   2.504   4.316   2.823 -0.7170 -0.5077  1.9700
 3611TIP3   OH210838   3.274   4.069   1.874 -0.0765  0.1803 -0.1816
 3611TIP3    H110839   3.340   4.115   1.822 -1.8431  1.8780 -1.0259
 3611TIP3    H210840   3.229   4.012   1.811 -0.2303 -0.0501  0.1333
 3612TIP3   OH210841   4.539   5.183   2.392  0.1042 -0.2112  0.1348
 3612TIP3    H110842   4.503   5.222   2.471 -1.0405 -0.3092 -0.3158
 3612TIP3    H210843   4.545   5.256   2.330  0.1735 -0.3048  0.0311
 3613TIP3   OH210844   3.564   1.594   0.891  0.8331 -0.0261  0.2854
 3613TIP3    H110845   3.515   1.516   0.917  0.3158  0.2749  0.2341
 3613TIP3    H210846   3.534   1.612   0.802 -0.1757  1.0783  0.8119
 3614TIP3   OH210847   1.743   2.601   0.904  0.0811 -0.0113 -0.3020
 3614TIP3    H110848   1.650   2.582   0.921 -0.4536  0.8128 -2.1249
 3614TIP3    H210849   1.789   2.557   0.976 -1.7362  0.0323  0.9732
 3615TIP3   OH210850   1.385   0.100   4.144 -0.0823  0.0378  0.3170
 3615TIP3    H110851   1.478   0.080   4.134  0.1667  0.8128  0.9432
 3615TIP3    H210852   1.370   0.172   4.083 -0.0867  0.4158  0.7599
 3616TIP3   OH210853   6.293   1.949   4.217  0.1468  0.1485 -0.1655
 3616TIP3    H110854   6.278   2.020   4.155  3.2481  1.0153 -0.0597
 3616TIP3    H210855   6.266   1.984   4.302 -1.5011 -0.0760 -0.5542
 3617TIP3   OH210856   4.474   5.880   1.969 -0.0640 -0.1588  0.1662
 3617TIP3    H110857   4.463   5.919   2.056 -0.4206 -2.9066  1.4490
 3617TIP3    H210858   4.569   5.874   1.958  0.0031  1.1358 -0.1274
 3618TIP3   OH210859   6.151   4.455   2.984 -0.0757 -0.0719 -0.1235
 3618TIP3    H110860   6.106   4.534   3.015  1.7732  0.9576  0.1501
 3618TIP3    H210861   6.096   4.382   3.012  0.0740  0.9211  3.1509
 3619TIP3   OH210862   3.812   4.385   3.295  0.2426  0.0136 -0.0398
 3619TIP3    H110863   3.721   4.407   3.277  0.4529  2.6182  1.5056
 3619TIP3    H210864   3.860   4.466   3.280  2.0913 -0.8882  0.6442
 3620TIP3   OH210865   1.746   3.721   1.871  0.3268 -0.1116 -0.1352
 3620TIP3    H110866   1.728   3.655   1.938 -2.5983  0.0235 -0.6723
 3620TIP3    H210867   1.841   3.735   1.877  0.6951 -2.6149  1.5687
 3621TIP3   OH210868   5.222   3.194   3.964 -0.3307 -0.3059 -0.4928
 3621TIP3    H110869   5.163   3.121   3.983 -0.2099 -0.2432  0.1484
 3621TIP3    H210870   5.279   3.161   3.894 -0.8591 -0.5082 -0.8305
 3622TIP3   OH210871   5.994   5.332   2.533  0.4673 -0.4270  0.2078
 3622TIP3    H110872   5.922   5.386   2.501  1.2694  0.9245  0.6011
 3622TIP3    H210873   6.072   5.386   2.522  1.4943 -1.9929 -0.5272
 3623TIP3   OH210874   1.824   1.509   2.782 -0.6094 -0.1496 -0.0974
 3623TIP3    H110875   1.874   1.428   2.794 -1.2894 -0.4310  0.9508
 3623TIP3    H210876   1.864   1.571   2.842 -0.5181  0.0990 -0.4117
 3624TIP3   OH210877   2.283   3.255   0.566  0.5181  0.3150  0.0423
 3624TIP3    H110878   2.228   3.178   0.555 -2.0627  1.8889  1.0754
 3624TIP3    H210879   2.328   3.241   0.649  1.4634 -0.8360 -0.6388
 3625TIP3   OH210880   3.447   2.027   3.459  0.2068 -0.1144 -0.3286
 3625TIP3    H110881   3.481   2.021   3.549  1.0629 -0.2864 -0.6625
 3625TIP3    H210882   3.362   1.983   3.464  1.4551 -2.7304 -0.2122
 3626TIP3   OH210883   1.019   5.258   3.081  0.1034 -0.6171  0.2398
 3626TIP3    H110884   1.003   5.263   2.987 -0.2789 -2.5543  0.1553
 3626TIP3    H210885   1.113   5.243   3.088  0.4612  1.3784  0.2959
 3627TIP3   OH210886   4.636   5.850   4.636  0.1560 -0.1059  0.0496
 3627TIP3    H110887   4.719   5.819   4.674  1.9234 -0.1950 -3.3757
 3627TIP3    H210888   4.647   5.945   4.629 -0.0340 -0.1088 -0.3168
 3628TIP3   OH210889   1.086   2.705   1.930 -0.1104  0.5394 -0.6109
 3628TIP3    H110890   1.143   2.760   1.984  0.6770  0.7853 -1.6561
 3628TIP3    H210891   1.107   2.615   1.957 -0.6219  0.7001  0.3493
 3629TIP3   OH210892   4.769   1.131   2.992  0.0322  0.0089 -0.3028
 3629TIP3    H110893   4.704   1.169   3.050 -1.6674  1.0194 -2.6972
 3629TIP3    H210894   4.786   1.200   2.927  3.1872 -0.3838 -0.0695
 3630TIP3   OH210895   3.624   2.821   3.283 -0.0792 -0.1664  0.2178
 3630TIP3    H110896   3.627   2.904   3.331 -1.4148 -0.0962  0.2149
 3630TIP3    H210897   3.712   2.811   3.248  0.2464  1.0017  0.6400
 3631TIP3   OH210898   2.629   3.901   0.756  0.5435  0.0154 -0.1220
 3631TIP3    H110899   2.628   3.906   0.852 -3.5247 -1.3960  0.1157
 3631TIP3    H210900   2.577   3.976   0.728  2.4213  0.9249 -1.4041
 3632TIP3   OH210901   3.417   3.165   2.784  0.5707  0.5172  0.0631
 3632TIP3    H110902   3.464   3.243   2.753 -0.8121  1.2810 -0.2141
 3632TIP3    H210903   3.331   3.198   2.808  0.7623 -0.4821  2.3894
 3633TIP3   OH210904   5.155   5.540   2.538  0.2291  0.1785  0.1551
 3633TIP3    H110905   5.125   5.583   2.458 -0.2014  2.0239  1.2484
 3633TIP3    H210906   5.231   5.489   2.511 -1.4533 -1.4000 -1.9221
 3634TIP3   OH210907   3.281   0.082   3.980 -0.5248 -0.0285 -0.4607
 3634TIP3    H110908   3.325   0.004   4.014 -0.5075 -0.4632 -1.4629
 3634TIP3    H210909   3.349   0.149   3.978  0.7232 -1.1999 -3.8467
 3635TIP3   OH210910   5.788   1.273   3.508 -0.2422  0.1613 -0.0106
 3635TIP3    H110911   5.710   1.239   3.553  0.4021  1.6429  2.3832
 3635TIP3    H210912   5.755   1.304   3.424 -1.5119 -2.6878 -0.7155
 3636TIP3   OH210913   3.986   0.202   1.611  0.5781  0.9552  0.0176
 3636TIP3    H110914   4.057   0.207   1.675  1.4727  0.1750 -0.8660
 3636TIP3    H210915   4.031   0.193   1.527 -0.5727  1.4332 -0.6666
 3637TIP3   OH210916   0.586   3.608   3.764 -0.4953  0.0706  0.1950
 3637TIP3    H110917   0.492   3.595   3.755 -0.2850 -0.9487 -0.6843
 3637TIP3    H210918   0.625   3.526   3.734  0.6154 -0.3384  2.5004
 3638TIP3   OH210919   1.505   3.233   2.887  0.4022 -0.5828 -0.7011
 3638TIP3    H110920   1.520   3.169   2.956  0.2777  0.4650  0.3350
 3638TIP3    H210921   1.495   3.181   2.807  2.0260 -1.7485 -0.2075
 3639TIP3   OH210922   1.479   5.024   2.262 -0.5978  0.0316 -0.3387
 3639TIP3    H110923   1.448   5.002   2.349  0.6699  0.0103  0.1312
 3639TIP3    H210924   1.561   4.974   2.252 -0.1685  0.8525 -1.1074
 3640TIP3   OH210925   5.277   5.734   4.928 -0.4226 -0.2422  0.0043
 3640TIP3    H110926   5.325   5.660   4.890 -1.0391 -0.3751 -0.5258
 3640TIP3    H210927   5.343   5.782   4.978  0.5734  0.3487 -1.8113
 3641TIP3   OH210928   2.107   2.679   2.291 -0.3707 -0.2721 -0.0300
 3641TIP3    H110929   2.149   2.738   2.227 -0.8610  0.8522  0.6544
 3641TIP3    H210930   2.021   2.660   2.253 -0.4132 -0.1277 -0.0059
 3642TIP3   OH210931   5.255   2.904   5.071 -0.0179 -0.0404 -0.3023
 3642TIP3    H110932   5.180   2.911   5.011 -0.5801 -0.6186  0.3118
 3642TIP3    H210933   5.286   2.994   5.081 -1.5024  0.4282  0.4900
 3643TIP3   OH210934   0.190   2.145   3.909  0.2156  0.9611 -0.1039
 3643TIP3    H110935   0.120   2.193   3.865 -0.2046 -1.3510 -2.2116
 3643TIP3    H210936   0.270   2.176   3.867  0.2349  1.7114  0.4612
 3644TIP3   OH210937   3.694   5.475   2.310 -0.5906  0.6178  0.0975
 3644TIP3    H110938   3.667   5.550   2.257  1.1286  1.3406  0.1554
 3644TIP3    H210939   3.774   5.444   2.268 -1.6965 -1.7567 -0.4069
 3645TIP3   OH210940   4.785   1.872   1.712 -0.5740  0.3967  0.3125
 3645TIP3    H110941   4.701   1.916   1.695 -1.7875 -1.5300  0.9264
 3645TIP3    H210942   4.760   1.781   1.729  1.8663 -0.8060 -1.8791
 3646TIP3   OH210943   6.099   3.136   3.629  0.2552 -0.0425 -0.6175
 3646TIP3    H110944   6.098   3.043   3.653  0.9628  0.2987  0.8956
 3646TIP3    H210945   6.010   3.166   3.647  0.6899  0.1351  1.4932
 3647TIP3   OH210946   2.502   4.621   4.131 -0.4525  0.7948  0.0106
 3647TIP3    H110947   2.558   4.611   4.209 -0.2013 -2.1503 -0.4432
 3647TIP3    H210948   2.558   4.666   4.068  0.9198 -0.6419  0.1290
 3648TIP3   OH210949   0.728   4.657   2.414  0.3275  0.2345  0.2500
 3648TIP3    H110950   0.673   4.605   2.355 -0.4122  1.2035  0.0547
 3648TIP3    H210951   0.699   4.633   2.502  0.8037 -0.5342  0.2124
 3649TIP3   OH210952   6.041   0.689   3.088 -0.2710 -0.1248 -0.0978
 3649TIP3    H110953   5.959   0.699   3.040  0.1280 -1.1203 -1.0519
 3649TIP3    H210954   6.040   0.758   3.154 -1.7258  0.0659 -0.2994
 3650TIP3   OH210955   4.269   3.707   0.761  0.1475  0.1826 -0.2417
 3650TIP3    H110956   4.217   3.627   0.748  1.6667 -0.5939 -2.0372
 3650TIP3    H210957   4.217   3.776   0.721  0.0114 -0.4128 -1.1282
 3651TIP3   OH210958   1.652   3.636   3.771 -0.5692 -0.2190 -0.4075
 3651TIP3    H110959   1.737   3.676   3.787  0.1932 -2.3232  1.2813
 3651TIP3    H210960   1.604   3.701   3.719  2.0754  0.9729 -1.5066
 3652TIP3   OH210961   5.049   0.244   3.497  0.2343  0.1298 -0.5286
 3652TIP3    H110962   5.080   0.212   3.412  0.8422  0.4938 -0.4438
 3652TIP3    H210963   4.956   0.219   3.499 -0.1082  1.1912 -1.8187
 3653TIP3   OH210964   1.828   1.230   1.193  0.6905 -0.5858 -0.3576
 3653TIP3    H110965   1.866   1.154   1.238  0.3382 -0.1484  0.7162
 3653TIP3    H210966   1.753   1.254   1.247 -0.4667 -0.7655 -1.8593
 3654TIP3   OH210967   6.196   5.804   1.701  0.5137 -0.0436 -0.4705
 3654TIP3    H110968   6.116   5.795   1.754 -0.3013 -0.0040 -1.6551
 3654TIP3    H210969   6.252   5.732   1.730 -0.7224 -1.2301 -0.8980
 3655TIP3   OH210970   1.650   2.513   3.189  0.5612  0.0486  0.1588
 3655TIP3    H110971   1.699   2.521   3.107 -1.0241  0.0985 -0.8198
 3655TIP3    H210972   1.581   2.578   3.182 -0.5389 -1.0098  0.8387
 3656TIP3   OH210973   3.577   3.969   4.948  0.0647 -0.2340 -0.4574
 3656TIP3    H110974   3.663   3.958   4.907 -0.9374 -1.6880 -2.2821
 3656TIP3    H210975   3.548   3.881   4.970 -0.0698  0.3799  2.2418
 3657TIP3   OH210976   4.056   0.092   2.429 -0.4475  0.4389 -0.1594
 3657TIP3    H110977   4.117   0.134   2.367  0.0509  0.8655  0.6102
 3657TIP3    H210978   3.981   0.151   2.432 -0.0588  0.9127  0.3665
 3658TIP3   OH210979   0.798   0.161   2.011 -0.0373 -0.3562  0.0406
 3658TIP3    H110980   0.704   0.169   2.028 -0.2124  0.5628 -1.2063
 3658TIP3    H210981   0.831   0.251   2.014  0.7136 -0.6177 -0.0364
 3659TIP3   OH210982   1.295   2.255   4.353 -0.6127  0.1160 -0.5140
 3659TIP3    H110983   1.272   2.268   4.261 -0.2591 -0.8437 -0.7487
 3659TIP3    H210984   1.368   2.194   4.351  1.7457  2.7100  0.2241
 3660TIP3   OH210985   3.199   2.523   1.269 -0.4379 -0.4349 -0.0128
 3660TIP3    H110986   3.165   2.490   1.186 -1.0403 -0.0511  0.0792
 3660TIP3    H210987   3.122   2.534   1.324  0.0938 -2.3169  1.2078
 3661TIP3   OH210988   3.644   3.656   3.218 -0.4744 -0.4407  0.0446
 3661TIP3    H110989   3.718   3.668   3.278 -0.2860  1.2485 -0.4647
 3661TIP3    H210990   3.579   3.609   3.270 -0.3012  0.9188  1.5929
 3662TIP3   OH210991   3.813   5.454   2.573 -0.0177  0.2263  0.0342
 3662TIP3    H110992   3.754   5.467   2.647 -1.8442 -2.1290 -0.8641
 3662TIP3    H210993   3.770   5.497   2.499 -0.4434 -1.1066 -0.5293
 3663TIP3   OH210994   5.346   5.179   1.523 -0.0864 -0.5702  0.1441
 3663TIP3    H110995   5.378   5.262   1.488 -1.1890 -0.4891 -0.7523
 3663TIP3    H210996   5.412   5.115   1.498  0.2272 -0.1409 -0.1371
 3664TIP3   OH210997   6.120   2.633   3.916  0.3197  0.4311 -0.0117
 3664TIP3    H110998   6.055   2.652   3.848  0.0045 -0.9728 -0.1223
 3664TIP3    H210999   6.200   2.676   3.885 -0.2014  1.0503 -0.5282
 3665TIP3   OH211000   5.477   4.999   3.655  0.3770 -0.4661 -0.4094
 3665TIP3    H111001   5.511   4.912   3.633 -0.0047 -0.0202 -3.1746
 3665TIP3    H211002   5.385   4.984   3.675  0.0734 -0.6501 -1.8129
 3666TIP3   OH211003   0.586   4.396   1.012 -0.3216 -0.1104  0.0231
 3666TIP3    H111004   0.493   4.414   1.021  0.0760  2.1892  0.1336
 3666TIP3    H211005   0.591   4.302   0.996 -2.4886 -0.7125  2.2955
 3667TIP3   OH211006   1.639   1.999   0.690 -0.2076  0.2038 -0.7575
 3667TIP3    H111007   1.548   1.974   0.672 -0.5519  1.4595 -0.8687
 3667TIP3    H211008   1.668   2.043   0.611  0.1080  0.8474 -0.2898
 3668TIP3   OH211009   2.538   5.574   3.835 -0.8134 -0.2270  0.1667
 3668TIP3    H111010   2.510   5.496   3.788  0.8080 -0.6707 -0.1409
 3668TIP3    H211011   2.459   5.627   3.843 -1.6288 -1.2092 -0.9606
 3669TIP3   OH211012   2.770   3.473   0.033 -0.5560  0.2743 -0.3228
 3669TIP3    H111013   2.835   3.533   0.070  2.9751 -4.1147  1.5165
 3669TIP3    H211014   2.808   3.445  -0.051 -1.8679  0.2191 -0.9210
 3670TIP3   OH211015   0.037   5.540   4.058  0.0659  0.3999 -0.1672
 3670TIP3    H111016   0.093   5.486   4.002  1.0495  1.0182  0.1859
 3670TIP3    H211017  -0.052   5.518   4.031  0.4815 -0.2369 -1.0982
 3671TIP3   OH211018   5.179   5.693   1.596  0.3368  0.5044 -0.0044
 3671TIP3    H111019   5.163   5.772   1.546 -1.3574  0.1816 -0.0113
 3671TIP3    H211020   5.121   5.627   1.558  0.5279 -0.3064  1.0373
 3672TIP3   OH211021   2.964   1.300   0.040 -0.0555 -0.2219 -0.7703
 3672TIP3    H111022   3.052   1.334   0.022 -0.2609  0.5898 -0.2860
 3672TIP3    H211023   2.979   1.225   0.097  0.3509 -0.4103 -1.1107
 3673TIP3   OH211024   4.552   3.258   4.270 -0.1647  0.5166 -0.3696
 3673TIP3    H111025   4.516   3.255   4.358  0.7077 -0.5328 -0.0173
 3673TIP3    H211026   4.601   3.176   4.262  0.7660  1.1465 -1.3921
 3674TIP3   OH211027   4.946   3.575   3.195  0.2394 -0.1430  0.0325
 3674TIP3    H111028   5.003   3.576   3.273  0.1513  0.2144  0.0952
 3674TIP3    H211029   4.947   3.484   3.166 -0.0728 -0.3698  0.7082
 3675TIP3   OH211030   1.333   1.434   4.608 -0.0617 -0.0449  0.5078
 3675TIP3    H111031   1.255   1.394   4.567  0.0488  1.2437 -1.0393
 3675TIP3    H211032   1.325   1.411   4.701 -1.0415 -1.9281  0.0202
 3676TIP3   OH211033   5.200   4.421   2.189  0.1998  0.7359 -0.5435
 3676TIP3    H111034   5.216   4.465   2.106  0.5162 -1.1004 -1.5067
 3676TIP3    H211035   5.234   4.333   2.176  1.2450  0.7129  1.9153
 3677TIP3   OH211036   1.115   1.749   1.555  0.2599 -0.4024 -0.6740
 3677TIP3    H111037   1.144   1.693   1.482  1.1965 -0.5037 -0.2391
 3677TIP3    H211038   1.134   1.838   1.525  0.9360 -0.4628 -0.4310
 3678TIP3   OH211039   0.628   3.811   1.019 -0.1384 -0.3137  0.4384
 3678TIP3    H111040   0.568   3.885   1.027  1.1642  1.1695 -2.0806
 3678TIP3    H211041   0.578   3.745   0.972 -1.2730 -1.0960  2.5995
 3679TIP3   OH211042   4.386   5.476   2.825  0.0843  0.2813 -0.0325
 3679TIP3    H111043   4.419   5.443   2.908 -0.4100 -2.5885 -0.8840
 3679TIP3    H211044   4.291   5.474   2.833 -0.0093 -1.2984 -1.0538
 3680TIP3   OH211045   5.734   1.803   0.896 -0.1155 -0.3974  0.0783
 3680TIP3    H111046   5.683   1.883   0.912 -0.1134 -0.5373  0.7790
 3680TIP3    H211047   5.799   1.830   0.830  1.6632  0.9459  2.2225
 3681TIP3   OH211048   1.245   4.241   4.432 -0.1631  0.0096  0.1397
 3681TIP3    H111049   1.307   4.174   4.460 -0.4617 -0.1552  0.4202
 3681TIP3    H211050   1.287   4.283   4.357 -0.4044 -1.1545 -0.6787
 3682TIP3   OH211051   5.260   3.530   4.805  0.0561  0.5393 -0.2069
 3682TIP3    H111052   5.347   3.514   4.842  0.5821 -0.2182 -1.7006
 3682TIP3    H211053   5.216   3.446   4.810  0.6824 -0.0111 -2.5979
 3683TIP3   OH211054   2.709   3.629   1.974  0.0803 -0.0077 -0.1925
 3683TIP3    H111055   2.761   3.643   1.895  1.3391 -2.3976  0.1081
 3683TIP3    H211056   2.647   3.560   1.950 -0.0687 -0.1887  0.6704
 3684TIP3   OH211057   2.367   5.749   4.117  0.2882 -0.0296 -0.7216
 3684TIP3    H111058   2.460   5.773   4.112  0.2791 -0.2313 -2.9334
 3684TIP3    H211059   2.337   5.750   4.026 -1.6272 -0.9770 -0.1579
 3685TIP3   OH211060   3.200   5.616   0.574  0.9417  0.2000  0.0850
 3685TIP3    H111061   3.259   5.630   0.500  0.7085  1.1880  0.0731
 3685TIP3    H211062   3.259   5.610   0.650  1.1108  0.4198 -0.0257
 3686TIP3   OH211063   1.651   5.656   0.352  0.1884 -0.0565 -0.0913
 3686TIP3    H111064   1.645   5.584   0.289  1.5963 -0.6675  0.4308
 3686TIP3    H211065   1.568   5.654   0.399 -0.1692 -0.7292 -0.7358
 3687TIP3   OH211066   1.090   1.156   2.938 -0.3268  0.3189 -0.2764
 3687TIP3    H111067   1.138   1.109   2.869 -1.9896 -0.8366 -0.7079
 3687TIP3    H211068   1.074   1.090   3.005 -1.7576  0.5135 -0.3920
 3688TIP3   OH211069   4.971   2.644   3.971  0.2551 -0.4835  0.0897
 3688TIP3    H111070   4.906   2.705   4.005  0.2826 -0.9909  1.0947
 3688TIP3    H211071   4.943   2.626   3.882 -0.0671  0.5512 -0.0325
 3689TIP3   OH211072   0.934   0.679   4.468 -0.0256 -0.1378  0.5448
 3689TIP3    H111073   0.915   0.677   4.374  0.8204  0.2714  0.3524
 3689TIP3    H211074   0.859   0.637   4.509 -0.6171  0.0864 -0.2848
 3690TIP3   OH211075   1.766   3.025   5.036  0.1738 -0.2185 -0.4247
 3690TIP3    H111076   1.685   3.001   4.993  0.4880 -1.1108 -0.5344
 3690TIP3    H211077   1.814   2.943   5.046 -0.0158 -0.1204  1.8991
 3691TIP3   OH211078   6.149   2.957   2.409 -0.6354  0.6216 -0.4135
 3691TIP3    H111079   6.188   2.917   2.487 -2.2830 -0.0626  0.1078
 3691TIP3    H211080   6.133   2.883   2.350 -0.8655  0.9279 -0.7372
 3692TIP3   OH211081   0.164   0.602   3.985 -0.0732 -0.6864  0.0426
 3692TIP3    H111082   0.212   0.545   3.925 -0.1127  0.3120 -0.9765
 3692TIP3    H211083   0.072   0.588   3.963 -0.1374 -0.8839  0.4160
 3693TIP3   OH211084   3.687   3.835   1.971 -0.9639  0.2086 -0.6053
 3693TIP3    H111085   3.670   3.839   1.877  0.6646  0.5815 -0.9057
 3693TIP3    H211086   3.664   3.745   1.995 -0.3572 -0.2213 -1.5790
 3694TIP3   OH211087   3.133   5.047   4.049 -0.1105 -0.4211  0.2688
 3694TIP3    H111088   3.121   4.971   4.105  2.0737 -1.1074 -0.1066
 3694TIP3    H211089   3.104   5.019   3.962 -2.0874  0.1678  0.6980
 3695TIP3   OH211090   4.985   4.392   1.961  0.1030  0.1755 -0.4144
 3695TIP3    H111091   5.012   4.483   1.971  1.0773 -0.1525  0.0001
 3695TIP3    H211092   4.928   4.393   1.884  1.0120  0.9511 -1.1062
 3696TIP3   OH211093   5.376   5.379   2.503  0.0583  0.3736  0.1307
 3696TIP3    H111094   5.411   5.399   2.416 -0.3624 -0.1065 -0.1505
 3696TIP3    H211095   5.440   5.319   2.541 -1.2829 -1.9431 -1.0702
 3697TIP3   OH211096   5.349   2.232   1.174  0.2374  0.0044 -0.1063
 3697TIP3    H111097   5.422   2.227   1.236  1.1610 -1.3283 -1.2335
 3697TIP3    H211098   5.334   2.141   1.147 -0.0683  0.5281 -1.8718
 3698TIP3   OH211099   5.936   3.955   0.710  0.0525 -0.1764 -0.0947
 3698TIP3    H111100   6.013   3.970   0.657 -0.2000 -2.2584 -1.1360
 3698TIP3    H211101   5.874   4.024   0.683  0.5823 -0.1078 -1.1746
 3699TIP3   OH211102   0.708   4.994   1.496 -0.1600  0.7223  0.0921
 3699TIP3    H111103   0.715   4.944   1.578 -1.3004  0.2983 -0.0431
 3699TIP3    H211104   0.710   4.928   1.427 -1.5016  0.8566 -0.0983
 3700TIP3   OH211105   0.407   2.587   0.993 -0.3383 -0.3149  0.2549
 3700TIP3    H111106   0.433   2.601   0.902  0.7800  0.4729  0.6757
 3700TIP3    H211107   0.325   2.636   1.003  0.0498  0.4052 -0.0666
 3701TIP3   OH211108   1.569   2.607   1.892  0.0180 -0.3994 -0.3352
 3701TIP3    H111109   1.616   2.664   1.830  1.0532  1.0222  1.6601
 3701TIP3    H211110   1.561   2.523   1.846  0.0065  0.8093 -2.6927
 3702TIP3   OH211111   5.864   0.148   1.025  0.3077  0.0213 -0.0963
 3702TIP3    H111112   5.873   0.209   0.952 -0.0828  1.4696  1.0291
 3702TIP3    H211113   5.769   0.137   1.036  0.3502  0.2852  0.5663
 3703TIP3   OH211114   5.064   2.179   1.981 -0.5218  0.2364 -0.3167
 3703TIP3    H111115   5.112   2.180   2.064  0.2996 -0.7828 -0.7633
 3703TIP3    H211116   4.981   2.223   2.001 -1.5222 -2.3983  1.7999
 3704TIP3   OH211117   3.612   1.170   2.992 -0.6013 -0.2104 -0.2643
 3704TIP3    H111118   3.704   1.171   2.966 -0.7205 -2.8221 -1.0523
 3704TIP3    H211119   3.613   1.136   3.081 -0.8384 -1.1424 -0.6089
 3705TIP3   OH211120   0.507   0.106   1.772 -0.9920  0.0703  0.3280
 3705TIP3    H111121   0.532   0.082   1.861  1.1021 -2.0439 -0.7173
 3705TIP3    H211122   0.425   0.059   1.757 -0.1739 -1.4891  0.4461
 3706TIP3   OH211123   0.682   5.587   0.479  0.5399 -0.6352  0.0204
 3706TIP3    H111124   0.741   5.549   0.544 -0.8267 -1.2738  0.9535
 3706TIP3    H211125   0.657   5.672   0.516 -0.1568 -0.9529  0.3011
 3707TIP3   OH211126   2.098   2.462   3.225  0.1239  0.0466 -0.2463
 3707TIP3    H111127   2.025   2.461   3.288  0.1090 -0.9872 -0.2609
 3707TIP3    H211128   2.055   2.454   3.140  0.2381 -0.5101 -0.2579
 3708TIP3   OH211129   4.956   3.807   4.553 -0.6686 -0.6624  0.0162
 3708TIP3    H111130   4.906   3.880   4.591 -1.4777 -0.3541 -1.5789
 3708TIP3    H211131   4.938   3.733   4.612  2.0017  0.8254  3.0466
 3709TIP3   OH211132   3.840   4.213   1.022 -0.4699  0.3103  0.2513
 3709TIP3    H111133   3.844   4.288   0.963 -0.8765 -0.3472 -0.6592
 3709TIP3    H211134   3.862   4.138   0.966 -0.3904 -0.2799  1.0565
 3710TIP3   OH211135   1.638   0.626   4.171 -0.1664 -0.2713 -0.0409
 3710TIP3    H111136   1.693   0.563   4.217  1.0682  0.8736  0.1023
 3710TIP3    H211137   1.692   0.659   4.100 -0.4329  1.3038  0.4452
 3711TIP3   OH211138   4.585   5.592   2.485 -0.2011  0.2194 -0.4093
 3711TIP3    H111139   4.672   5.627   2.506 -0.8239  2.3242 -1.0688
 3711TIP3    H211140   4.533   5.610   2.563  0.4440 -3.3037  1.0251
 3712TIP3   OH211141   0.031   1.482   3.193  0.5890  0.1972 -0.2358
 3712TIP3    H111142   0.090   1.500   3.266  0.1907  3.4167 -0.5607
 3712TIP3    H211143   0.076   1.515   3.116 -0.0103 -0.9831 -1.1385
 3713TIP3   OH211144   3.664   0.195   0.703 -0.4939 -0.4194 -0.0764
 3713TIP3    H111145   3.673   0.261   0.633  0.2338 -1.0329 -0.5682
 3713TIP3    H211146   3.746   0.146   0.700 -1.2253 -1.6656 -0.0357
 3714TIP3   OH211147   2.997   5.150   2.897 -0.1661  0.2155  0.0327
 3714TIP3    H111148   3.033   5.074   2.852 -0.4924  0.1641 -0.1442
 3714TIP3    H211149   2.902   5.141   2.887 -0.2135  0.5248  0.2051
 3715TIP3   OH211150   2.688   0.231   0.340  0.4299  0.4206  0.3254
 3715TIP3    H111151   2.782   0.227   0.356  0.5040 -0.1362 -0.1954
 3715TIP3    H211152   2.670   0.155   0.285 -0.4093  0.2464  0.8262
 3716TIP3   OH211153   0.231   3.337   1.828  0.1817  0.0837  0.0328
 3716TIP3    H111154   0.200   3.426   1.847 -0.9730 -0.3546  0.2951
 3716TIP3    H211155   0.205   3.286   1.905  1.1567 -0.4145  0.0421
 3717TIP3   OH211156   2.315   3.289   2.182  0.4436  0.7770 -0.8590
 3717TIP3    H111157   2.262   3.348   2.235 -0.2370  0.1646 -0.8448
 3717TIP3    H211158   2.381   3.255   2.244  0.7250  1.3713 -0.8260
 3718TIP3   OH211159   0.964   4.947   0.531 -0.1506 -0.1992 -0.4171
 3718TIP3    H111160   0.982   4.902   0.449  0.2005  0.6008 -0.7968
 3718TIP3    H211161   0.901   5.015   0.507  2.0594  1.8941 -0.6410
 3719TIP3   OH211162   6.042   4.756   1.803  0.0303  0.3589  0.7167
 3719TIP3    H111163   6.111   4.784   1.863  0.1078 -0.3336  0.9543
 3719TIP3    H211164   5.975   4.717   1.860 -0.3452  0.5991  0.4436
 3720TIP3   OH211165   1.939   4.662   0.539 -0.2387  0.2954  0.1135
 3720TIP3    H111166   2.034   4.651   0.545  0.0082  1.8901 -0.3839
 3720TIP3    H211167   1.911   4.673   0.630 -0.3611 -2.6716  0.5477
 3721TIP3   OH211168   3.024   5.783   4.092 -0.3925 -0.1260 -0.6247
 3721TIP3    H111169   3.002   5.727   4.018 -1.6517 -1.4053  0.6561
 3721TIP3    H211170   3.109   5.751   4.122 -0.1577  0.0073 -1.1409
 3722TIP3   OH211171   1.079   4.165   2.959  0.5569 -0.3597  0.0130
 3722TIP3    H111172   1.137   4.125   3.024  1.4134 -0.9164 -1.0689
 3722TIP3    H211173   1.083   4.259   2.978  0.4226 -0.5523  1.0506
 3723TIP3   OH211174   5.253   1.467   2.084  0.1099  0.3513 -0.3443
 3723TIP3    H111175   5.189   1.535   2.104  0.4063  0.8802 -1.1414
 3723TIP3    H211176   5.273   1.479   1.991  0.3612 -0.6650 -0.4367
 3724TIP3   OH211177   1.031   1.436   2.223  0.5283  0.4310 -0.2144
 3724TIP3    H111178   1.073   1.384   2.292  0.2363  1.3429  0.6779
 3724TIP3    H211179   1.093   1.506   2.204 -0.5689  1.8845  1.2296
 3725TIP3   OH211180   2.564   5.079   0.833 -0.1529  0.0553 -0.2553
 3725TIP3    H111181   2.470   5.063   0.844 -0.2206  0.7741  0.2976
 3725TIP3    H211182   2.577   5.083   0.738 -0.3659 -1.7742 -0.3915
 3726TIP3   OH211183   4.896   2.046   2.627  0.0603 -0.0785 -0.5161
 3726TIP3    H111184   4.818   2.002   2.662 -0.0644  0.5133 -0.0393
 3726TIP3    H211185   4.884   2.138   2.650 -0.0141  0.3341 -2.1104
 3727TIP3   OH211186   1.519   3.745   0.602  0.0559  0.0412 -0.3627
 3727TIP3    H111187   1.498   3.829   0.561  4.9049  0.8705 -1.7647
 3727TIP3    H211188   1.488   3.679   0.539 -0.3070  0.9373 -1.1491
 3728TIP3   OH211189   3.083   4.854   3.048 -0.7369  0.0966 -0.3374
 3728TIP3    H111190   3.120   4.890   2.967 -0.9951  2.2038  0.4235
 3728TIP3    H211191   3.015   4.794   3.018 -0.7023  0.6906 -1.7057
 3729TIP3   OH211192   3.595   1.947   5.109 -0.5422  0.3740  0.3916
 3729TIP3    H111193   3.507   1.935   5.145 -1.0880  1.2840 -0.6006
 3729TIP3    H211194   3.632   2.020   5.159 -0.4057  0.1061  0.6884
 3730TIP3   OH211195   0.262   5.572   1.866  0.4639  0.8774  0.3590
 3730TIP3    H111196   0.341   5.627   1.856  0.0592  1.5386  0.7053
 3730TIP3    H211197   0.217   5.609   1.942 -0.6143  1.0448 -0.3407
 3731TIP3   OH211198   0.644   5.777   3.859  0.7333  0.0296 -0.2464
 3731TIP3    H111199   0.571   5.730   3.820  1.7919 -1.8824 -0.0508
 3731TIP3    H211200   0.701   5.799   3.786  0.9860 -0.3676 -0.1693
 3732TIP3   OH211201   6.015   2.344   4.869  0.2698  0.3234  0.1933
 3732TIP3    H111202   6.032   2.418   4.927  0.7246 -0.2485  0.8186
 3732TIP3    H211203   5.951   2.291   4.916  0.7774 -0.2389  0.2725
 3733TIP3   OH211204   6.099   2.597   2.972  0.1922 -0.7069  0.4690
 3733TIP3    H111205   6.059   2.512   2.986 -0.7292 -0.2954  0.4153
 3733TIP3    H211206   6.050   2.657   3.028  2.2419 -0.5511  2.2230
 3734TIP3   OH211207   3.521   0.702   3.580 -0.3160 -0.4300  0.1920
 3734TIP3    H111208   3.479   0.619   3.556  1.2046 -1.0833 -0.2681
 3734TIP3    H211209   3.483   0.723   3.665 -0.7012 -1.6104  0.3387
 3735TIP3   OH211210   0.028   1.277   4.593  0.0227  0.4184  1.0508
 3735TIP3    H111211  -0.059   1.308   4.617 -0.7057 -1.2186  0.7096
 3735TIP3    H211212   0.035   1.191   4.636 -0.1677 -1.2761 -1.9869
 3736TIP3   OH211213   1.941   3.172   3.236 -0.0861  0.5331 -0.3137
 3736TIP3    H111214   1.930   3.176   3.331 -1.1348  0.3213 -0.4113
 3736TIP3    H211215   2.006   3.103   3.222  1.2607  1.6188  0.3046
 3737TIP3   OH211216   5.698   5.138   2.497  0.1153  0.1732  0.2130
 3737TIP3    H111217   5.674   5.046   2.501 -0.4305  0.3306  0.8384
 3737TIP3    H211218   5.770   5.147   2.560  0.7454  0.0193 -0.4687
 3738TIP3   OH211219   1.563   3.987   2.325  0.0660  0.3054 -0.4349
 3738TIP3    H111220   1.618   3.959   2.251  0.1613 -0.7574  0.0226
 3738TIP3    H211221   1.613   3.961   2.402 -0.8530 -0.2204 -0.0082
 3739TIP3   OH211222   3.284   2.839   0.725 -0.6616 -0.1424  0.3365
 3739TIP3    H111223   3.256   2.809   0.638 -0.4090  1.1457 -0.2229
 3739TIP3    H211224   3.365   2.790   0.742 -1.0006 -0.8043  0.0982
 3740TIP3   OH211225   2.683   3.243   5.142 -0.1202 -0.2181 -0.0893
 3740TIP3    H111226   2.673   3.174   5.207  0.6663 -0.4594 -0.2168
 3740TIP3    H211227   2.679   3.197   5.058 -0.6173  0.0256 -0.2038
 3741TIP3   OH211228   5.322   5.842   2.879 -0.4144  0.3417 -0.7707
 3741TIP3    H111229   5.242   5.891   2.859 -1.8610 -1.4604  0.3137
 3741TIP3    H211230   5.301   5.752   2.854  0.8412 -0.3789  0.6396
 3742TIP3   OH211231   4.927   4.998   2.583 -0.0398  0.5499 -0.2594
 3742TIP3    H111232   4.983   4.925   2.557  2.4120  1.9168  0.8673
 3742TIP3    H211233   4.911   4.985   2.677 -2.1575 -0.1039 -0.6583
 3743TIP3   OH211234   2.889   0.250   4.047 -0.1618  0.4072  0.1000
 3743TIP3    H111235   2.862   0.171   4.093 -1.8743  0.8383 -0.0998
 3743TIP3    H211236   2.985   0.247   4.049 -0.1145 -2.3640 -1.0872
 3744TIP3   OH211237   4.942   2.023   3.617  0.1483 -0.0505  0.0779
 3744TIP3    H111238   4.940   1.954   3.683 -1.0005 -0.0987  0.0193
 3744TIP3    H211239   4.852   2.027   3.584  0.2671  1.2642 -0.1445
 3745TIP3   OH211240   0.016   4.815   1.576 -0.5906 -0.2727 -0.1373
 3745TIP3    H111241   0.099   4.825   1.622 -0.9349  0.7455  0.3006
 3745TIP3    H211242   0.033   4.847   1.487 -0.5013 -0.0868 -0.0541
 3746TIP3   OH211243   1.361   5.099   4.495  0.0684 -0.8047 -0.3407
 3746TIP3    H111244   1.313   5.177   4.468  1.7235  0.5393  0.4095
 3746TIP3    H211245   1.370   5.109   4.590  0.9400 -1.5271 -0.3405
 3747TIP3   OH211246   1.598   2.273   5.191 -0.2425 -0.1720 -0.1818
 3747TIP3    H111247   1.505   2.276   5.216 -0.4028 -0.4098 -0.7225
 3747TIP3    H211248   1.596   2.261   5.096  0.3449  1.0429 -0.3607
 3748TIP3   OH211249   4.025   4.707   1.888  0.0092  0.2975  0.3601
 3748TIP3    H111250   4.020   4.802   1.899  0.8396  0.8238 -2.7858
 3748TIP3    H211251   3.937   4.681   1.863  0.2536  0.6200 -0.8854
 3749TIP3   OH211252   0.065   2.882   0.100  0.2438 -0.5222 -0.4167
 3749TIP3    H111253   0.002   2.810   0.090  0.1408 -0.4948  0.0453
 3749TIP3    H211254   0.011   2.961   0.102  0.0445 -0.6470  2.5922
 3750TIP3   OH211255   2.280   0.405   5.074 -0.1098 -0.3279 -0.5143
 3750TIP3    H111256   2.204   0.447   5.034  0.5715  1.6637  0.1865
 3750TIP3    H211257   2.290   0.447   5.159  1.2253 -1.2172 -0.1890
 3751TIP3   OH211258   3.930   3.118   1.900 -0.5180  0.1370 -0.0968
 3751TIP3    H111259   3.936   3.211   1.919 -0.0769 -0.0702  0.8510
 3751TIP3    H211260   3.895   3.079   1.981  1.3479 -0.7691  0.3463
 3752TIP3   OH211261   5.809   4.357   3.491  0.5509 -0.2644 -0.2363
 3752TIP3    H111262   5.811   4.382   3.399  0.1852 -1.9912 -0.7430
 3752TIP3    H211263   5.817   4.440   3.538  0.3624  0.6897 -1.8070
 3753TIP3   OH211264   5.610   5.626   0.960 -0.1832  0.2653  0.2116
 3753TIP3    H111265   5.603   5.532   0.976  0.8006  0.1544  0.0954
 3753TIP3    H211266   5.687   5.652   1.011 -0.7174  1.0985  0.6124
 3754TIP3   OH211267   0.317   4.868   2.539 -0.1766  0.5103 -0.4733
 3754TIP3    H111268   0.392   4.866   2.479  1.2155 -2.0822  1.1764
 3754TIP3    H211269   0.241   4.872   2.481  1.1622  2.1509 -2.2409
 3755TIP3   OH211270   2.001   4.540   0.912  0.0568  0.1072  0.2400
 3755TIP3    H111271   2.022   4.492   0.832  0.3461  0.0537  0.3496
 3755TIP3    H211272   1.927   4.596   0.887 -0.2598 -0.3600  0.0974
 3756TIP3   OH211273   4.599   5.134   4.381 -0.3132  0.0790 -0.0795
 3756TIP3    H111274   4.620   5.041   4.382  0.3888  0.2226  1.7712
 3756TIP3    H211275   4.504   5.137   4.370 -0.2008 -0.7812 -1.5799
 3757TIP3   OH211276   3.820   3.615   0.493 -0.6121  0.2553  0.0936
 3757TIP3    H111277   3.874   3.605   0.414 -0.2937  1.7281  0.0996
 3757TIP3    H211278   3.736   3.577   0.469 -0.3056  0.0700 -0.7305
 3758TIP3   OH211279   3.803   2.083   0.634 -0.1889 -0.2887  0.0980
 3758TIP3    H111280   3.898   2.079   0.628 -0.2620 -0.2120 -1.4272
 3758TIP3    H211281   3.786   2.145   0.705  0.8987  0.5219 -0.3229
 3759TIP3   OH211282   4.441   1.910   4.834 -0.7316  0.5154 -0.1728
 3759TIP3    H111283   4.472   1.986   4.785 -1.1159  0.2966 -0.7611
 3759TIP3    H211284   4.450   1.936   4.926 -2.5439  1.9830 -0.3399
 3760TIP3   OH211285   1.465   4.550   2.981  0.3141  0.2889 -0.1029
 3760TIP3    H111286   1.387   4.516   3.025  0.3812 -0.7700 -0.7823
 3760TIP3    H211287   1.433   4.582   2.897  0.4176  1.0463  0.1321
 3761TIP3   OH211288   3.644   3.303   3.334 -0.3041 -0.3522 -0.3198
 3761TIP3    H111289   3.562   3.255   3.322 -0.1874 -0.7442  0.4308
 3761TIP3    H211290   3.618   3.386   3.374 -0.2644 -0.7931  0.6393
 3762TIP3   OH211291   0.336   3.426   0.040  0.6226 -0.0894  0.1018
 3762TIP3    H111292   0.401   3.408   0.108  1.2810 -0.5244 -0.6231
 3762TIP3    H211293   0.318   3.340   0.002  0.3061  0.1638 -0.3212
 3763TIP3   OH211294   4.249   1.461   1.856  0.2929  0.4114 -0.4366
 3763TIP3    H111295   4.250   1.460   1.951 -1.7048  0.0844 -0.3889
 3763TIP3    H211296   4.333   1.422   1.831  0.2354 -0.8571  1.1807
 3764TIP3   OH211297   1.692   0.114   1.864 -0.2640 -1.0130  0.1665
 3764TIP3    H111298   1.708   0.024   1.895 -0.6117 -0.7142  1.2534
 3764TIP3    H211299   1.754   0.126   1.793 -1.2396 -2.6391 -1.0205
 3765TIP3   OH211300   5.404   3.210   2.280  0.1333  0.2569  0.0985
 3765TIP3    H111301   5.430   3.118   2.281 -0.6181  0.0385  0.6055
 3765TIP3    H211302   5.442   3.247   2.359  0.9455  0.5434 -0.4113
 3766TIP3   OH211303   2.928   0.245   3.646 -0.0731  0.5643  0.3607
 3766TIP3    H111304   2.979   0.326   3.648 -0.2987  0.7005  1.9837
 3766TIP3    H211305   2.838   0.273   3.661 -0.1693  0.0261  0.8255
 3767TIP3   OH211306   0.300   5.924   0.733 -0.3456  0.0361 -0.2109
 3767TIP3    H111307   0.230   5.945   0.671 -1.2090 -1.1792  0.3110
 3767TIP3    H211308   0.259   5.867   0.797  1.5873 -2.4344 -1.0131
 3768TIP3   OH211309   0.489   3.366   4.816  0.0374 -0.0544 -0.1457
 3768TIP3    H111310   0.529   3.451   4.801  2.2182 -1.2915 -1.8667
 3768TIP3    H211311   0.449   3.342   4.732  0.1284 -1.0599  0.0775
 3769TIP3   OH211312   0.165   5.185   4.508 -0.7289 -0.4639  0.2280
 3769TIP3    H111313   0.096   5.118   4.517 -2.1618  1.0535  0.9807
 3769TIP3    H211314   0.123   5.266   4.534  0.9550  0.7797 -0.7634
 3770TIP3   OH211315   4.700   4.745   0.812  0.1035 -0.3713 -0.1835
 3770TIP3    H111316   4.699   4.776   0.903 -0.3379  1.0965 -0.6619
 3770TIP3    H211317   4.785   4.773   0.778 -1.1582  2.4877 -1.2834
 3771TIP3   OH211318   4.151   5.809   2.881  0.5845  0.4794 -0.0965
 3771TIP3    H111319   4.068   5.822   2.926  0.3590 -0.5082 -0.1848
 3771TIP3    H211320   4.202   5.888   2.899  1.0369 -0.3809  3.0448
 3772TIP3   OH211321   4.780   4.002   1.593  0.0226  0.0162 -0.0787
 3772TIP3    H111322   4.689   4.022   1.572 -0.0094  2.2248  1.7313
 3772TIP3    H211323   4.776   3.959   1.678  0.6619  0.6196  0.2717
 3773TIP3   OH211324   3.202   2.527   1.980 -0.1621  0.1581 -0.4166
 3773TIP3    H111325   3.142   2.578   2.035 -0.3691 -1.6658  1.1262
 3773TIP3    H211326   3.257   2.480   2.042  1.2890 -0.0633 -1.8164
 3774TIP3   OH211327   4.183   0.996   3.515  0.0373  0.6512 -0.0977
 3774TIP3    H111328   4.225   0.995   3.429 -0.7081  2.2344 -0.5259
 3774TIP3    H211329   4.112   0.933   3.509  0.2273  0.4791 -0.5168
 3775TIP3   OH211330   0.850   1.860   1.401  0.1926 -0.0133  0.1728
 3775TIP3    H111331   0.782   1.897   1.344 -0.7729 -1.4172  0.3696
 3775TIP3    H211332   0.885   1.936   1.448  0.1699  1.0077 -1.3763
 3776TIP3   OH211333   3.309   5.643   3.780 -0.2012  0.7972  0.3448
 3776TIP3    H111334   3.306   5.575   3.712  1.0990  1.0066  0.0524
 3776TIP3    H211335   3.246   5.709   3.751 -0.3404  0.4429 -0.1742
 3777TIP3   OH211336   2.508   4.892   2.844 -0.1605  0.4303 -0.0146
 3777TIP3    H111337   2.461   4.963   2.888 -0.5852  1.2690 -1.7435
 3777TIP3    H211338   2.440   4.830   2.820 -0.0560  0.4046 -0.2469
 3778TIP3   OH211339   2.928   0.891   3.928  0.0055  0.4868 -0.2502
 3778TIP3    H111340   2.986   0.924   3.996  0.4692  0.2103 -0.5120
 3778TIP3    H211341   2.920   0.964   3.866  1.5306 -0.0691 -1.1543
 3779TIP3   OH211342   5.868   1.497   2.082  0.3509 -0.4490 -0.2909
 3779TIP3    H111343   5.800   1.564   2.078 -0.0408 -0.9020 -1.8437
 3779TIP3    H211344   5.872   1.471   2.174 -1.8673 -0.7220 -0.2377
 3780TIP3   OH211345   4.697   0.878   3.123  0.1417  0.1563  0.1516
 3780TIP3    H111346   4.721   0.969   3.136  0.8680 -0.2338  1.8024
 3780TIP3    H211347   4.689   0.869   3.028  1.4684  1.5908 -0.1498
 3781TIP3   OH211348   2.965   4.663   3.937 -0.0574 -0.0459 -0.4499
 3781TIP3    H111349   3.030   4.617   3.883  0.0904 -0.4205  0.0403
 3781TIP3    H211350   2.972   4.754   3.911  1.4735  0.1136  0.4047
 3782TIP3   OH211351   5.977   0.681   2.356  0.4111  0.0792  0.3576
 3782TIP3    H111352   6.024   0.653   2.277 -0.4370  2.1589 -0.9734
 3782TIP3    H211353   6.024   0.759   2.385 -0.0853  0.0910  1.1586
 3783TIP3   OH211354   0.243   1.727   0.040  0.8809 -0.2872 -0.1863
 3783TIP3    H111355   0.221   1.758  -0.048 -0.1186 -0.9394 -0.1768
 3783TIP3    H211356   0.201   1.791   0.098 -0.8401 -1.3776 -0.1718
 3784TIP3   OH211357   0.636   0.043   2.902 -0.0830  0.6160  0.1242
 3784TIP3    H111358   0.589   0.105   2.847 -1.0659 -0.2556 -0.0465
 3784TIP3    H211359   0.576  -0.031   2.913  1.4242 -0.7908 -0.5464
 3785TIP3   OH211360   2.559   1.859   1.012  0.8558  0.3792  0.4593
 3785TIP3    H111361   2.464   1.871   1.005  0.5026 -1.1492  1.9849
 3785TIP3    H211362   2.594   1.948   1.006 -0.8148  1.1976  1.8384
 3786TIP3   OH211363   0.039   0.580   2.227  0.1436  0.5492  0.5329
 3786TIP3    H111364   0.066   0.494   2.197 -1.1315  0.1473  0.4761
 3786TIP3    H211365   0.098   0.600   2.299  0.0639 -0.6465  0.9498
 3787TIP3   OH211366   6.052   4.277   4.286  0.0706  0.4050 -0.1980
 3787TIP3    H111367   6.143   4.300   4.269  0.6640 -0.6529  1.3414
 3787TIP3    H211368   6.051   4.181   4.285 -1.2235  0.4009 -1.0763
 3788TIP3   OH211369   3.187   1.941   3.032 -0.3240  0.6213 -0.4662
 3788TIP3    H111370   3.146   1.954   3.117  1.6246  1.8014  0.3478
 3788TIP3    H211371   3.261   2.001   3.031  0.7076 -0.5813 -2.3320
 3789TIP3   OH211372   3.376   5.405   0.993 -0.0163  0.8261  0.5932
 3789TIP3    H111373   3.419   5.349   1.058 -0.9739  1.1886  1.5769
 3789TIP3    H211374   3.335   5.474   1.045  0.9734  2.3618 -0.5648
 3790TIP3   OH211375   1.256   5.396   2.254  0.0809  0.3499 -0.6972
 3790TIP3    H111376   1.314   5.420   2.182 -0.9782  2.3953 -0.9295
 3790TIP3    H211377   1.297   5.434   2.332  1.0826 -1.6297 -0.1671
 3791TIP3   OH211378   2.013   2.746   3.651 -0.0947  0.4648 -0.3389
 3791TIP3    H111379   1.978   2.819   3.701 -2.9379 -0.1784 -1.1887
 3791TIP3    H211380   1.999   2.770   3.560 -2.9167 -1.7948 -0.6407
 3792TIP3   OH211381   2.520   4.911   0.566  0.2911 -0.3410  0.6755
 3792TIP3    H111382   2.489   4.831   0.607  1.0070 -0.6615  0.6021
 3792TIP3    H211383   2.613   4.916   0.589  0.2752  0.4259  0.6181
 3793TIP3   OH211384   5.916   0.569   4.283 -0.0937  0.1162  0.2051
 3793TIP3    H111385   5.887   0.596   4.196 -0.0992  2.0641  0.7532
 3793TIP3    H211386   5.836   0.565   4.335  0.0285  0.0690  0.3895
 3794TIP3   OH211387   2.771   3.659   1.045  0.1851  0.5973 -0.1097
 3794TIP3    H111388   2.675   3.654   1.040  0.1173  0.1117  1.2732
 3794TIP3    H211389   2.791   3.752   1.035 -0.6156  1.0140  1.7825
 3795TIP3   OH211390   2.240   2.036   2.344  0.2359 -0.0469 -0.1300
 3795TIP3    H111391   2.183   1.960   2.351  1.7951 -1.1661  1.0071
 3795TIP3    H211392   2.190   2.107   2.384 -0.4793 -0.9147  0.5476
 3796TIP3   OH211393   6.273   3.545   4.286 -0.1053 -0.8924  0.0773
 3796TIP3    H111394   6.234   3.468   4.326  1.1833 -1.2389  0.7199
 3796TIP3    H211395   6.261   3.532   4.192  0.2075 -1.9535  0.1766
 3797TIP3   OH211396   2.038   0.582   0.447 -0.1112  0.0075 -0.4134
 3797TIP3    H111397   1.973   0.652   0.439 -1.3708 -1.2064 -1.2287
 3797TIP3    H211398   2.038   0.561   0.541 -1.1338 -0.1734 -0.4363
 3798TIP3   OH211399   5.869   3.991   2.599 -0.1183  0.8215 -0.1684
 3798TIP3    H111400   5.920   3.911   2.588 -1.1707  0.4189 -2.8791
 3798TIP3    H211401   5.802   3.968   2.664  1.4641  0.5704  1.4713
 3799TIP3   OH211402   2.063   3.781   4.620  0.1789 -0.7629 -0.0704
 3799TIP3    H111403   2.047   3.794   4.713  1.1179 -0.4390  0.0587
 3799TIP3    H211404   1.999   3.715   4.593 -0.9675  0.0941  0.5060
 3800TIP3   OH211405   5.133   1.106   2.522 -0.5165 -0.0964 -0.3170
 3800TIP3    H111406   5.125   1.098   2.617  0.0770  0.7688 -0.1859
 3800TIP3    H211407   5.133   1.016   2.490 -3.3029 -0.3895  0.2688
 3801TIP3   OH211408   2.657   4.306   3.094 -0.1373 -0.0580 -0.1551
 3801TIP3    H111409   2.598   4.263   3.033 -0.1628  1.9527 -1.6428
 3801TIP3    H211410   2.653   4.398   3.071  0.7208  0.6431  2.1928
 3802TIP3   OH211411   2.778   2.288   2.350  0.2231 -0.6366 -0.4765
 3802TIP3    H111412   2.779   2.237   2.430 -0.0766  0.1092  0.0125
 3802TIP3    H211413   2.686   2.298   2.328  0.3311 -2.2270 -1.8412
 3803TIP3   OH211414   4.423   1.810   0.940 -0.0299 -0.0908  0.1342
 3803TIP3    H111415   4.438   1.775   0.852 -2.3849  0.3459 -0.5175
 3803TIP3    H211416   4.414   1.732   0.996  1.0943 -0.3733 -0.0577
 3804TIP3   OH211417   1.231   5.241   0.027 -0.2394 -0.1160 -0.3526
 3804TIP3    H111418   1.201   5.150   0.025  0.9355 -0.5037 -1.2681
 3804TIP3    H211419   1.152   5.292   0.045 -1.0671 -1.2489 -0.6877
 3805TIP3   OH211420   0.781   2.044   3.580 -0.6944  0.1621 -0.2059
 3805TIP3    H111421   0.873   2.062   3.561 -0.2790 -1.4400  0.1315
 3805TIP3    H211422   0.747   2.125   3.616  0.9942  0.3190  1.1285
 3806TIP3   OH211423   0.955   3.506   0.255 -0.5766  0.0873  0.4597
 3806TIP3    H111424   0.935   3.422   0.215  0.7818 -0.5918  1.1536
 3806TIP3    H211425   0.999   3.484   0.337 -1.8148  1.4665  1.5473
 3807TIP3   OH211426   3.868   1.895   0.021  0.3339  0.0158  0.3241
 3807TIP3    H111427   3.808   1.967   0.041  0.5363  0.3286 -0.1731
 3807TIP3    H211428   3.812   1.817   0.021 -0.0381  0.2738  0.1017
 3808TIP3   OH211429   2.900   3.907   4.263 -0.2943  0.2454 -0.2852
 3808TIP3    H111430   2.936   3.987   4.299  2.1726 -0.7806 -0.2719
 3808TIP3    H211431   2.941   3.898   4.178 -0.3119 -1.1154 -0.1747
 3809TIP3   OH211432   5.858   0.660   4.959  0.5449 -0.2275  0.5101
 3809TIP3    H111433   5.944   0.701   4.949  0.9804 -0.7225  1.9100
 3809TIP3    H211434   5.877   0.576   5.002 -0.5760 -0.7008  0.1221
 3810TIP3   OH211435   1.019   2.738   3.104 -0.3690 -0.3828  0.2840
 3810TIP3    H111436   1.090   2.783   3.151 -1.8399  0.4511  1.8338
 3810TIP3    H211437   0.969   2.809   3.064 -0.5385 -0.9479 -0.5316
 3811TIP3   OH211438   3.710   3.285   0.782  0.4431 -0.8520 -0.0611
 3811TIP3    H111439   3.750   3.368   0.808  0.3108 -1.2465  1.5599
 3811TIP3    H211440   3.619   3.293   0.811 -0.2016 -0.7081 -1.9669
 3812TIP3   OH211441   5.870   1.678   1.667 -0.2764 -0.3309 -0.0668
 3812TIP3    H111442   5.925   1.607   1.636 -0.8227 -0.2935 -1.1631
 3812TIP3    H211443   5.783   1.639   1.677 -0.5182  0.1073 -0.4200
 3813TIP3   OH211444   0.944   2.219   0.375 -0.2336 -0.8803 -0.3919
 3813TIP3    H111445   0.869   2.166   0.347 -1.5027 -0.2791  1.6152
 3813TIP3    H211446   0.962   2.190   0.464 -1.0709  2.0471  0.8602
 3814TIP3   OH211447   2.138   0.778   5.097 -0.2887 -0.2577  0.0601
 3814TIP3    H111448   2.184   0.808   5.018  0.8190 -0.6197  0.5558
 3814TIP3    H211449   2.194   0.806   5.169 -2.5846  2.5725  0.9724
 3815TIP3   OH211450   2.685   3.339   2.614  0.0060 -0.3853  0.0880
 3815TIP3    H111451   2.741   3.312   2.541 -0.3623  0.1432 -0.4031
 3815TIP3    H211452   2.717   3.427   2.638  0.3751 -0.7107  0.8281
 3816TIP3   OH211453   5.102   4.101   0.473  0.2093  0.3731  0.1969
 3816TIP3    H111454   5.015   4.129   0.501 -0.2535  0.1391 -0.9553
 3816TIP3    H211455   5.096   4.005   0.471  0.7711  0.3130  0.9461
 3817TIP3   OH211456   2.726   4.678   0.300 -0.5239 -0.1338  0.1637
 3817TIP3    H111457   2.635   4.657   0.321 -0.5432  0.9946  1.3460
 3817TIP3    H211458   2.774   4.660   0.381  0.3631 -0.9451 -0.5164
 3818TIP3   OH211459   1.378   0.556   4.210  0.5994 -0.3082 -0.1405
 3818TIP3    H111460   1.340   0.572   4.296  0.1292 -0.1969 -0.3695
 3818TIP3    H211461   1.467   0.591   4.216  0.9912 -1.3745  0.6859
 3819TIP3   OH211462   2.480   5.144   4.930 -0.2666  0.1156 -0.4792
 3819TIP3    H111463   2.558   5.172   4.882  0.7246 -1.4233  0.1577
 3819TIP3    H211464   2.424   5.103   4.864 -0.1941  0.5416 -0.8067
 3820TIP3   OH211465   2.959   4.015   0.853  0.2768  0.2630 -0.0466
 3820TIP3    H111466   2.912   4.090   0.816  1.2577  0.5301 -0.7924
 3820TIP3    H211467   3.001   3.974   0.778  3.3188  1.5216  0.8453
 3821TIP3   OH211468   3.688   2.775   2.230  0.1124 -0.3703  0.3912
 3821TIP3    H111469   3.729   2.701   2.275  0.8907 -0.1171  0.1152
 3821TIP3    H211470   3.724   2.852   2.273 -0.7241 -0.1516  0.7008
 3822TIP3   OH211471   6.144   2.803   4.451  0.2714 -0.9754 -0.1553
 3822TIP3    H111472   6.200   2.815   4.528  1.0982  0.3642 -0.9160
 3822TIP3    H211473   6.066   2.759   4.485  1.4440 -2.1939  1.0775
 3823TIP3   OH211474   4.644   1.072   4.831  0.3342 -0.5473  0.0049
 3823TIP3    H111475   4.650   1.043   4.922 -0.8409 -1.9557 -0.3303
 3823TIP3    H211476   4.599   1.156   4.835  0.5697 -0.4469  0.7334
 3824TIP3   OH211477   4.332   2.748   3.094 -0.2708  0.4760 -0.3001
 3824TIP3    H111478   4.323   2.665   3.142 -4.0650  1.4976  1.1198
 3824TIP3    H211479   4.405   2.792   3.138 -0.6863 -0.5385  1.5589
 3825TIP3   OH211480   4.633   5.018   3.442 -0.5260  0.4308  0.3840
 3825TIP3    H111481   4.581   5.089   3.403 -0.7199  0.6062  0.9585
 3825TIP3    H211482   4.724   5.043   3.425 -0.6118  0.3435 -0.2364
 3826TIP3   OH211483   3.914   3.446   1.805  0.2678  0.1414 -0.4213
 3826TIP3    H111484   3.925   3.399   1.723  1.7863 -2.7545  1.2596
 3826TIP3    H211485   3.836   3.407   1.844  0.6017  0.1798  0.3019
 3827TIP3   OH211486   6.277   0.581   2.536  0.3411  0.2481 -0.1927
 3827TIP3    H111487   6.352   0.604   2.591  0.6371 -1.9829  0.4335
 3827TIP3    H211488   6.218   0.656   2.543  2.1235  1.7180 -0.0540
 3828TIP3   OH211489   1.462   4.137   4.148 -0.1253 -0.1777 -0.1031
 3828TIP3    H111490   1.521   4.098   4.083  0.9569 -2.2228  1.9552
 3828TIP3    H211491   1.418   4.063   4.189 -0.9267  1.0380  1.3538
 3829TIP3   OH211492   0.298   0.300   0.917 -0.2179 -0.0281  0.5059
 3829TIP3    H111493   0.235   0.241   0.958  0.0340 -1.5470 -1.1913
 3829TIP3    H211494   0.269   0.388   0.944 -2.5088 -0.7202  0.5530
 3830TIP3   OH211495   2.987   3.305   3.682  0.3195 -0.4584 -0.1402
 3830TIP3    H111496   3.077   3.276   3.664 -0.5830 -2.4266 -1.9470
 3830TIP3    H211497   2.937   3.276   3.606 -1.8076  0.9090  0.6499
 3831TIP3   OH211498   4.614   1.561   0.290  0.3546  0.5838  0.2179
 3831TIP3    H111499   4.615   1.504   0.213 -0.4650  0.6724  0.1294
 3831TIP3    H211500   4.521   1.582   0.302  0.5564  1.1459  0.8058
 3832TIP3   OH211501   5.181   5.371   4.595  0.3346 -0.3465 -0.0952
 3832TIP3    H111502   5.156   5.360   4.503 -0.3918 -1.8263  0.2453
 3832TIP3    H211503   5.207   5.283   4.623  2.1020  0.3871  0.6925
 3833TIP3   OH211504   4.147   2.407   5.164  0.5015  0.1387 -0.3580
 3833TIP3    H111505   4.119   2.320   5.136  0.0472 -0.1090  0.8326
 3833TIP3    H211506   4.071   2.444   5.209  0.1557  1.7591 -2.1228
 3834TIP3   OH211507   3.544   0.144   4.709  0.7206  0.3729 -0.7553
 3834TIP3    H111508   3.472   0.182   4.658 -2.3508 -2.4111  1.0625
 3834TIP3    H211509   3.588   0.085   4.647  0.3502  0.8275 -1.4744
 3835TIP3   OH211510   2.981   1.300   0.583  0.1754  0.3337 -0.0155
 3835TIP3    H111511   3.032   1.236   0.533 -0.0093  0.7006 -0.6838
 3835TIP3    H211512   2.919   1.335   0.520 -0.1493  0.7120  0.5123
 3836TIP3   OH211513   1.482   0.331   4.944 -0.1123  0.5000 -0.0679
 3836TIP3    H111514   1.533   0.253   4.927  0.5746  1.4510 -2.9976
 3836TIP3    H211515   1.396   0.313   4.906 -0.3411  0.7220  0.3339
 3837TIP3   OH211516   2.105   0.429   0.910 -0.3189  0.0862  0.4998
 3837TIP3    H111517   2.160   0.457   0.984  1.0695 -0.8727 -0.1179
 3837TIP3    H211518   2.099   0.334   0.919  0.0513 -0.0700 -0.7107
 3838TIP3   OH211519   3.208   0.484   4.068 -0.5701  0.0526 -0.4086
 3838TIP3    H111520   3.275   0.552   4.060  0.0930 -0.5085  0.1909
 3838TIP3    H211521   3.171   0.498   4.155  0.5726 -1.2181  0.3183
 3839TIP3   OH211522   5.098   4.165   0.182  0.1842 -0.2623  0.2578
 3839TIP3    H111523   5.135   4.117   0.107 -0.3220  0.7950 -0.7051
 3839TIP3    H211524   5.162   4.154   0.252  2.4515  1.5760 -1.3636
 3840TIP3   OH211525   2.144   3.935   2.226 -0.3008 -0.1056  0.2970
 3840TIP3    H111526   2.109   4.024   2.217 -3.2101 -0.9557  1.9592
 3840TIP3    H211527   2.097   3.884   2.160  1.2505 -0.4874 -0.5548
 3841TIP3   OH211528   0.371   2.224   3.329  0.1245 -0.1015  0.2940
 3841TIP3    H111529   0.406   2.313   3.328 -0.1392  0.0141  1.0410
 3841TIP3    H211530   0.288   2.231   3.282  0.3496 -0.0607 -0.1027
 3842TIP3   OH211531   4.501   5.700   4.222  0.1765 -0.0737 -0.5116
 3842TIP3    H111532   4.459   5.718   4.306  0.0895 -1.3595 -0.2569
 3842TIP3    H211533   4.585   5.746   4.227 -1.3726  3.0591 -1.2776
 3843TIP3   OH211534   4.489   3.586   4.051 -0.2530  0.3630 -0.8314
 3843TIP3    H111535   4.416   3.627   4.098 -0.3781 -0.2723 -0.4587
 3843TIP3    H211536   4.474   3.492   4.061  1.1409  0.2102  0.0799
 3844TIP3   OH211537   2.342   0.579   2.991  0.7673  0.1979  0.3112
 3844TIP3    H111538   2.360   0.660   2.944  0.7596  1.1345  1.8635
 3844TIP3    H211539   2.247   0.578   3.002  0.6840 -0.4469 -0.4250
 3845TIP3   OH211540   4.449   4.439   3.199  0.5019  0.5101  0.0135
 3845TIP3    H111541   4.488   4.410   3.281 -0.3837  0.4493  0.4278
 3845TIP3    H211542   4.355   4.447   3.218  0.0763 -0.8196 -1.3547
 3846TIP3   OH211543   4.545   5.572   2.038 -0.1363  0.0248 -0.2196
 3846TIP3    H111544   4.556   5.531   1.952 -1.3444 -0.8160 -0.0037
 3846TIP3    H211545   4.481   5.641   2.023  0.4859  0.6091 -0.2081
 3847TIP3   OH211546   1.122   1.917   4.290 -0.5330 -0.3498 -0.4083
 3847TIP3    H111547   1.093   1.830   4.262 -1.2399  0.6301 -3.0647
 3847TIP3    H211548   1.150   1.960   4.209  1.0498  1.4740  1.0173
 3848TIP3   OH211549   3.570   5.476   1.219 -0.2295  1.3009 -0.2399
 3848TIP3    H111550   3.486   5.497   1.260  0.0917  1.7802  0.1877
 3848TIP3    H211551   3.616   5.424   1.285 -0.9782 -0.7636 -1.2459
 3849TIP3   OH211552   1.780   0.866   2.827  0.3380  0.5106 -0.0861
 3849TIP3    H111553   1.750   0.953   2.801 -0.1284  0.2858 -0.3122
 3849TIP3    H211554   1.703   0.809   2.816  0.9331 -0.1531 -1.0806
 3850TIP3   OH211555   4.276   4.940   2.441 -0.5512  0.1875  0.2233
 3850TIP3    H111556   4.287   4.997   2.365 -0.2245 -1.1845 -0.8053
 3850TIP3    H211557   4.318   4.987   2.513 -2.3046  2.2918 -0.0121
 3851TIP3   OH211558   3.879   4.315   4.218  0.1849  0.1298 -0.1652
 3851TIP3    H111559   3.813   4.379   4.193  0.8236  0.5737 -0.7707
 3851TIP3    H211560   3.948   4.366   4.260  1.8590  0.2857 -2.8330
 3852TIP3   OH211561   2.480   1.540   1.645  0.2281 -0.5896  0.0418
 3852TIP3    H111562   2.497   1.519   1.553  2.0007  0.5162  0.0756
 3852TIP3    H211563   2.496   1.458   1.692 -2.2562 -1.6113 -0.7347
 3853TIP3   OH211564   0.033   2.028   3.015  0.0637 -0.1470 -0.2024
 3853TIP3    H111565  -0.022   1.981   2.953 -2.0706  0.3182  1.2360
 3853TIP3    H211566   0.062   1.961   3.078 -1.1743  0.0241  0.5925
 3854TIP3   OH211567   1.746   4.873   2.208  0.3968  0.1886  0.4282
 3854TIP3    H111568   1.754   4.874   2.113 -0.5804  0.5800  0.3367
 3854TIP3    H211569   1.802   4.945   2.238  2.3192 -1.1769  0.3256
 3855TIP3   OH211570   4.726   3.310   1.129 -0.0635 -0.2789  0.2872
 3855TIP3    H111571   4.717   3.219   1.158 -0.1187 -0.7356 -1.0714
 3855TIP3    H211572   4.718   3.305   1.034 -0.8382  1.2620  0.2463
 3856TIP3   OH211573   0.290   2.789   3.654 -0.2826  0.1560 -0.1960
 3856TIP3    H111574   0.196   2.799   3.672 -0.3471  0.6581 -0.7773
 3856TIP3    H211575   0.312   2.864   3.599 -0.0219 -1.0686 -1.8559
 3857TIP3   OH211576   1.450   2.853   2.338  0.1038  0.6384  0.1514
 3857TIP3    H111577   1.419   2.802   2.412 -1.4081  1.5659  0.1958
 3857TIP3    H211578   1.498   2.926   2.377  3.0020 -1.0538  0.0782
 3858TIP3   OH211579   6.138   2.308   4.619  0.4800 -0.3811 -0.2789
 3858TIP3    H111580   6.191   2.377   4.580  2.9269 -2.2146 -0.4192
 3858TIP3    H211581   6.104   2.346   4.700 -0.4223  1.7738 -1.5853
 3859TIP3   OH211582   2.373   3.749   4.638  0.0271  0.3355  0.4066
 3859TIP3    H111583   2.417   3.688   4.579 -1.5761 -0.6483  0.1872
 3859TIP3    H211584   2.281   3.724   4.635 -0.4276  1.7317  1.5802
 3860TIP3   OH211585   6.039   1.312   0.523 -0.0063 -0.1655  0.1000
 3860TIP3    H111586   5.960   1.282   0.569  0.4456  0.7692  1.5485
 3860TIP3    H211587   6.012   1.319   0.431 -1.3890 -0.5788  0.4531
 3861TIP3   OH211588   3.567   5.101   4.557  0.1857  0.3597 -0.6329
 3861TIP3    H111589   3.475   5.127   4.547 -0.1141  1.7802  3.7778
 3861TIP3    H211590   3.615   5.161   4.499 -1.5415  0.1394 -2.4023
 3862TIP3   OH211591   1.691   5.782   5.117  0.3354  0.0257  0.1349
 3862TIP3    H111592   1.655   5.750   5.034 -0.2307  0.0483  0.3666
 3862TIP3    H211593   1.618   5.827   5.159  1.1090  1.6470 -0.1876
 3863TIP3   OH211594   6.131   2.862   3.583 -0.2704  0.0494 -0.4847
 3863TIP3    H111595   6.096   2.886   3.497  2.1162  0.0032 -1.5401
 3863TIP3    H211596   6.133   2.766   3.582  2.2291  0.0208 -1.5629
 3864TIP3   OH211597   2.094   0.514   3.355  0.0849 -0.6399 -0.4791
 3864TIP3    H111598   2.013   0.467   3.336 -1.9744  1.7350  1.7054
 3864TIP3    H211599   2.089   0.593   3.302  0.5787 -0.1111  0.2460
 3865TIP3   OH211600   0.313   0.609   0.498  0.0932 -0.1736 -0.0928
 3865TIP3    H111601   0.282   0.519   0.498 -0.2243 -0.0667 -0.0345
 3865TIP3    H211602   0.251   0.656   0.555  0.0457  0.1517 -0.4066
 3866TIP3   OH211603  -0.015   0.250   4.671 -0.7305 -0.0966  0.1187
 3866TIP3    H111604   0.002   0.319   4.607 -0.8525 -0.3719 -0.2144
 3866TIP3    H211605   0.059   0.254   4.731  0.5776 -1.2907 -1.3244
 3867TIP3   OH211606   4.966   4.399   0.142 -0.4408 -0.3822  1.0549
 3867TIP3    H111607   4.894   4.396   0.206 -0.9326  0.1442  0.5377
 3867TIP3    H211608   5.008   4.313   0.150 -2.2023 -1.3837  0.1661
 3868TIP3   OH211609   5.859   3.953   2.320 -0.2156  0.6506 -0.1114
 3868TIP3    H111610   5.862   3.992   2.407  1.0305  1.7818 -0.6179
 3868TIP3    H211611   5.944   3.974   2.281 -1.3079  1.5750 -2.1752
 3869TIP3   OH211612   0.168   5.221   3.018 -0.5747  0.1125 -0.2725
 3869TIP3    H111613   0.233   5.229   2.948 -2.4260 -1.3158 -2.2816
 3869TIP3    H211614   0.174   5.130   3.045 -2.8913 -0.5395 -1.7568
 3870TIP3   OH211615   4.635   3.253   3.257  0.0673  0.4454 -0.4496
 3870TIP3    H111616   4.602   3.342   3.248 -0.6890  0.2320  0.1229
 3870TIP3    H211617   4.573   3.210   3.316  1.5252  0.1156  0.8970
 3871TIP3   OH211618   3.216   1.516   1.343 -0.0621 -0.1999  0.2445
 3871TIP3    H111619   3.139   1.481   1.388 -0.2780 -0.2746 -0.1767
 3871TIP3    H211620   3.287   1.457   1.369 -0.3906 -0.8696 -0.3292
 3872TIP3   OH211621   1.972   2.370   3.509  0.2262 -0.0525  0.2969
 3872TIP3    H111622   1.997   2.425   3.582  0.3511  0.5770 -0.2123
 3872TIP3    H211623   1.883   2.397   3.487  0.7570  0.9206 -0.8120
 3873TIP3   OH211624   5.880   2.476   3.560  0.1401  0.1304 -0.4454
 3873TIP3    H111625   5.870   2.466   3.465 -1.5821  0.0507 -0.2907
 3873TIP3    H211626   5.845   2.394   3.596  0.3105  0.3744  0.2839
 3874TIP3   OH211627   5.766   0.787   3.052  0.5822 -0.3208 -0.5173
 3874TIP3    H111628   5.687   0.772   3.001  0.6103 -2.0170 -0.1034
 3874TIP3    H211629   5.734   0.802   3.141  0.7044 -0.9635 -0.3581
 3875TIP3   OH211630   4.181   4.447   3.336 -0.1457 -0.1623 -0.0937
 3875TIP3    H111631   4.194   4.366   3.386 -2.3084  0.4272  1.6165
 3875TIP3    H211632   4.146   4.418   3.252 -0.9701 -1.0190  0.5233
 3876TIP3   OH211633   4.798   1.700   5.062 -0.1376 -0.0811  0.0012
 3876TIP3    H111634   4.819   1.642   4.989 -1.3606  1.2166 -1.4702
 3876TIP3    H211635   4.716   1.665   5.098 -1.0577  0.8515 -1.1017
 3877TIP3   OH211636   6.190   5.315   1.022 -0.6274 -0.0381  0.5433
 3877TIP3    H111637   6.142   5.353   0.948  2.1388  0.5541 -1.0922
 3877TIP3    H211638   6.195   5.222   1.003 -1.3378 -0.1545  0.8848
 3878TIP3   OH211639   0.140   5.449   3.806 -0.7770  0.1199  0.1228
 3878TIP3    H111640   0.109   5.359   3.808  1.5882 -0.7687  0.7443
 3878TIP3    H211641   0.152   5.469   3.713 -4.4542  1.0886 -0.2975
 3879TIP3   OH211642   3.940   5.562   3.439  0.0634  0.2829  0.1324
 3879TIP3    H111643   3.986   5.621   3.380  1.0569 -0.7731 -0.1644
 3879TIP3    H211644   3.888   5.620   3.495  1.7947  1.5259  0.5319
 3880TIP3   OH211645   5.640   1.022   4.794 -0.5385 -0.4829 -0.6799
 3880TIP3    H111646   5.595   1.009   4.710 -2.0773  0.6194 -0.0815
 3880TIP3    H211647   5.603   0.955   4.852 -0.1205 -0.6791 -0.6337
 3881TIP3   OH211648   5.898   4.011   4.734 -0.2670  0.0525 -0.4293
 3881TIP3    H111649   5.909   4.088   4.679  1.0363  0.6145  0.5408
 3881TIP3    H211650   5.980   3.962   4.724  0.7352  1.0019  2.1445
 3882TIP3   OH211651   4.151   4.534   2.067 -0.1186 -0.2518 -0.0029
 3882TIP3    H111652   4.108   4.596   2.007 -0.6418  0.0756  0.6981
 3882TIP3    H211653   4.186   4.589   2.137 -0.0966 -0.7035  0.3420
 3883TIP3   OH211654   4.074   2.350   4.638  0.7457 -0.0650  0.1288
 3883TIP3    H111655   4.143   2.285   4.630  0.3570 -0.5618  0.7160
 3883TIP3    H211656   4.118   2.434   4.625  1.2279 -0.4374 -0.7882
 3884TIP3   OH211657  -0.001   0.899   4.800 -0.3479  0.8584  0.2679
 3884TIP3    H111658   0.024   0.967   4.737 -2.6181  1.3043 -0.2184
 3884TIP3    H211659   0.026   0.817   4.759  2.4514  1.3784  0.8755
 3885TIP3   OH211660   5.409   4.770   0.455 -0.2745  0.0410 -0.0503
 3885TIP3    H111661   5.478   4.736   0.399 -0.9541 -1.7197  0.1174
 3885TIP3    H211662   5.428   4.734   0.541 -0.0685  1.5260  0.5516
 3886TIP3   OH211663   2.963   2.582   4.664  0.1531 -0.3090 -0.3937
 3886TIP3    H111664   3.029   2.579   4.734 -0.7874 -0.4380  0.5174
 3886TIP3    H211665   3.012   2.603   4.585  1.0558  1.4646  0.5871
 3887TIP3   OH211666   5.284   2.316   4.879  0.2865  0.3401 -0.3773
 3887TIP3    H111667   5.274   2.227   4.846 -0.0582 -0.9947  2.9328
 3887TIP3    H211668   5.379   2.329   4.887  0.3319  0.1957 -0.6984
 3888TIP3   OH211669   3.603   2.511   0.425 -0.4701 -0.2922 -0.4001
 3888TIP3    H111670   3.589   2.466   0.508 -0.1088  1.2740  0.5432
 3888TIP3    H211671   3.518   2.548   0.402 -0.6335 -0.9397 -0.8946
 3889TIP3   OH211672   0.064   0.273   4.178 -0.1507 -0.4558 -0.2229
 3889TIP3    H111673   0.051   0.362   4.210  0.2421 -0.1103 -0.9976
 3889TIP3    H211674   0.153   0.250   4.207 -0.3869 -0.7385  0.2912
 3890TIP3   OH211675   4.073   5.750   4.904 -0.1896  0.6301  0.2426
 3890TIP3    H111676   4.136   5.683   4.876 -0.7501 -1.2635  3.0671
 3890TIP3    H211677   3.988   5.713   4.881 -0.4437  0.8551  0.7932
 3891TIP3   OH211678   3.482   3.210   4.983  0.1521 -0.1012  0.2058
 3891TIP3    H111679   3.561   3.175   5.023  0.4211 -0.2657 -0.4630
 3891TIP3    H211680   3.454   3.280   5.042  0.1503 -0.7925  1.0447
 3892TIP3   OH211681   5.037   4.962   4.741  0.5739 -0.4388 -0.3061
 3892TIP3    H111682   5.055   4.978   4.833  1.1590  1.0555 -0.6536
 3892TIP3    H211683   5.078   4.877   4.723 -2.5951 -2.5892  1.6175
 3893TIP3   OH211684   1.531   1.328   4.341 -0.5208 -0.0662 -0.0471
 3893TIP3    H111685   1.590   1.381   4.286  0.0740  0.0218  0.6597
 3893TIP3    H211686   1.555   1.351   4.431 -1.7130  0.0478  0.2588
 3894TIP3   OH211687   3.933   4.859   2.658  0.1318 -0.3133 -0.7057
 3894TIP3    H111688   3.843   4.891   2.656 -0.0251 -0.2147  2.6022
 3894TIP3    H211689   3.932   4.780   2.605 -2.0840 -0.6613 -0.2126
 3895TIP3   OH211690   2.039   5.546   1.293 -0.2197 -0.1902 -0.1061
 3895TIP3    H111691   1.978   5.474   1.307  0.6593 -1.0908 -0.7897
 3895TIP3    H211692   1.987   5.625   1.311 -1.6944 -0.8989 -1.0161
 3896TIP3   OH211693   0.995   0.635   2.089  0.2285  0.3559 -0.0089
 3896TIP3    H111694   0.990   0.686   2.169  0.7088 -1.2394  1.0952
 3896TIP3    H211695   1.054   0.684   2.032 -1.2290  2.2339  0.0151
 3897TIP3   OH211696   5.066   2.518   1.623  0.1220 -0.5467 -0.7228
 3897TIP3    H111697   5.091   2.535   1.714 -0.8063 -1.6344 -0.2474
 3897TIP3    H211698   5.149   2.501   1.578  0.4875 -1.3091  0.2052
 3898TIP3   OH211699   2.787   3.072   2.306  0.2951 -0.1997  0.1898
 3898TIP3    H111700   2.711   3.017   2.318 -0.2624  0.5181  0.0489
 3898TIP3    H211701   2.839   3.027   2.240  0.0634 -0.7621  0.3857
 3899TIP3   OH211702   5.073   4.949   2.114  0.2647  0.2871 -0.1685
 3899TIP3    H111703   4.991   4.940   2.163 -0.4469  0.4018 -1.3120
 3899TIP3    H211704   5.076   5.042   2.090 -0.4229 -0.1263 -2.0383
 3900TIP3   OH211705   2.175   1.502   4.603 -0.5049 -0.0902  0.3383
 3900TIP3    H111706   2.217   1.536   4.525 -4.0681 -1.1869 -2.2931
 3900TIP3    H211707   2.172   1.576   4.664  1.7700  0.9696 -0.7260
 3901TIP3   OH211708   4.435   5.902   2.928  0.1023  0.2519  0.2097
 3901TIP3    H111709   4.368   5.970   2.935  1.8370  1.9806  0.6883
 3901TIP3    H211710   4.448   5.872   3.018  2.6659  2.7310  0.7927
 3902TIP3   OH211711   5.435   2.785   0.727 -0.3880  0.3144  0.5752
 3902TIP3    H111712   5.439   2.690   0.714  0.9800  0.4236  0.0770
 3902TIP3    H211713   5.349   2.800   0.767 -0.2468 -1.2380  1.5529
 3903TIP3   OH211714   1.837   2.785   4.383 -0.0263 -0.3525  0.1161
 3903TIP3    H111715   1.744   2.764   4.380 -0.2731  0.6937  0.0135
 3903TIP3    H211716   1.848   2.832   4.465  0.2712  0.1348 -0.1975
 3904TIP3   OH211717   2.055   2.602   3.866 -0.1531 -0.3861  0.3190
 3904TIP3    H111718   2.079   2.520   3.822  0.9071  0.1187 -0.1007
 3904TIP3    H211719   2.033   2.662   3.794  0.9401  0.2466  0.4865
 3905TIP3   OH211720   3.243   5.667   3.135  0.1592  0.6152 -0.3742
 3905TIP3    H111721   3.298   5.697   3.207  0.4869  0.1942 -0.4428
 3905TIP3    H211722   3.305   5.647   3.064 -0.0851  0.2303 -0.4850
 3906TIP3   OH211723   1.715   3.393   2.762  0.5674  0.0551 -0.3321
 3906TIP3    H111724   1.623   3.374   2.744  0.5563  0.1282 -0.3530
 3906TIP3    H211725   1.720   3.401   2.857  0.6114 -0.2570 -0.3053
 3907TIP3   OH211726   6.107   2.522   5.127  0.1644 -0.4381 -0.2169
 3907TIP3    H111727   6.093   2.437   5.168 -0.7383  0.0356  0.4925
 3907TIP3    H211728   6.195   2.548   5.154  0.1332 -0.7868  0.2189
 3908TIP3   OH211729   5.474   4.318   5.032 -0.0008 -0.6194 -0.2183
 3908TIP3    H111730   5.567   4.299   5.021  0.1400 -0.9748  1.3462
 3908TIP3    H211731   5.467   4.413   5.024  0.8925 -0.3148  1.8580
 3909TIP3   OH211732   1.041   2.809   4.937  0.2076  0.2044  0.6285
 3909TIP3    H111733   0.956   2.766   4.948  0.1704  0.0471 -0.2267
 3909TIP3    H211734   1.022   2.903   4.945 -0.4207  0.3092 -1.6728
 3910TIP3   OH211735   6.148   2.236   2.312  0.2877  0.1321 -0.7998
 3910TIP3    H111736   6.118   2.185   2.236 -2.3068 -0.4239  0.4533
 3910TIP3    H211737   6.237   2.205   2.329 -0.8494 -3.5444 -0.6133
 3911TIP3   OH211738   0.488   3.047   4.442  0.5115 -0.1536  0.2254
 3911TIP3    H111739   0.529   3.118   4.393 -0.2845 -0.1706 -0.5028
 3911TIP3    H211740   0.560   2.991   4.469  0.9312 -0.7558 -1.9157
 3912TIP3   OH211741   5.954   3.029   5.157 -0.4348  0.0576  0.1710
 3912TIP3    H111742   5.880   2.993   5.107 -0.3521 -1.1213  0.8729
 3912TIP3    H211743   6.008   3.073   5.091 -1.2020  0.0015 -0.5154
 3913TIP3   OH211744   4.879   3.987   4.819  0.4428 -0.2835 -0.3438
 3913TIP3    H111745   4.926   3.905   4.835  0.0545 -0.3694  0.3782
 3913TIP3    H211746   4.887   4.035   4.901 -2.4045 -1.1367  0.5443
 3914TIP3   OH211747   4.757   2.367   1.421 -0.0737  0.0946 -0.3902
 3914TIP3    H111748   4.704   2.327   1.353  0.5305 -0.8154 -0.3376
 3914TIP3    H211749   4.801   2.441   1.378 -2.2358  1.6148 -0.1613
 3915TIP3   OH211750   5.644   4.761   1.391  0.3681  0.3605  0.5383
 3915TIP3    H111751   5.639   4.680   1.442 -0.5085  0.9785  1.4889
 3915TIP3    H211752   5.736   4.788   1.397  1.1405 -1.5596 -1.4581
 3916TIP3   OH211753   3.989   5.493   4.231  0.4289  0.1193  0.0565
 3916TIP3    H111754   4.070   5.493   4.283  0.1169  0.9929  0.5533
 3916TIP3    H211755   3.967   5.585   4.221 -0.4057 -0.1061 -0.2458
 3917TIP3   OH211756   1.868   0.348   0.734  0.5825 -0.6066  0.6684
 3917TIP3    H111757   1.944   0.405   0.724 -0.3458  0.6137  0.3642
 3917TIP3    H211758   1.875   0.285   0.663  1.1954 -0.3701  0.5158
 3918TIP3   OH211759   1.624   0.381   3.903 -0.1542 -0.1194  0.4854
 3918TIP3    H111760   1.632   0.473   3.878 -0.6646 -0.5720 -1.5402
 3918TIP3    H211761   1.553   0.348   3.848 -1.0806 -1.3681  2.3232
 3919TIP3   OH211762   0.098   2.255   0.092  1.0951 -0.5446 -0.6327
 3919TIP3    H111763   0.156   2.208   0.031 -0.9553 -2.1165 -1.4704
 3919TIP3    H211764   0.010   2.236   0.060  0.0904  2.0479  0.4052
 3920TIP3   OH211765   3.734   5.710   2.870  0.0552 -0.5752 -0.1982
 3920TIP3    H111766   3.655   5.758   2.846 -0.1801 -0.4378  0.7860
 3920TIP3    H211767   3.719   5.621   2.840  0.2419 -0.1879 -1.5089
 3921TIP3   OH211768   2.784   4.566   2.030 -0.1979 -0.2423  0.3080
 3921TIP3    H111769   2.812   4.475   2.036 -2.4600 -1.2446 -2.4822
 3921TIP3    H211770   2.716   4.575   2.097 -1.1486 -1.1395 -0.5161
 3922TIP3   OH211771   5.325   2.169   4.052 -0.6374 -0.1499  0.1162
 3922TIP3    H111772   5.311   2.078   4.025 -0.1912 -0.5485  1.1845
 3922TIP3    H211773   5.294   2.220   3.978 -2.0260 -1.1422 -0.0322
 3923TIP3   OH211774   5.223   2.742   4.361  0.5128 -0.8081  0.4949
 3923TIP3    H111775   5.247   2.826   4.400  2.6543 -0.8961 -0.4784
 3923TIP3    H211776   5.162   2.764   4.291  0.3810 -0.1735  0.8066
 3924TIP3   OH211777   1.026   4.067   2.640  0.2099  0.3964  0.2667
 3924TIP3    H111778   1.091   4.092   2.707  1.0102 -1.1880  0.1322
 3924TIP3    H211779   1.053   4.116   2.562 -0.2640  1.6546  0.8602
 3925TIP3   OH211780   0.320   0.453   2.776 -0.0614 -0.3036 -0.2225
 3925TIP3    H111781   0.264   0.515   2.824 -0.5068 -0.2282 -0.8247
 3925TIP3    H211782   0.258   0.399   2.727  0.4149  0.2332 -1.4477
 3926TIP3   OH211783   4.631   4.238   4.607 -0.2001  0.1040 -0.2987
 3926TIP3    H111784   4.570   4.309   4.626 -0.7744 -0.1480 -1.1177
 3926TIP3    H211785   4.579   4.158   4.620  0.3568 -0.1641  0.3344
 3927TIP3   OH211786   0.189   2.444   3.652  0.1431 -0.7254 -0.3117
 3927TIP3    H111787   0.114   2.437   3.712 -1.4619  1.8590 -1.8131
 3927TIP3    H211788   0.192   2.360   3.607 -2.1989 -0.7666 -0.5203
 3928TIP3   OH211789   3.936   4.923   3.274  0.0395 -0.5535 -0.2535
 3928TIP3    H111790   3.849   4.911   3.235 -0.9335 -0.5797  1.8135
 3928TIP3    H211791   3.979   4.838   3.263 -1.1666 -1.3551  0.9130
 3929TIP3   OH211792   2.912   0.093   0.035 -0.7754 -0.0847  0.3459
 3929TIP3    H111793   2.919   0.066  -0.057 -3.2103 -0.5468  0.2377
 3929TIP3    H211794   2.853   0.168   0.033 -0.9128 -0.1533  1.5625
 3930TIP3   OH211795   1.325   0.319   3.943 -0.1930  0.0725 -0.1273
 3930TIP3    H111796   1.357   0.287   3.859 -1.2535  0.3189 -0.6525
 3930TIP3    H211797   1.365   0.406   3.953  0.4946 -0.2510 -0.0293
 3931TIP3   OH211798   3.196   0.358   0.824  0.0974  0.0275  0.6283
 3931TIP3    H111799   3.191   0.403   0.908 -0.4628 -1.0903  1.2221
 3931TIP3    H211800   3.118   0.302   0.822  1.3284 -1.7851  0.4551
 3932TIP3   OH211801   0.788   1.340   4.205  0.4393 -0.3443  1.3496
 3932TIP3    H111802   0.825   1.266   4.157 -1.1006  0.0175 -0.5049
 3932TIP3    H211803   0.797   1.315   4.297  0.8202 -2.4181  0.8016
 3933TIP3   OH211804   4.676   1.626   2.218  0.2032 -0.2764 -0.1594
 3933TIP3    H111805   4.606   1.597   2.159 -0.3761 -0.1277  0.4455
 3933TIP3    H211806   4.634   1.635   2.303  0.8821  0.1688  0.1397
 3934TIP3   OH211807   1.975   4.148   2.295 -0.2513  0.0216 -0.2425
 3934TIP3    H111808   1.915   4.210   2.337 -0.8838 -1.1553  0.6788
 3934TIP3    H211809   2.051   4.200   2.270  0.0624  0.8546  2.1813
 3935TIP3   OH211810   2.445   5.181   4.257 -0.4246  0.0555 -0.5580
 3935TIP3    H111811   2.481   5.266   4.284 -1.3171  0.3056 -0.1131
 3935TIP3    H211812   2.398   5.150   4.334 -0.9166 -0.3945 -1.0333
 3936TIP3   OH211813   3.063   3.522   1.991  0.0772  0.7710 -0.2329
 3936TIP3    H111814   2.968   3.520   2.001  0.1678  0.5434  0.6537
 3936TIP3    H211815   3.096   3.459   2.055  0.7413 -0.6501 -1.8997
 3937TIP3   OH211816   1.364   5.041   1.743 -0.2821 -0.0772 -0.0952
 3937TIP3    H111817   1.302   5.093   1.794  0.6553 -1.3000  2.4680
 3937TIP3    H211818   1.450   5.074   1.768  0.2125 -0.4363 -1.2622
 3938TIP3   OH211819   4.180   2.164   1.837  0.3325  0.0682 -0.0664
 3938TIP3    H111820   4.175   2.116   1.755  0.8662  1.2136 -0.7947
 3938TIP3    H211821   4.112   2.231   1.830  2.0615  1.8437 -0.7407
 3939TIP3   OH211822   1.350   1.724   4.035 -0.2928 -0.0314  0.8986
 3939TIP3    H111823   1.382   1.636   4.051  0.6701  0.1372 -0.0393
 3939TIP3    H211824   1.424   1.771   3.996 -1.6039  0.4086 -1.2186
 3940TIP3   OH211825   6.245   5.247   3.112 -0.0178  0.2991  0.4533
 3940TIP3    H111826   6.332   5.248   3.073  0.4563 -2.4418  1.2265
 3940TIP3    H211827   6.185   5.253   3.038  0.8584 -1.7886 -0.4990
 3941TIP3   OH211828   6.125   5.329   3.551 -0.3744 -0.0568 -0.4074
 3941TIP3    H111829   6.129   5.334   3.455  2.7092  1.6643 -0.3311
 3941TIP3    H211830   6.102   5.418   3.579 -1.1047 -0.5068  0.4673
 3942TIP3   OH211831   1.877   0.072   0.592 -0.2743  0.3498  0.1352
 3942TIP3    H111832   1.962   0.030   0.575 -0.0367  0.8490  0.0864
 3942TIP3    H211833   1.839   0.020   0.664 -0.2295 -0.2918 -0.2958
 3943TIP3   OH211834   4.848   0.229   1.074  0.0375  0.4845 -0.6863
 3943TIP3    H111835   4.826   0.290   1.144 -0.2725 -0.8119  0.3773
 3943TIP3    H211836   4.763   0.205   1.036  0.2156  1.3212 -1.6546
 3944TIP3   OH211837   5.154   0.067   3.711  0.3578  0.2939  0.2628
 3944TIP3    H111838   5.102   0.066   3.791  1.0747 -0.7069  0.7393
 3944TIP3    H211839   5.113   0.134   3.656 -1.5857 -0.6557  0.4980
 3945TIP3   OH211840   5.198   3.966   2.592 -0.4103 -0.4283 -0.1786
 3945TIP3    H111841   5.142   3.923   2.528  0.7760  0.9180 -2.2419
 3945TIP3    H211842   5.149   4.044   2.618 -0.9179 -1.0066  0.6205
 3946TIP3   OH211843   4.535   2.319   2.452  0.3191  0.0218  0.8651
 3946TIP3    H111844   4.541   2.268   2.533 -0.4226 -0.5775  0.5530
 3946TIP3    H211845   4.564   2.407   2.478  3.0566 -0.8285  1.0915
 3947TIP3   OH211846   1.971   0.743   2.675  0.0559 -0.7660  0.5983
 3947TIP3    H111847   1.940   0.654   2.662 -0.9347 -0.8530  3.0403
 3947TIP3    H211848   1.920   0.776   2.750  0.6922  1.7020  0.0544
 3948TIP3   OH211849   3.560   2.538   3.329 -0.2256 -0.1629 -0.2533
 3948TIP3    H111850   3.531   2.523   3.419  0.7707 -1.2289 -0.0840
 3948TIP3    H211851   3.589   2.629   3.328  3.0358 -1.0154  1.5325
 3949TIP3   OH211852   3.961   4.799   1.273  0.0123  0.0254 -0.5350
 3949TIP3    H111853   3.919   4.741   1.210 -1.5557  0.3333  0.1813
 3949TIP3    H211854   4.055   4.787   1.258 -0.3108 -0.0881 -2.7337
 3950TIP3   OH211855   3.234   4.566   3.929  0.2420 -0.0460  0.0842
 3950TIP3    H111856   3.273   4.550   3.843  1.3714 -0.2921  0.6233
 3950TIP3    H211857   3.265   4.653   3.954  0.5281 -0.2765  0.5523
 3951TIP3   OH211858   4.401   0.963   2.689  0.5934  0.6167 -0.0017
 3951TIP3    H111859   4.480   0.924   2.727  0.3366  0.8642  0.7906
 3951TIP3    H211860   4.381   1.038   2.745  0.4583  1.2537 -0.8775
 3952TIP3   OH211861   1.175   3.333   3.195  0.0144  0.0814 -0.3232
 3952TIP3    H111862   1.130   3.296   3.119 -0.8780 -0.3879  0.4172
 3952TIP3    H211863   1.141   3.422   3.202  0.4809  0.3010 -0.7645
 3953TIP3   OH211864   6.306   4.196   0.669  0.5092  0.3673 -0.3236
 3953TIP3    H111865   6.233   4.231   0.721  1.4172 -0.9874  2.0411
 3953TIP3    H211866   6.372   4.173   0.734  2.0870 -0.6795 -2.2055
 3954TIP3   OH211867   0.648   1.099   3.746 -0.1595  0.5117  0.4530
 3954TIP3    H111868   0.626   1.171   3.804 -0.8126  0.7593 -0.0993
 3954TIP3    H211869   0.582   1.101   3.677  0.6228  0.2489 -0.3285
 3955TIP3   OH211870   3.250   0.791   1.803  0.2019 -0.2817 -0.2052
 3955TIP3    H111871   3.310   0.833   1.865 -0.3075 -0.5206  0.4735
 3955TIP3    H211872   3.231   0.858   1.738  1.8274 -0.4600 -0.8840
 3956TIP3   OH211873   4.354   0.285   3.015 -0.0093  0.1693 -0.0313
 3956TIP3    H111874   4.385   0.228   3.085 -1.3261 -1.8027 -0.9610
 3956TIP3    H211875   4.258   0.283   3.023 -0.1363  0.7900 -1.1909
 3957TIP3   OH211876   5.814   1.258   4.192 -0.1111  0.7525 -0.4186
 3957TIP3    H111877   5.867   1.200   4.137  0.2062 -0.8163  1.4274
 3957TIP3    H211878   5.740   1.283   4.137  1.8317  1.9521 -2.6299
 3958TIP3   OH211879   5.538   3.530   1.905  0.4007 -0.1457  0.0830
 3958TIP3    H111880   5.608   3.589   1.879  0.2955 -0.2895 -0.5376
 3958TIP3    H211881   5.541   3.459   1.841 -1.6788  0.8909 -1.2850
 3959TIP3   OH211882   3.625   0.486   3.835  0.0083  0.5291 -0.1456
 3959TIP3    H111883   3.694   0.538   3.876  1.3714 -1.3429  0.1005
 3959TIP3    H211884   3.556   0.549   3.815  1.6478  2.4546 -0.1187
 3960TIP3   OH211885   2.518   3.592   4.456  0.3752  0.2994  0.2228
 3960TIP3    H111886   2.581   3.521   4.448  0.4934  0.4169  0.0996
 3960TIP3    H211887   2.563   3.668   4.419 -0.5700 -0.0519 -1.8029
 3961TIP3   OH211888   1.007   1.977   0.100 -0.3305  0.1527  0.1581
 3961TIP3    H111889   0.980   1.955   0.011 -3.4989  1.5164  0.6232
 3961TIP3    H211890   1.001   1.895   0.149  2.3610 -0.8153 -0.9786
 3962TIP3   OH211891   3.407   3.769   1.852  0.1751  0.3569 -0.0244
 3962TIP3    H111892   3.449   3.804   1.774 -0.5637 -1.3020 -1.2314
 3962TIP3    H211893   3.458   3.691   1.874 -1.6948 -1.2693 -1.0785
 3963TIP3   OH211894   5.312   2.353   2.044 -0.5703  0.3055 -0.5890
 3963TIP3    H111895   5.358   2.274   2.014  0.1457  0.8993 -1.0881
 3963TIP3    H211896   5.275   2.328   2.129 -1.8266 -1.1069 -1.4967
 3964TIP3   OH211897   5.391   3.136   3.420  0.3327 -0.0155 -0.0356
 3964TIP3    H111898   5.478   3.166   3.443  0.4537 -0.5164  0.1846
 3964TIP3    H211899   5.376   3.169   3.331  0.7205  0.1249 -0.0489
 3965TIP3   OH211900   3.237   5.556   2.317  0.3432 -0.2396  0.0513
 3965TIP3    H111901   3.326   5.532   2.343 -0.1173 -3.0853 -0.7011
 3965TIP3    H211902   3.184   5.541   2.395  0.1788 -0.9665 -0.1900
 3966TIP3   OH211903   0.630   4.368   5.150 -0.0402 -0.0723  0.1427
 3966TIP3    H111904   0.656   4.459   5.168 -0.9003  0.3284 -0.5433
 3966TIP3    H211905   0.565   4.348   5.217  1.6627 -0.9295  1.5984
 3967TIP3   OH211906   3.043   1.095   0.191  0.5405  0.0168  0.2074
 3967TIP3    H111907   3.095   1.050   0.125  0.8043  2.5509 -1.4530
 3967TIP3    H211908   3.097   1.095   0.269  1.3081 -0.8761 -0.3101
 3968TIP3   OH211909   2.798   4.203   5.143 -0.2759 -0.3313 -0.3162
 3968TIP3    H111910   2.724   4.155   5.106 -0.4251  0.0286 -0.4912
 3968TIP3    H211911   2.826   4.262   5.073 -0.3184  0.0828  0.0105
 3969TIP3   OH211912   5.789   3.003   2.957  0.0962 -0.1490 -0.3529
 3969TIP3    H111913   5.755   2.922   2.920 -0.3610  0.0485 -0.3680
 3969TIP3    H211914   5.713   3.046   2.996  0.7817 -1.1158  2.2692
 3970TIP3   OH211915   3.128   3.081   0.127 -0.3166 -0.1344  0.1551
 3970TIP3    H111916   3.152   3.009   0.185 -1.1172  1.2195  2.2936
 3970TIP3    H211917   3.111   3.040   0.042  2.0556 -2.0625  0.5067
 3971TIP3   OH211918   3.833   1.788   4.740 -0.1895 -0.1388  0.1578
 3971TIP3    H111919   3.751   1.826   4.773  0.1537  0.6798  0.0718
 3971TIP3    H211920   3.875   1.859   4.692  0.2350 -0.7664 -0.4128
 3972TIP3   OH211921   3.849   3.307   1.595  0.8756  0.1301 -0.1097
 3972TIP3    H111922   3.860   3.225   1.546  1.5628 -0.0705  0.3722
 3972TIP3    H211923   3.758   3.333   1.577  1.0194 -0.0949 -1.2364
 3973TIP3   OH211924   5.705   4.925   0.539 -0.2982 -0.0985  0.5164
 3973TIP3    H111925   5.778   4.915   0.478 -0.9051  1.4274 -0.5341
 3973TIP3    H211926   5.644   4.854   0.517  0.2195 -0.5228  0.4451
 3974TIP3   OH211927   3.077   5.927   4.370  0.3856 -0.4385  0.2058
 3974TIP3    H111928   3.133   5.864   4.416  0.5203  0.3868  1.2123
 3974TIP3    H211929   3.136   5.969   4.307  0.7839  0.0226  0.8671
 3975TIP3   OH211930   1.642   2.651   3.657  0.1095 -0.2578 -0.5288
 3975TIP3    H111931   1.700   2.722   3.687 -1.1635  0.2699  0.7898
 3975TIP3    H211932   1.673   2.574   3.705 -0.2962  0.0303  0.2011
 3976TIP3   OH211933   0.872   0.361   5.006  0.2095 -0.0531 -0.0357
 3976TIP3    H111934   0.937   0.383   5.072  0.0118  1.8368 -0.4265
 3976TIP3    H211935   0.851   0.444   4.963 -1.1286 -0.9066 -1.1401
 3977TIP3   OH211936   2.884   5.204   3.514 -0.0535 -0.3636 -0.2557
 3977TIP3    H111937   2.810   5.264   3.507 -1.3368 -1.9477 -1.0315
 3977TIP3    H211938   2.938   5.223   3.437 -0.7821 -0.6093 -0.8371
 3978TIP3   OH211939   0.554   2.610   1.680  0.0654  0.2954  0.1604
 3978TIP3    H111940   0.526   2.682   1.737 -1.0963 -0.4878  0.6158
 3978TIP3    H211941   0.539   2.641   1.591  1.1539  1.2302  0.2757
 3979TIP3   OH211942   2.841   5.753   4.979 -0.4580 -0.7755  0.5430
 3979TIP3    H111943   2.801   5.807   5.047  1.0188 -1.0210  1.6601
 3979TIP3    H211944   2.889   5.815   4.924  0.6086 -0.8383  1.3752
 3980TIP3   OH211945   3.681   3.211   4.127  0.1309 -0.0491 -0.3154
 3980TIP3    H111946   3.772   3.187   4.108  0.8281  1.4870  0.7968
 3980TIP3    H211947   3.688   3.295   4.173 -1.7795 -0.4517  0.8346
 3981TIP3   OH211948   4.343   3.797   0.496  0.0770  0.1550  0.3911
 3981TIP3    H111949   4.328   3.703   0.492  0.9254  0.0470 -0.5934
 3981TIP3    H211950   4.255   3.835   0.493 -0.3216 -0.5971  1.5548
 3982TIP3   OH211951   1.817   2.156   2.954  0.5519  0.0618  0.3678
 3982TIP3    H111952   1.768   2.157   2.872  0.2062 -1.6342  0.5214
 3982TIP3    H211953   1.751   2.168   3.022  0.5473 -0.6124  0.4901
 3983TIP3   OH211954   0.591   4.416   4.587 -0.5818 -0.2071  0.3688
 3983TIP3    H111955   0.509   4.464   4.579 -1.0123 -0.8953  0.4946
 3983TIP3    H211956   0.585   4.373   4.673  0.2164  0.2832  0.6805
 3984TIP3   OH211957   6.308   5.427   4.951  0.5433 -0.1300 -0.3570
 3984TIP3    H111958   6.339   5.483   5.022  0.1169  0.7413 -0.8384
 3984TIP3    H211959   6.235   5.475   4.912 -0.3150 -1.3646 -0.3287
 3985TIP3   OH211960   5.426   2.414   2.901  0.5665  0.1912  0.5297
 3985TIP3    H111961   5.486   2.428   2.828  0.4558 -1.0861  0.1626
 3985TIP3    H211962   5.444   2.324   2.929 -2.8020 -1.1514 -1.1234
 3986TIP3   OH211963   4.526   5.619   3.647 -0.3430 -0.0004  0.1517
 3986TIP3    H111964   4.519   5.528   3.617  1.0507  0.0899 -0.5158
 3986TIP3    H211965   4.589   5.616   3.720  1.6952  0.7305 -1.4824
 3987TIP3   OH211966   4.646  -0.002   2.378 -0.1050  0.2689  0.3898
 3987TIP3    H111967   4.669   0.043   2.297  0.4610 -0.4184  0.1541
 3987TIP3    H211968   4.649   0.066   2.445  3.2314  0.1767  0.4882
 3988TIP3   OH211969   4.561   3.963   1.279 -0.2177 -0.3445 -0.6824
 3988TIP3    H111970   4.517   3.975   1.363  0.0778  0.9719 -0.7012
 3988TIP3    H211971   4.648   4.001   1.291 -0.0825 -0.3555 -1.5124
 3989TIP3   OH211972   4.083   2.884   2.997  0.0471  0.5790  0.1740
 3989TIP3    H111973   4.084   2.951   2.928 -1.6518  1.2388  0.7241
 3989TIP3    H211974   4.017   2.915   3.059 -0.9140 -1.6647  0.3781
 3990TIP3   OH211975   1.919   4.589   1.406  0.1244  0.1420  0.6878
 3990TIP3    H111976   1.862   4.561   1.334 -0.1967 -1.6780  1.5968
 3990TIP3    H211977   2.007   4.570   1.375  0.0310 -0.0230  0.5204
 3991TIP3   OH211978   0.736   2.688   2.019 -0.1913  0.4128  0.2489
 3991TIP3    H111979   0.761   2.671   1.929  1.5712  0.7332  0.6337
 3991TIP3    H211980   0.719   2.783   2.022 -0.7705  0.3178  0.1562
 3992TIP3   OH211981   4.891   2.422   0.510 -0.4616  0.2531  0.2498
 3992TIP3    H111982   4.956   2.490   0.489 -1.7500  0.8362 -2.3495
 3992TIP3    H211983   4.906   2.354   0.445 -1.0294 -0.6371  1.0295
 3993TIP3   OH211984   1.731   5.789   3.471 -0.1755 -0.1713  0.4154
 3993TIP3    H111985   1.662   5.851   3.447 -0.9739 -0.9756  0.6168
 3993TIP3    H211986   1.811   5.828   3.435 -0.5418  1.3343  1.1494
 3994TIP3   OH211987   0.075   3.087   2.803 -0.6322 -0.2681 -0.3228
 3994TIP3    H111988   0.003   3.115   2.860 -0.7998 -0.5364 -0.4029
 3994TIP3    H211989   0.131   3.164   2.796 -1.0223  0.0080 -0.4348
 3995TIP3   OH211990   2.095   5.048   1.621  0.1065  0.3663  0.2279
 3995TIP3    H111991   2.034   4.985   1.659  1.1809 -0.6202  0.3546
 3995TIP3    H211992   2.077   5.044   1.527  0.0705 -0.0163  0.2511
 3996TIP3   OH211993   2.373   4.235   1.290  0.5251 -0.5757  0.4063
 3996TIP3    H111994   2.357   4.258   1.382 -3.9546  1.2612 -0.5910
 3996TIP3    H211995   2.427   4.306   1.256 -1.5087  1.1917  0.6794
 3997TIP3   OH211996   6.294   3.686   1.592 -0.4244  0.5186 -0.1281
 3997TIP3    H111997   6.239   3.761   1.567 -2.2022 -0.3900  0.8359
 3997TIP3    H211998   6.341   3.663   1.512 -3.4365 -0.2819 -1.8252
 3998TIP3   OH211999   1.114   5.493   2.800 -0.2297 -0.7570 -0.1435
 3998TIP3    H112000   1.168   5.515   2.876 -0.1502  0.9053 -0.6470
 3998TIP3    H212001   1.025   5.492   2.834 -0.1752 -0.2528  0.0160
 3999TIP3   OH212002   4.340   1.507   1.412 -0.6857  0.3305 -0.1622
 3999TIP3    H112003   4.264   1.494   1.468 -0.4250  0.1624  0.1602
 3999TIP3    H212004   4.395   1.569   1.460 -0.1242 -0.3589  0.1179
 4000TIP3   OH212005   1.855   4.011   4.316  0.5165 -0.3056 -0.2455
 4000TIP3    H112006   1.795   4.075   4.278 -0.3730 -1.1370 -0.2832
 4000TIP3    H212007   1.832   4.009   4.409 -0.3117 -1.4633 -0.4646
 4001TIP3   OH212008   0.833   0.529   0.880 -0.2755  0.2355  0.1994
 4001TIP3    H112009   0.880   0.519   0.798 -0.2249 -0.7574  0.3375
 4001TIP3    H212010   0.766   0.460   0.878  0.0898 -0.1643  1.2282
 4002TIP3   OH212011   6.219   0.658   2.860  0.6533  0.0584  0.0504
 4002TIP3    H112012   6.271   0.585   2.895 -0.3766 -0.7190  0.0080
 4002TIP3    H212013   6.173   0.694   2.936 -0.3998 -0.6509 -0.2289
 4003TIP3   OH212014   3.282   0.709   4.623 -0.2883 -0.2863 -0.9731
 4003TIP3    H112015   3.309   0.758   4.545  1.0243  0.6416  0.0360
 4003TIP3    H212016   3.206   0.756   4.656 -1.5274 -1.2963 -2.2477
 4004TIP3   OH212017   2.487   2.286   4.221  0.5803 -1.2316  0.1065
 4004TIP3    H112018   2.403   2.276   4.176  0.2851 -0.6152  0.4998
 4004TIP3    H212019   2.552   2.288   4.151  0.1509 -0.5353 -0.2862
 4005TIP3   OH212020   5.952   0.221   1.752 -0.2464 -0.0333 -0.3556
 4005TIP3    H112021   5.978   0.288   1.815 -0.6944 -1.1747  1.1053
 4005TIP3    H212022   6.005   0.240   1.674 -0.4125  2.0209 -0.0337
 4006TIP3   OH212023   4.781   5.198   1.858  0.7834  0.2508  0.3518
 4006TIP3    H112024   4.739   5.148   1.928 -0.8479  0.8056 -0.1954
 4006TIP3    H212025   4.847   5.251   1.902 -0.0447  0.4048  1.4375
 4007TIP3   OH212026   3.740   3.897   1.287  0.4721  0.3774  0.2820
 4007TIP3    H112027   3.714   3.949   1.363  3.0111 -0.5769  1.9498
 4007TIP3    H212028   3.666   3.840   1.270  0.0382  0.1884  2.4866
 4008TIP3   OH212029   0.045   1.101   3.725  0.8261  0.2988  0.6323
 4008TIP3    H112030   0.073   1.150   3.647 -0.9296 -1.0645 -0.9531
 4008TIP3    H212031   0.056   1.009   3.700  0.4399 -0.1710  2.1178
 4009TIP3   OH212032   0.423   3.596   2.418 -0.4236 -0.1913 -0.3695
 4009TIP3    H112033   0.471   3.513   2.419  1.5890  0.8262  2.2048
 4009TIP3    H212034   0.492   3.663   2.417 -1.8361  1.3796  0.9260
 4010TIP3   OH212035   1.384   2.795   2.048 -0.1736 -0.3848  0.4956
 4010TIP3    H112036   1.434   2.720   2.015  3.0330  2.0041 -0.5179
 4010TIP3    H212037   1.395   2.792   2.143 -1.0624 -1.7745  0.5847
 4011TIP3   OH212038   2.424   0.510   2.557  0.2884 -0.3936 -0.3095
 4011TIP3    H112039   2.397   0.429   2.515 -2.0847  1.8766 -3.6418
 4011TIP3    H212040   2.520   0.505   2.561  0.2885 -2.7130 -1.6899
 4012TIP3   OH212041   0.667   4.092   0.503  0.3688  0.0943  0.4344
 4012TIP3    H112042   0.580   4.076   0.468  0.3052 -0.6699  0.9135
 4012TIP3    H212043   0.670   4.042   0.585  1.3116 -0.0310  0.3391
 4013TIP3   OH212044   1.829   2.070   4.191  0.5265 -0.1342  0.3134
 4013TIP3    H112045   1.919   2.055   4.223  0.9528 -0.3718 -0.9322
 4013TIP3    H212046   1.797   1.982   4.170  0.9469  0.1341 -1.6246
 4014TIP3   OH212047   6.022   3.937   0.972 -0.7802 -0.1764  0.0422
 4014TIP3    H112048   6.099   3.880   0.969 -0.2949  0.4880 -0.5074
 4014TIP3    H212049   5.980   3.925   0.887 -1.0941 -0.2690  0.2071
 4015TIP3   OH212050   3.444   3.789   0.235 -0.0383 -0.3557  0.1663
 4015TIP3    H112051   3.360   3.822   0.265 -0.1103 -0.5102  0.1367
 4015TIP3    H212052   3.444   3.696   0.259 -0.0563 -0.4582 -0.2193
 4016TIP3   OH212053   6.188   3.762   2.810 -0.1716 -0.4416  0.1782
 4016TIP3    H112054   6.098   3.738   2.831 -0.1929  1.1020  2.1957
 4016TIP3    H212055   6.191   3.856   2.825  2.1773 -0.6988  1.9392
 4017TIP3   OH212056   4.566   4.743   2.101 -0.2187 -0.0975  0.1232
 4017TIP3    H112057   4.568   4.781   2.189 -1.1807 -0.6228  0.3969
 4017TIP3    H212058   4.611   4.659   2.110 -1.5718 -0.8143  0.4811
 4018TIP3   OH212059   4.978   3.514   2.295 -0.2156  0.0603 -0.4248
 4018TIP3    H112060   5.032   3.436   2.283  0.3201  0.4766 -0.8074
 4018TIP3    H212061   5.017   3.559   2.370  0.9911  1.1607 -1.6400
 4019TIP3   OH212062   2.381   5.646   4.577 -0.4148  0.3642  0.1400
 4019TIP3    H112063   2.443   5.710   4.542  0.0662  0.2923  0.8480
 4019TIP3    H212064   2.356   5.681   4.663 -1.1567  0.2596 -0.0282
 4020TIP3   OH212065   1.963   3.196   3.576 -0.2001  0.3167 -0.1087
 4020TIP3    H112066   2.046   3.157   3.549 -1.8074 -1.4583 -3.1019
 4020TIP3    H212067   1.985   3.285   3.602  2.8069 -0.5947  0.8013
 4021TIP3   OH212068   5.570   4.453   3.680 -0.6796 -0.2775  0.0039
 4021TIP3    H112069   5.509   4.380   3.685 -0.3972 -0.6250 -1.3986
 4021TIP3    H212070   5.656   4.413   3.693 -0.4513 -0.3418 -1.5304
 4022TIP3   OH212071   0.976   5.709   3.375 -0.7461 -0.5475  0.8425
 4022TIP3    H112072   1.054   5.673   3.417  1.3636  1.6863 -0.8400
 4022TIP3    H212073   0.976   5.801   3.400 -2.1268 -0.2183 -0.2491
 4023TIP3   OH212074   2.538   3.060   0.551 -0.1987  0.6309  0.5975
 4023TIP3    H112075   2.470   3.104   0.603 -0.5911  0.0625  0.5777
 4023TIP3    H212076   2.555   3.120   0.479  0.1244  1.2863  1.2089
 4024TIP3   OH212077   0.399   1.559   2.911 -0.0542  0.1279  0.6146
 4024TIP3    H112078   0.323   1.602   2.950  0.4074  0.1237  1.5446
 4024TIP3    H212079   0.467   1.627   2.911 -0.1157  0.2055 -0.4305
 4025TIP3   OH212080   4.296   0.344   1.491  0.1616  0.2920  0.2713
 4025TIP3    H112081   4.337   0.313   1.572  1.2865 -0.9796 -0.7314
 4025TIP3    H212082   4.367   0.347   1.427 -1.0548 -0.8825 -1.2363
 4026TIP3   OH212083   0.625   1.727   2.938  0.0664 -0.1321  0.4153
 4026TIP3    H112084   0.672   1.685   3.010  0.4239  0.4947  0.5529
 4026TIP3    H212085   0.625   1.820   2.960 -2.7046 -0.2282  1.2902
 4027TIP3   OH212086   3.136   1.092   0.803 -0.4945 -0.1919  0.2613
 4027TIP3    H112087   3.138   1.019   0.740 -0.7583 -0.2375  0.3046
 4027TIP3    H212088   3.043   1.109   0.817 -0.4474  0.7134 -0.3921
 4028TIP3   OH212089   5.491   3.327   4.868  0.0191  0.4641 -0.1062
 4028TIP3    H112090   5.550   3.252   4.872 -2.3572 -1.5372 -0.1412
 4028TIP3    H212091   5.543   3.400   4.901  1.8071 -1.6382  2.1040
 4029TIP3   OH212092   1.128   3.597   2.790 -0.8577 -0.5364  0.2568
 4029TIP3    H112093   1.092   3.512   2.816 -0.5626 -0.8143 -0.2339
 4029TIP3    H212094   1.139   3.591   2.695 -0.8846  0.0694  0.2121
 4030TIP3   OH212095   5.082   3.150   2.696  0.1928  0.8155  0.4597
 4030TIP3    H112096   5.072   3.102   2.614  0.0548  1.2054  0.2499
 4030TIP3    H212097   5.025   3.226   2.688 -1.3907 -0.1595  1.7037
 4031TIP3   OH212098   0.754   1.406   0.132 -0.1170 -0.1787  0.0853
 4031TIP3    H112099   0.726   1.349   0.060 -1.4387  0.2500  0.2375
 4031TIP3    H212100   0.786   1.485   0.089 -3.8681  1.4607 -0.1138
 4032TIP3   OH212101   0.905   3.782   2.878 -0.1143  0.3810  0.5563
 4032TIP3    H112102   0.895   3.819   2.790 -0.3647  1.2757  0.9471
 4032TIP3    H212103   0.984   3.729   2.873 -2.0110 -2.5885 -1.1932
 4033TIP3   OH212104   3.155   2.470   4.424 -0.5987 -0.4367 -0.3600
 4033TIP3    H112105   3.120   2.414   4.493 -1.6352 -0.5046 -0.9273
 4033TIP3    H212106   3.250   2.458   4.430 -0.6875 -0.6870  0.8323
 4034TIP3   OH212107   5.974   0.283   3.791  0.1485  0.4102  0.1902
 4034TIP3    H112108   6.049   0.243   3.836  0.5825 -3.2341 -3.2463
 4034TIP3    H212109   6.008   0.308   3.705 -1.8898  1.8243 -0.2879
 4035TIP3   OH212110   3.994   3.818   1.309 -0.3856  0.0057 -0.2898
 4035TIP3    H112111   3.988   3.773   1.393  2.7567  0.4679  0.3141
 4035TIP3    H212112   3.908   3.858   1.297 -0.9970 -0.1996  2.6583
 4036TIP3   OH212113   1.079   0.991   0.292 -0.0387  0.0156  0.0593
 4036TIP3    H112114   1.018   1.018   0.224 -0.1607 -1.8744 -0.6446
 4036TIP3    H212115   1.156   1.047   0.279 -0.9612  1.2720 -0.1083
 4037TIP3   OH212116   0.545   3.864   4.545 -0.1018  0.2345  0.7712
 4037TIP3    H112117   0.460   3.845   4.585  0.1386 -1.4108  0.5563
 4037TIP3    H212118   0.544   3.959   4.531 -2.6418  0.0363 -0.9270
 4038TIP3   OH212119   1.146   0.120   4.566 -0.0757  0.2302 -0.9332
 4038TIP3    H112120   1.187   0.063   4.501  1.2356  0.3091 -0.2000
 4038TIP3    H212121   1.100   0.061   4.625  0.8110 -0.0559 -0.5046
 4039TIP3   OH212122   4.724   0.131   0.115  0.2154 -0.5269  0.1426
 4039TIP3    H112123   4.645   0.094   0.154 -0.0918  0.5714  0.6109
 4039TIP3    H212124   4.781   0.056   0.099 -0.5794 -1.2397  0.5930
 4040TIP3   OH212125   5.468   5.992   1.707 -0.4784 -0.4152  0.4919
 4040TIP3    H112126   5.489   5.910   1.662 -0.8365 -0.4158  0.3160
 4040TIP3    H212127   5.390   5.971   1.758 -0.1778 -0.3638  0.9732
 4041TIP3   OH212128   0.645   0.311   0.973  0.0659 -0.0798 -0.1835
 4041TIP3    H112129   0.577   0.316   0.906  0.8683 -2.9532 -1.3525
 4041TIP3    H212130   0.697   0.234   0.949  1.8562  0.1893  2.4235
 4042TIP3   OH212131   4.385   1.344   3.652 -0.4953  0.0589  0.2734
 4042TIP3    H112132   4.355   1.274   3.711  0.0388 -2.1220 -1.8877
 4042TIP3    H212133   4.469   1.371   3.687 -0.0057 -1.4724  0.3368
 4043TIP3   OH212134   0.914   4.360   1.803  0.2151  0.4999 -0.5428
 4043TIP3    H112135   0.996   4.314   1.791  0.9756  1.9675 -1.2682
 4043TIP3    H212136   0.880   4.372   1.714 -0.9566 -0.3578 -0.2369
 4044TIP3   OH212137   4.520   3.510   0.960  0.0694 -0.1720 -0.0254
 4044TIP3    H112138   4.494   3.430   0.915  1.4535 -0.9443  0.4958
 4044TIP3    H212139   4.566   3.480   1.038 -0.5096  1.1449  0.8586
 4045TIP3   OH212140   0.271   4.809   2.803  0.0064 -0.3942 -0.3853
 4045TIP3    H112141   0.353   4.773   2.836 -1.4233 -2.7583  0.8666
 4045TIP3    H212142   0.280   4.808   2.708  0.9856 -1.7537 -0.2946
 4046TIP3   OH212143   0.676   3.936   2.736  0.3389 -0.2667 -0.3456
 4046TIP3    H112144   0.593   3.892   2.719  0.2718 -0.2294 -0.1176
 4046TIP3    H212145   0.741   3.882   2.692 -0.0611  1.0144 -2.6526
 4047TIP3   OH212146   5.386   5.426   0.109 -0.0381 -0.4985  0.3344
 4047TIP3    H112147   5.349   5.505   0.148 -0.2952 -0.3863 -0.1345
 4047TIP3    H212148   5.311   5.370   0.092 -0.0014 -0.2562 -0.6489
 4048TIP3   OH212149   0.953   4.491   5.147 -0.1961  0.3512  0.1899
 4048TIP3    H112150   0.869   4.536   5.152 -0.2531  0.2649  0.0129
 4048TIP3    H212151   0.987   4.493   5.236 -1.4457 -1.6482  0.7764
 4049TIP3   OH212152   3.392   4.039   1.571  0.2413 -0.2786 -0.1848
 4049TIP3    H112153   3.306   3.999   1.585  1.3624 -2.8496 -0.0486
 4049TIP3    H212154   3.435   4.031   1.656  1.0055 -0.0542 -0.5466
 4050TIP3   OH212155   5.675   3.454   4.624 -0.0693 -0.2247  0.2918
 4050TIP3    H112156   5.589   3.452   4.664  0.2097 -1.3441  0.8816
 4050TIP3    H212157   5.693   3.547   4.609 -1.2905  0.0247  0.3223
 4051TIP3   OH212158   0.898   1.629   2.994  0.2908 -0.2377  1.0105
 4051TIP3    H112159   0.961   1.687   3.037 -0.3987  1.6920 -0.4133
 4051TIP3    H212160   0.903   1.653   2.902 -0.7411 -1.8146  0.5076
 4052TIP3   OH212161   3.997   2.231   0.983 -0.1033 -0.4930 -0.3033
 4052TIP3    H112162   3.997   2.158   0.921 -1.6121  0.5973 -1.6897
 4052TIP3    H212163   3.978   2.191   1.068  0.4656 -1.8572 -0.8049
 4053TIP3   OH212164   5.259   3.778   4.671  0.2423  0.3363  0.2865
 4053TIP3    H112165   5.170   3.784   4.638  0.6785  2.5084 -0.7182
 4053TIP3    H212166   5.265   3.692   4.712 -2.6047  0.5533  1.3164
 4054TIP3   OH212167   5.446   0.331   3.191 -0.5281  0.2179  0.3598
 4054TIP3    H112168   5.468   0.354   3.281 -0.8149 -0.4993  0.6185
 4054TIP3    H212169   5.497   0.392   3.138  1.4522 -0.8534  0.9355
 4055TIP3   OH212170   1.013   3.808   3.941  0.3637  0.1136  0.1360
 4055TIP3    H112171   1.047   3.736   3.887 -0.1793 -0.1955  0.1957
 4055TIP3    H212172   1.047   3.791   4.029  1.4711  0.7672 -0.1562
 4056TIP3   OH212173   3.179   1.052   2.049 -0.0189 -0.1682 -0.4479
 4056TIP3    H112174   3.261   1.082   2.087  0.5550 -0.5194 -1.4028
 4056TIP3    H212175   3.130   1.017   2.124  2.2181 -3.4292 -0.3017
 4057TIP3   OH212176   4.482   3.888   1.744 -0.0479 -0.2665  0.1276
 4057TIP3    H112177   4.421   3.904   1.817 -0.7871  0.7319 -0.6716
 4057TIP3    H212178   4.532   3.811   1.771 -3.0280 -2.4325 -0.0191
 4058TIP3   OH212179   5.360   0.794   4.291 -0.7021  0.1709  0.8237
 4058TIP3    H112180   5.383   0.707   4.258 -0.3655  0.1249  1.1841
 4058TIP3    H212181   5.270   0.784   4.322  0.0452 -0.6292  2.8869
 4059TIP3   OH212182   2.412   2.772   1.179  0.0862 -0.6479 -0.2681
 4059TIP3    H112183   2.394   2.826   1.102 -0.0925  0.2774  0.4140
 4059TIP3    H212184   2.328   2.764   1.223  0.5079  0.2961  0.7576
 4060TIP3   OH212185   6.099   1.915   3.956 -0.6657 -0.3630  0.0104
 4060TIP3    H112186   6.069   1.929   4.045 -1.2511 -0.0914 -0.2204
 4060TIP3    H212187   6.133   1.825   3.956 -0.1730 -0.1790  0.6266
 4061TIP3   OH212188   0.172   2.296   4.403  0.2706 -0.3190 -0.0947
 4061TIP3    H112189   0.085   2.312   4.367 -0.4485 -1.6147  0.9794
 4061TIP3    H212190   0.161   2.304   4.498  1.6846  1.0645 -0.0045
 4062TIP3   OH212191   0.751   1.462   2.293  0.2173  0.3594 -0.3205
 4062TIP3    H112192   0.696   1.398   2.248  0.9008 -1.7235  1.5844
 4062TIP3    H212193   0.824   1.477   2.233 -0.4785  0.1779 -1.2451
 4063TIP3   OH212194   0.464   3.152   1.752 -0.0830 -0.1534  0.1792
 4063TIP3    H112195   0.468   3.218   1.683  0.0002  1.0643  1.3145
 4063TIP3    H212196   0.390   3.178   1.806  1.9276  1.0421  2.5689
 4064TIP3   OH212197   1.331   4.805   3.560  0.4661  0.3111 -0.0752
 4064TIP3    H112198   1.246   4.808   3.603 -0.5654  0.3066 -2.0045
 4064TIP3    H212199   1.364   4.716   3.578 -1.6126 -1.0260 -2.2123
 4065TIP3   OH212200   0.433   0.396   4.560  0.0986 -0.5718  0.8519
 4065TIP3    H112201   0.427   0.492   4.561  0.9582 -0.4651 -0.5930
 4065TIP3    H212202   0.496   0.375   4.629  1.9716  0.1476 -0.5464
 4066TIP3   OH212203   0.198   5.869   3.223  0.0134  0.5296  0.1132
 4066TIP3    H112204   0.212   5.964   3.213  0.1932  0.5654  0.6745
 4066TIP3    H212205   0.259   5.844   3.293 -0.3092  0.0646  0.2250
 4067TIP3   OH212206   0.361   4.577   4.578 -0.4957  0.1589  0.0222
 4067TIP3    H112207   0.327   4.638   4.644  0.4359  0.1668  0.5093
 4067TIP3    H212208   0.345   4.621   4.494 -0.5093  0.7343  0.3210
 4068TIP3   OH212209   2.979   2.646   3.367  0.0988 -0.2718 -0.2218
 4068TIP3    H112210   2.917   2.713   3.337  0.1942 -0.9064 -1.9403
 4068TIP3    H212211   2.925   2.567   3.378  0.2808 -0.3503  0.1177
 4069TIP3   OH212212   1.606   4.476   2.019  0.3866 -0.1805  0.1682
 4069TIP3    H112213   1.559   4.554   1.991  0.1572  0.1226  1.3548
 4069TIP3    H212214   1.538   4.414   2.046  0.5840 -0.6494 -0.3729
 4070TIP3   OH212215   2.446   3.015   3.381  0.0133 -0.6118 -0.2268
 4070TIP3    H112216   2.428   2.969   3.463 -1.0671 -0.8771 -0.5988
 4070TIP3    H212217   2.464   3.105   3.407  1.1842 -1.0074  0.4221
 4071TIP3   OH212218   2.258   4.262   0.568  0.1523  0.0452 -0.9451
 4071TIP3    H112219   2.219   4.179   0.542  0.4390 -0.1301 -0.8231
 4071TIP3    H212220   2.315   4.286   0.495  0.3427 -0.0441 -0.8254
 4072TIP3   OH212221   1.442   4.045   3.372  0.0356 -0.1302  0.0861
 4072TIP3    H112222   1.507   3.987   3.412  0.0772  0.5494  1.0301
 4072TIP3    H212223   1.489   4.087   3.299  0.0751 -1.0728 -0.4480
 4073TIP3   OH212224   3.129   3.921   1.078  0.0327  0.6976 -0.3626
 4073TIP3    H112225   3.070   3.963   1.016 -0.6116  0.3848  0.0276
 4073TIP3    H212226   3.175   3.994   1.120  0.3371  0.9161 -1.0662
 4074TIP3   OH212227   1.278   1.947   1.157 -0.3153  0.1326  0.2602
 4074TIP3    H112228   1.225   2.027   1.160 -0.4968  0.0173  0.1218
 4074TIP3    H212229   1.222   1.880   1.197  0.8957  0.6761  3.1094
 4075TIP3   OH212230   3.145   2.789   3.941  0.3520  0.1537  0.0315
 4075TIP3    H112231   3.078   2.732   3.978  1.4844  0.5061  2.8777
 4075TIP3    H212232   3.207   2.730   3.898  0.6321 -0.6466  1.4710
 4076TIP3   OH212233   3.423   4.383   1.023  0.3523 -0.4868  0.1953
 4076TIP3    H112234   3.492   4.372   1.088 -0.7363  0.1591  1.5123
 4076TIP3    H212235   3.344   4.352   1.066 -0.0601 -2.1573 -1.6283
 4077TIP3   OH212236   5.134   3.298   4.857  0.0474 -0.5919  0.4452
 4077TIP3    H112237   5.181   3.262   4.932  0.1889  0.2235  0.7506
 4077TIP3    H212238   5.048   3.257   4.861 -0.0473 -0.3335  1.2266
 4078TIP3   OH212239   5.842   5.590   4.694  0.5891  0.0333  0.0183
 4078TIP3    H112240   5.929   5.576   4.729  0.8929  1.3653 -0.1332
 4078TIP3    H212241   5.841   5.683   4.669 -0.8614  0.0450  0.0164
 4079TIP3   OH212242   0.550   0.307   1.476  0.0017  0.2967  0.0816
 4079TIP3    H112243   0.616   0.280   1.412 -0.0035  0.1823  0.1237
 4079TIP3    H212244   0.600   0.332   1.554  0.0529  1.2002 -0.2374
 4080TIP3   OH212245   2.036   4.719   4.381 -0.4793 -0.0021  0.4659
 4080TIP3    H112246   2.127   4.715   4.352 -0.6705 -0.6934 -0.0571
 4080TIP3    H212247   2.022   4.638   4.430 -0.8693 -0.0041  0.3570
 4081TIP3   OH212248   0.776   3.086   1.774 -0.0925 -0.2686  0.1300
 4081TIP3    H112249   0.711   3.145   1.734 -0.2330 -1.0758 -0.8947
 4081TIP3    H212250   0.858   3.107   1.730  0.0017 -0.3566  0.2618
 4082TIP3   OH212251   2.527   3.152   1.248  0.0704  0.3567  0.3946
 4082TIP3    H112252   2.451   3.204   1.218 -0.6377 -1.2758 -0.7817
 4082TIP3    H212253   2.489   3.082   1.301  0.5999 -1.0721 -1.0260
 4083TIP3   OH212254   0.321   4.053   4.043  0.1049 -0.7618  0.2064
 4083TIP3    H112255   0.347   4.002   4.120  0.3828  1.0121  1.3536
 4083TIP3    H212256   0.335   4.145   4.069 -0.0884 -0.0931 -1.8585
 4084TIP3   OH212257   2.203   4.525   5.096  0.0029  0.1875  0.7703
 4084TIP3    H112258   2.130   4.584   5.080 -0.3479  0.3082  2.5557
 4084TIP3    H212259   2.246   4.561   5.174  2.4972  0.5957 -0.6688
 4085TIP3   OH212260   5.169   4.786   2.943  0.3935  0.1861 -0.0324
 4085TIP3    H112261   5.180   4.880   2.950  2.5727  0.0178 -0.5026
 4085TIP3    H212262   5.104   4.764   3.010 -2.2791  2.3002 -1.7309
 4086TIP3   OH212263   0.850   3.911   4.533 -0.3698 -0.2048 -0.0903
 4086TIP3    H112264   0.762   3.884   4.558 -0.4264 -0.7710 -0.8506
 4086TIP3    H212265   0.866   3.991   4.582 -1.3725 -0.0144 -0.0611
 4087TIP3   OH212266   1.887   3.440   0.653  0.3212 -0.1669 -1.0350
 4087TIP3    H112267   1.869   3.488   0.734 -0.4846  2.9402 -2.9031
 4087TIP3    H212268   1.824   3.368   0.654  0.6812 -0.5410  1.2799
 4088TIP3   OH212269   1.622   3.132   0.929  0.0086 -0.5857 -0.0401
 4088TIP3    H112270   1.699   3.141   0.873  0.2266 -0.6144  0.2533
 4088TIP3    H212271   1.572   3.061   0.890  1.1684 -2.0078  0.9429
 4089TIP3   OH212272   5.340  -0.015   3.486  0.3422 -0.2505 -0.0114
 4089TIP3    H112273   5.286  -0.061   3.551 -0.1504  0.7234  0.2844
 4089TIP3    H212274   5.341   0.076   3.515  0.4449  0.1309 -1.1422
 4090TIP3   OH212275   3.425   5.763   1.302 -0.1528 -0.3074  0.1949
 4090TIP3    H112276   3.339   5.804   1.297 -0.3458 -0.0598  3.4777
 4090TIP3    H212277   3.477   5.807   1.235 -1.6266  2.0143  0.4875
 4091TIP3   OH212278   0.703   3.907   3.465 -0.5667  0.6477  0.2802
 4091TIP3    H112279   0.622   3.928   3.511  0.0389 -0.9348  2.2100
 4091TIP3    H212280   0.770   3.905   3.533  0.4791 -1.2728 -0.7001
 4092TIP3   OH212281   3.981   2.958   0.398 -0.0136  0.1016 -0.3641
 4092TIP3    H112282   3.986   2.974   0.492 -2.5900 -1.2903  0.1024
 4092TIP3    H212283   3.962   2.864   0.391 -0.1078  0.2250 -2.2710
 4093TIP3   OH212284   5.829   5.088   1.736 -0.9831 -0.7667 -0.1932
 4093TIP3    H112285   5.916   5.128   1.733 -0.9087 -0.9605 -3.2808
 4093TIP3    H212286   5.839   5.014   1.796  0.2840  0.6106  1.3871
 4094TIP3   OH212287   5.055   4.613   2.761 -0.0661  0.2940 -0.6533
 4094TIP3    H112288   5.118   4.629   2.830 -1.4999  0.8324  0.5890
 4094TIP3    H212289   5.032   4.520   2.770  0.8394 -0.0221 -1.4012
 4095TIP3   OH212290   5.614   5.242   1.731  0.0765  0.1278  0.3467
 4095TIP3    H112291   5.689   5.183   1.733  1.3829  1.3647 -3.3406
 4095TIP3    H212292   5.541   5.187   1.700  0.9764  0.0714 -1.8384
 4096TIP3   OH212293   3.484   4.542   0.107  0.6573 -0.5858 -0.4811
 4096TIP3    H112294   3.552   4.608   0.099  1.5080 -1.5215 -1.1844
 4096TIP3    H212295   3.434   4.549   0.025  0.4504 -0.4913 -0.3472
 4097TIP3   OH212296   1.398   2.588   1.608 -0.1038  0.1863  0.0325
 4097TIP3    H112297   1.402   2.682   1.629  0.0081 -0.0409  1.0807
 4097TIP3    H212298   1.345   2.551   1.678  1.5570 -0.8454  0.8079
 4098TIP3   OH212299   5.912   3.679   0.009 -0.1527  0.1577  0.7660
 4098TIP3    H112300   6.001   3.672   0.043  0.0552 -0.4998  0.1150
 4098TIP3    H212301   5.878   3.589   0.012 -1.1352  0.5316  1.8722
 4099TIP3   OH212302   1.328   5.871   0.650  0.0659 -0.0214 -0.0662
 4099TIP3    H112303   1.308   5.931   0.723 -0.3916  1.0872 -1.0575
 4099TIP3    H212304   1.391   5.809   0.686  1.5131  1.7939  0.6887
 4100TIP3   OH212305   5.097   1.465   1.136 -0.0777 -0.3353  0.2365
 4100TIP3    H112306   5.046   1.530   1.088 -0.8921  0.2027  1.7759
 4100TIP3    H212307   5.106   1.392   1.075  0.1303  0.8569 -1.2204
 4101TIP3   OH212308   2.229   1.650   0.040  0.2917  0.0098  0.5360
 4101TIP3    H112309   2.274   1.733   0.031  0.6212 -0.3038 -0.9868
 4101TIP3    H212310   2.255   1.617   0.126  2.7247  0.0011 -0.1420
 4102TIP3   OH212311   4.592   1.347   3.950  0.2895 -0.1626 -0.0873
 4102TIP3    H112312   4.602   1.381   3.861 -1.8977  1.9803  0.3466
 4102TIP3    H212313   4.645   1.406   4.004  4.2957 -3.3553 -0.0927
 4103TIP3   OH212314   3.527   5.322   3.527 -0.4595  0.1370  0.2660
 4103TIP3    H112315   3.553   5.396   3.582 -1.2596 -0.2642  1.2256
 4103TIP3    H212316   3.587   5.324   3.453 -1.6144  2.9112 -0.7434
 4104TIP3   OH212317   3.153   0.281   2.253 -0.2480  0.4970 -0.7613
 4104TIP3    H112318   3.231   0.227   2.239  0.0045 -0.1714  2.4295
 4104TIP3    H212319   3.183   0.353   2.309 -1.8472  0.2834  0.4447
 4105TIP3   OH212320   1.569   1.253   0.341 -0.1092 -0.2545  0.2195
 4105TIP3    H112321   1.515   1.218   0.270 -0.1952  0.9943 -0.3549
 4105TIP3    H212322   1.659   1.244   0.309 -0.2339  3.0900 -1.4757
 4106TIP3   OH212323   4.635   4.190   0.491 -0.2185 -0.3426  0.3424
 4106TIP3    H112324   4.573   4.237   0.547 -2.6235 -0.9590 -1.5724
 4106TIP3    H212325   4.589   4.109   0.468  2.4091 -2.0933  0.8339
 4107TIP3   OH212326   2.091   1.367   4.896 -0.3092 -0.0266  0.2898
 4107TIP3    H112327   2.125   1.438   4.841  1.0041 -0.9586 -0.1677
 4107TIP3    H212328   2.166   1.308   4.907 -1.2693 -1.1563  0.9575
 4108TIP3   OH212329   1.422   2.673   3.201 -0.3505  0.0956 -0.4195
 4108TIP3    H112330   1.347   2.689   3.258  0.3389  0.0408  0.5249
 4108TIP3    H212331   1.488   2.737   3.228  0.2105 -0.3321 -0.7337
 4109TIP3   OH212332   4.200   4.191   2.076  0.0087  0.0257 -0.4509
 4109TIP3    H112333   4.275   4.223   2.126 -0.4282  0.1567  0.1269
 4109TIP3    H212334   4.138   4.160   2.143 -0.7748  0.6248 -0.8903
 4110TIP3   OH212335   5.655   2.746   4.790  0.3044 -0.2057  0.5659
 4110TIP3    H112336   5.616   2.693   4.859 -2.5995 -2.5994 -2.6104
 4110TIP3    H212337   5.735   2.699   4.766  0.0889 -0.6532  0.7227
 4111TIP3   OH212338   4.664   0.678   3.740 -0.4063 -0.4140  0.1265
 4111TIP3    H112339   4.722   0.605   3.718 -1.1066 -1.0403  0.3044
 4111TIP3    H212340   4.651   0.725   3.658  0.5890 -0.0773  0.1433
 4112TIP3   OH212341   1.343   4.839   1.582 -0.2191  0.5011  0.2318
 4112TIP3    H112342   1.372   4.916   1.630  0.7012 -0.5490  1.4634
 4112TIP3    H212343   1.248   4.836   1.594 -0.1396  0.9107  1.0134
 4113TIP3   OH212344   5.249   1.416   3.082 -0.2587 -0.2708  0.1317
 4113TIP3    H112345   5.250   1.490   3.022  1.6430  0.9140  1.5034
 4113TIP3    H212346   5.330   1.368   3.061 -0.2544 -0.5874  0.8563
 4114TIP3   OH212347   3.724   2.617   0.019  0.3885  0.7756  0.5440
 4114TIP3    H112348   3.754   2.561   0.091  0.5160  1.4118  1.0059
 4114TIP3    H212349   3.772   2.586  -0.058  2.2381  1.7071  1.2365
 4115TIP3   OH212350   0.001   3.678   3.399 -0.4781  0.0208 -0.4860
 4115TIP3    H112351   0.017   3.734   3.323  1.4431 -1.1420 -1.0033
 4115TIP3    H212352   0.073   3.698   3.459 -1.6438  0.4900  0.8026
 4116TIP3   OH212353   2.739   1.316   1.897 -0.5860  0.1669 -0.0565
 4116TIP3    H112354   2.800   1.267   1.841 -0.4721 -1.0156  1.0383
 4116TIP3    H212355   2.652   1.292   1.865 -0.5329  1.9327 -1.6852
 4117TIP3   OH212356   4.906   1.591   3.975  0.6644 -0.1685  0.5043
 4117TIP3    H112357   4.978   1.535   4.004  1.5549  1.2734  1.1806
 4117TIP3    H212358   4.838   1.578   4.041  1.9123  1.5426  2.2658
 4118TIP3   OH212359   1.760   3.038   2.510  0.3205  0.0035  0.3128
 4118TIP3    H112360   1.757   2.946   2.484 -0.9011 -0.2155  1.1226
 4118TIP3    H212361   1.797   3.083   2.434 -0.1054 -1.0147 -0.5262
 4119TIP3   OH212362   2.304   5.856   0.492  0.7858  0.0452 -0.3698
 4119TIP3    H112363   2.362   5.889   0.423  0.7279 -1.2050 -1.0644
 4119TIP3    H212364   2.220   5.842   0.448  0.5126  0.0022  0.1563
 4120TIP3   OH212365   3.849   3.236   2.184 -0.4291  0.1325  0.1693
 4120TIP3    H112366   3.797   3.316   2.188 -1.0625 -0.1330 -1.7929
 4120TIP3    H212367   3.821   3.186   2.261 -1.0928  1.1719  0.6229
 4121TIP3   OH212368   2.043   5.554   1.962  0.2182  0.1178  0.3946
 4121TIP3    H112369   1.951   5.526   1.958  0.2682  0.0343 -0.5894
 4121TIP3    H212370   2.040   5.647   1.942  0.2888  0.2711  1.0804
 4122TIP3   OH212371   0.210   4.172   2.922 -0.0911  0.1860  0.3646
 4122TIP3    H112372   0.161   4.253   2.911 -1.4402 -0.5841  0.5361
 4122TIP3    H212373   0.228   4.142   2.833  0.6894  0.8224  0.3000
 4123TIP3   OH212374   0.583   4.668   4.805  0.2299  0.0685  0.5181
 4123TIP3    H112375   0.493   4.691   4.827  0.8880  1.5165  1.8716
 4123TIP3    H212376   0.583   4.572   4.801 -1.4112  0.0517  0.1613
 4124TIP3   OH212377   4.530   5.350   4.795 -0.4994 -0.4364 -0.1754
 4124TIP3    H112378   4.621   5.369   4.773 -0.3872 -0.0874  0.5297
 4124TIP3    H212379   4.523   5.374   4.888 -0.8742 -2.0457  0.2324
 4125TIP3   OH212380   6.143   1.932   1.736 -0.1465  0.0901 -0.5712
 4125TIP3    H112381   6.194   2.001   1.779 -0.1293  0.4391 -1.1455
 4125TIP3    H212382   6.098   1.976   1.664 -1.0064 -0.2877 -0.2722
 4126TIP3   OH212383   3.595   1.875   3.283  0.6785  0.2424 -0.2051
 4126TIP3    H112384   3.541   1.930   3.340  2.5469  3.2588 -1.0588
 4126TIP3    H212385   3.538   1.855   3.208 -0.8486 -1.2451  1.2900
 4127TIP3   OH212386   5.256   0.595   1.272  1.0214  0.2215  0.7358
 4127TIP3    H112387   5.338   0.545   1.267  0.8981 -0.0542  1.3411
 4127TIP3    H212388   5.188   0.531   1.253  0.7621 -0.1891  2.7655
 4128TIP3   OH212389   0.366   4.490   4.261 -0.5118 -0.1787 -0.2427
 4128TIP3    H112390   0.315   4.418   4.297 -0.6999  0.6404  1.2393
 4128TIP3    H212391   0.457   4.460   4.263 -0.3714  0.1740  1.9891
 4129TIP3   OH212392   4.984   2.755   0.756  0.0792 -0.0496  0.0574
 4129TIP3    H112393   5.031   2.783   0.835  2.1682 -2.6983 -0.1176
 4129TIP3    H212394   4.948   2.669   0.779  1.8146 -1.4962 -2.1449
 4130TIP3   OH212395   4.866   1.516   3.014 -0.4132  0.7716  1.0541
 4130TIP3    H112396   4.873   1.472   3.098  1.0207  0.8163  0.9809
 4130TIP3    H212397   4.911   1.599   3.026 -0.8762  1.1201  0.4603
 4131TIP3   OH212398   0.561   5.048   5.197  0.2407 -0.5119 -0.3042
 4131TIP3    H112399   0.554   5.141   5.215  0.5103 -0.5210 -0.1510
 4131TIP3    H212400   0.597   5.043   5.109 -2.4342 -0.4550 -1.4890
 4132TIP3   OH212401   2.380   4.290   0.317  0.3300 -0.3115 -0.2935
 4132TIP3    H112402   2.426   4.226   0.263  0.9129 -0.3954  0.2901
 4132TIP3    H212403   2.316   4.330   0.258  0.8888 -0.4720 -1.0230
 4133TIP3   OH212404   2.405   5.268   1.059  0.3018  0.3218 -0.4445
 4133TIP3    H112405   2.352   5.296   0.985  0.6536 -2.2397 -1.7822
 4133TIP3    H212406   2.480   5.223   1.019  1.2952  0.1863  1.4499
 4134TIP3   OH212407   0.294   2.818   3.264  0.2276  0.0182  0.2757
 4134TIP3    H112408   0.328   2.889   3.209 -1.2736  1.7015  1.3867
 4134TIP3    H212409   0.205   2.845   3.285  0.1396 -1.4439  2.0403
 4135TIP3   OH212410   1.633   3.200   4.351  0.1222  0.0449 -0.4612
 4135TIP3    H112411   1.561   3.254   4.318  0.1120 -0.4420 -1.2938
 4135TIP3    H212412   1.590   3.132   4.402  0.1266  0.7325  0.4806
 4136TIP3   OH212413   4.051   0.885   1.064 -0.1073 -0.1377 -0.0546
 4136TIP3    H112414   4.058   0.790   1.071 -1.2699 -0.1487  1.3426
 4136TIP3    H212415   4.038   0.916   1.154  0.8733  1.4236 -0.3883
 4137TIP3   OH212416   4.103   3.953   2.686  0.1935  0.1763  0.0702
 4137TIP3    H112417   4.159   4.008   2.630  2.2222 -1.2705  0.5492
 4137TIP3    H212418   4.133   3.864   2.668 -0.8672 -0.5248  1.6197
 4138TIP3   OH212419   3.003   1.165   3.176 -0.0991 -0.3120 -0.0591
 4138TIP3    H112420   2.945   1.099   3.215  0.2511 -0.3796  0.3606
 4138TIP3    H212421   3.042   1.120   3.101  0.2538 -0.6484  0.3125
 4139TIP3   OH212422   3.461   1.382   0.645 -0.0240 -0.1536  0.1675
 4139TIP3    H112423   3.542   1.394   0.595 -0.8656 -0.0392 -1.1957
 4139TIP3    H212424   3.392   1.376   0.579 -1.1317 -0.3229  1.3048
 4140TIP3   OH212425   5.102   3.261   0.944  0.4718  0.4152 -0.4229
 4140TIP3    H112426   5.045   3.307   1.006 -1.3420 -1.8962 -0.2492
 4140TIP3    H212427   5.044   3.201   0.898  2.5565 -1.1329 -1.1885
 4141TIP3   OH212428   3.341   0.815   3.387  0.7018 -0.1215  0.1778
 4141TIP3    H112429   3.422   0.778   3.423  1.5224  1.0062 -0.4523
 4141TIP3    H212430   3.340   0.784   3.296  0.3423 -0.2428  0.2223
 4142TIP3   OH212431   6.226   1.507   4.340 -0.5704  0.2421 -0.1178
 4142TIP3    H112432   6.216   1.412   4.346  1.4976 -0.0477 -0.6063
 4142TIP3    H212433   6.245   1.535   4.429  0.5361 -0.0625 -0.2426
 4143TIP3   OH212434   6.051   5.141   2.308  0.3938 -0.0477  0.6920
 4143TIP3    H112435   5.993   5.214   2.287  0.5566 -0.5588 -1.8600
 4143TIP3    H212436   6.014   5.103   2.389 -1.0830  1.3792  0.7268
 4144TIP3   OH212437   4.809   3.551   4.090 -0.9043 -0.8006 -0.3062
 4144TIP3    H112438   4.867   3.565   4.016  1.1991  1.1027  1.5257
 4144TIP3    H212439   4.833   3.464   4.124 -0.6006 -0.9032 -0.7851
 4145TIP3   OH212440   4.861   4.253   3.301 -0.1154 -0.3036  0.1062
 4145TIP3    H112441   4.823   4.201   3.230  1.4570 -1.3435 -0.0209
 4145TIP3    H212442   4.788   4.307   3.333 -1.2263 -0.9215 -1.2763
 4146TIP3   OH212443   6.134   3.355   5.127 -0.1896 -0.3000  0.1605
 4146TIP3    H112444   6.123   3.425   5.062  1.1701 -0.3307 -0.1332
 4146TIP3    H212445   6.220   3.319   5.108  1.0253  0.8111  3.0807
 4147TIP3   OH212446   2.112   2.199   1.240 -0.7056  0.0648 -0.2481
 4147TIP3    H112447   2.049   2.155   1.297 -1.9081  0.5723 -1.1589
 4147TIP3    H212448   2.186   2.138   1.235 -1.9145 -1.4169 -0.6864
 4148TIP3   OH212449   3.355   1.255   0.880  0.4683 -0.3934  0.1959
 4148TIP3    H112450   3.276   1.210   0.850  0.5260 -0.2033 -0.2589
 4148TIP3    H212451   3.380   1.311   0.806 -0.1105  1.0543  1.0467
 4149TIP3   OH212452   3.808   0.115   3.672 -0.3591 -0.1645  1.1550
 4149TIP3    H112453   3.859   0.129   3.592 -1.5692 -3.3336 -0.3522
 4149TIP3    H212454   3.820   0.195   3.723  0.0924  2.2244 -2.3776
 4150TIP3   OH212455   3.610   3.135   1.606  0.4504  0.0695 -0.2210
 4150TIP3    H112456   3.522   3.139   1.643  0.6177  2.1241  0.0986
 4150TIP3    H212457   3.598   3.105   1.516 -0.9216  2.6210 -0.9844
 4151TIP3   OH212458   0.425   0.099   3.092 -0.3219  0.1273 -0.3140
 4151TIP3    H112459   0.472   0.026   3.052 -0.2399  0.1781 -0.3106
 4151TIP3    H212460   0.428   0.081   3.186  2.5270  1.7686  0.0155
 4152TIP3   OH212461   0.666   0.684   1.462  0.0061  0.1073  0.9946
 4152TIP3    H112462   0.650   0.778   1.476 -0.2419  0.3492 -0.7898
 4152TIP3    H212463   0.758   0.679   1.437 -0.0831 -0.0756  0.7016
 4153TIP3   OH212464   3.114   0.372   3.842 -0.0316  0.1862 -0.0108
 4153TIP3    H112465   3.110   0.459   3.801  0.5537  0.0432 -0.3760
 4153TIP3    H212466   3.150   0.389   3.929  1.7060  0.1214 -0.6814
 4154TIP3   OH212467   3.935   1.966   2.094 -0.1508  0.3295  0.2016
 4154TIP3    H112468   3.846   1.999   2.095  0.3634  1.8142 -0.0099
 4154TIP3    H212469   3.985   2.029   2.146  0.5698 -1.1545  1.3861
 4155TIP3   OH212470   3.787   1.634   4.145 -0.0403 -0.5820 -0.4436
 4155TIP3    H112471   3.862   1.582   4.116 -0.0524  0.4675 -2.5378
 4155TIP3    H212472   3.749   1.668   4.064 -1.0950  1.2069  0.7362
 4156TIP3   OH212473   3.442   1.189   3.963  0.1596 -0.1145 -0.0587
 4156TIP3    H112474   3.508   1.247   3.923  1.8044 -0.7046  1.6419
 4156TIP3    H212475   3.379   1.248   4.004  0.2924  0.4618 -0.6627
 4157TIP3   OH212476   3.315   5.564   0.234 -0.0122 -0.3555 -0.1543
 4157TIP3    H112477   3.340   5.638   0.289  1.5378 -0.6619 -0.3848
 4157TIP3    H212478   3.350   5.585   0.148  0.0031 -1.1174 -0.3442
 4158TIP3   OH212479   0.057   3.011   1.565 -0.3426  0.2920  0.0789
 4158TIP3    H112480   0.144   3.019   1.526  0.2132  0.2843  1.2910
 4158TIP3    H212481   0.026   3.101   1.576 -0.0281  0.3293  0.6572
 4159TIP3   OH212482   2.126   3.780   1.023  0.1077  0.1182  0.0408
 4159TIP3    H112483   2.124   3.724   0.945  1.1810  1.1269 -0.7418
 4159TIP3    H212484   2.197   3.842   1.007  0.1902  0.5137  1.7251
 4160TIP3   OH212485   0.117   3.971   3.429 -0.2595 -0.0241  0.0680
 4160TIP3    H112486   0.101   3.913   3.503  0.8423 -1.0391 -0.4640
 4160TIP3    H212487   0.181   4.034   3.461 -0.8249  0.3968  0.3881
 4161TIP3   OH212488   1.468   4.078   4.529 -0.9136 -0.6805 -0.0527
 4161TIP3    H112489   1.444   4.033   4.610  2.2515  1.2240  2.1759
 4161TIP3    H212490   1.535   4.022   4.490  0.8749  0.5027  1.1685
 4162TIP3   OH212491   0.258   1.508   0.303  0.1346  0.4984 -0.9371
 4162TIP3    H112492   0.269   1.413   0.296 -0.5423  0.1303  1.8800
 4162TIP3    H212493   0.333   1.544   0.255  1.6375 -1.5209 -0.2582
 4163TIP3   OH212494   5.268   1.979   1.088 -0.5568  0.2881 -0.5106
 4163TIP3    H112495   5.192   1.922   1.104  0.5834 -1.1930 -0.0967
 4163TIP3    H212496   5.265   1.998   0.994 -0.6294 -1.0102 -0.7947
 4164TIP3   OH212497   5.060   5.918   0.548 -0.2076 -0.2551 -0.0260
 4164TIP3    H112498   5.012   5.840   0.521 -1.2070  0.9868 -2.1144
 4164TIP3    H212499   5.152   5.890   0.549 -0.6559 -1.7959  0.6681
 4165TIP3   OH212500   5.313   3.724   1.903 -0.2916  0.2008  0.4697
 4165TIP3    H112501   5.396   3.684   1.927 -0.3037  1.0014  2.0091
 4165TIP3    H212502   5.254   3.651   1.886  0.4401 -0.3854  0.4615
 4166TIP3   OH212503   4.796   2.543   4.946 -0.1354 -0.3480  0.6857
 4166TIP3    H112504   4.790   2.523   5.039 -0.7348 -0.1631  0.6876
 4166TIP3    H212505   4.890   2.544   4.928  0.0482  0.8129  1.5515
 4167TIP3   OH212506   2.720   2.272   0.316 -0.5055 -0.8546 -0.3497
 4167TIP3    H112507   2.754   2.198   0.367 -0.4471 -1.5409 -1.3581
 4167TIP3    H212508   2.770   2.348   0.347 -0.2217 -1.3199  0.3523
 4168TIP3   OH212509   2.887   2.211   1.777 -0.1432  0.4313 -0.2783
 4168TIP3    H112510   2.824   2.178   1.713 -1.2306 -1.5718  1.6803
 4168TIP3    H212511   2.879   2.306   1.773 -1.0149  0.3030 -2.2517
 4169TIP3   OH212512   1.264   1.761   2.753 -0.0639 -0.0282 -0.4551
 4169TIP3    H112513   1.232   1.678   2.715 -0.1466 -0.1527 -0.1132
 4169TIP3    H212514   1.291   1.738   2.842 -1.3236  0.5781  0.1000
 4170TIP3   OH212515   0.304   3.789   4.637 -0.1457  0.2511 -0.1343
 4170TIP3    H112516   0.274   3.860   4.693  1.0454 -0.2694  1.2356
 4170TIP3    H212517   0.224   3.746   4.607 -0.8669  1.9273 -0.7168
 4171TIP3   OH212518   5.671   0.578   1.065 -0.4624 -0.0964 -0.1676
 4171TIP3    H112519   5.647   0.488   1.044 -2.1981  0.2961 -0.0217
 4171TIP3    H212520   5.627   0.631   0.999 -0.0277  0.6890  0.1571
 4172TIP3   OH212521   5.774   1.883   4.927 -0.4233  0.1889 -0.3532
 4172TIP3    H112522   5.723   1.889   4.846 -0.7161  1.2949 -0.1005
 4172TIP3    H212523   5.709   1.888   4.997 -0.0051  1.6537 -0.0284
 4173TIP3   OH212524   1.829   3.484   4.837 -0.1654 -0.5285  0.5185
 4173TIP3    H112525   1.902   3.446   4.886  0.8413  0.3084 -0.2916
 4173TIP3    H212526   1.827   3.576   4.863  0.6685  0.0433 -1.2815
 4174TIP3   OH212527   0.941   1.046   4.936  0.1855 -0.0178 -0.4380
 4174TIP3    H112528   0.871   1.111   4.930  1.2196  1.1100 -0.6362
 4174TIP3    H212529   0.995   1.075   5.009  2.3550  1.1034 -2.3720
 4175TIP3   OH212530   1.064   5.134   4.683  0.5093 -0.4770 -1.0995
 4175TIP3    H112531   1.107   5.099   4.761  0.7250  1.8436 -0.0988
 4175TIP3    H212532   1.057   5.059   4.624  0.5105 -2.2767  1.0532
 4176TIP3   OH212533   2.979   2.949   1.535 -0.3348  0.6420  0.1780
 4176TIP3    H112534   3.013   3.026   1.490 -1.4871 -0.1307 -2.1662
 4176TIP3    H212535   2.891   2.973   1.563  0.2995  1.0501  2.0059
 4177TIP3   OH212536   4.570   4.892   0.616  0.7340  0.3905 -0.4228
 4177TIP3    H112537   4.656   4.925   0.588  0.6766  0.9103 -0.0086
 4177TIP3    H212538   4.591   4.823   0.678  0.8622  1.1544  0.4021
 4178TIP3   OH212539   1.256   1.229   3.633  0.3638  0.0058 -0.5762
 4178TIP3    H112540   1.182   1.181   3.669 -0.5667  1.5344 -0.3458
 4178TIP3    H212541   1.318   1.235   3.706  1.0119 -1.7685 -0.9343
 4179TIP3   OH212542   1.318   5.810   2.360  0.1615 -0.5806  0.0539
 4179TIP3    H112543   1.341   5.833   2.270  0.4511 -0.1629  0.2292
 4179TIP3    H212544   1.224   5.792   2.357  0.3398 -1.4882 -0.5088
 4180TIP3   OH212545   1.619   0.113   4.760 -0.1045 -0.2719  0.8488
 4180TIP3    H112546   1.669   0.129   4.840  1.3311 -1.2252  0.1921
 4180TIP3    H212547   1.638   0.022   4.738 -2.4128 -0.7843  0.7120
 4181TIP3   OH212548   3.107   5.149   1.818 -0.4484 -0.1831  0.6510
 4181TIP3    H112549   3.183   5.115   1.865  0.8907  0.8875 -0.6511
 4181TIP3    H212550   3.117   5.116   1.729 -1.4641  0.0596  0.4344
 4182TIP3   OH212551   3.355   2.561   5.045  0.5197  0.2297 -0.0962
 4182TIP3    H112552   3.451   2.554   5.043  0.5812  0.6967  0.8947
 4182TIP3    H212553   3.328   2.501   5.114  0.1204  0.4082 -0.0976
 4183TIP3   OH212554   4.203   2.063   0.156  0.7612  0.1754 -0.1634
 4183TIP3    H112555   4.194   1.969   0.170  1.6563  0.1219  0.1196
 4183TIP3    H212556   4.217   2.073   0.062 -1.7435  0.2464 -0.5976
 4184TIP3   OH212557   4.679   3.055   0.160 -0.5784 -0.7328  0.4261
 4184TIP3    H112558   4.645   3.125   0.104 -0.1644 -1.1828 -0.3953
 4184TIP3    H212559   4.657   3.084   0.249 -0.1054  0.6136  0.1269
 4185TIP3   OH212560   2.189   1.884   0.357  0.0970  0.2402  0.7140
 4185TIP3    H112561   2.184   1.910   0.450  0.9352  0.6522  0.6571
 4185TIP3    H212562   2.279   1.853   0.346 -0.2854 -0.7223  0.2584
 4186TIP3   OH212563   2.772   4.987   0.972  0.0618  0.2188 -0.4602
 4186TIP3    H112564   2.840   5.048   0.942  0.4199 -0.4661 -1.0759
 4186TIP3    H212565   2.694   5.013   0.925 -0.0688  0.8907  0.1068
 4187TIP3   OH212566   4.200   2.205   2.955 -0.4262 -0.2886 -0.1376
 4187TIP3    H112567   4.274   2.145   2.943 -1.4070 -1.5060 -0.3004
 4187TIP3    H212568   4.141   2.158   3.014 -1.1181  0.6320 -0.0784
 4188TIP3   OH212569   3.283   3.443   3.316  0.1929  0.2893 -1.0447
 4188TIP3    H112570   3.303   3.423   3.224  0.2359 -1.5901 -0.6630
 4188TIP3    H212571   3.262   3.358   3.355  1.5454  0.8330  1.0300
 4189TIP3   OH212572   5.113   3.642   1.433  0.7639 -0.0594  0.0242
 4189TIP3    H112573   5.133   3.708   1.367  1.1908  0.6702  0.8607
 4189TIP3    H212574   5.060   3.577   1.387  0.8695  0.5404 -0.9725
 4190TIP3   OH212575   1.492   2.682   4.965 -0.4121 -0.0293  0.1230
 4190TIP3    H112576   1.435   2.749   4.927  0.5963  0.2539 -0.9681
 4190TIP3    H212577   1.573   2.688   4.914  0.8103 -0.0514  1.9750
 4191TIP3   OH212578   1.726   1.695   3.453 -0.4116 -0.1567  0.6610
 4191TIP3    H112579   1.648   1.682   3.400  0.9935  2.6017 -2.5356
 4191TIP3    H212580   1.795   1.648   3.405  0.8088  1.9960  0.1505
 4192TIP3   OH212581   5.603   4.107   3.787  0.1081  0.1725  0.4385
 4192TIP3    H112582   5.549   4.183   3.808 -0.6150  0.0392 -0.8248
 4192TIP3    H212583   5.592   4.048   3.861 -0.6536  0.5876  0.6638
 4193TIP3   OH212584   0.369   1.591   4.833 -1.0007  0.3980 -0.2733
 4193TIP3    H112585   0.334   1.542   4.759 -0.1476 -0.3765 -0.1770
 4193TIP3    H212586   0.302   1.656   4.852 -3.0578 -1.8638  0.7709
 4194TIP3   OH212587   1.293   3.988   1.449 -0.2201 -0.3751  0.4069
 4194TIP3    H112588   1.199   3.998   1.464 -0.4154  0.8515 -1.3451
 4194TIP3    H212589   1.320   3.921   1.512 -2.6397 -2.2998 -0.4514
 4195TIP3   OH212590   6.378   1.919   3.608 -0.0724  0.7962 -0.6004
 4195TIP3    H112591   6.357   1.915   3.701  2.7980  1.3162  0.1769
 4195TIP3    H212592   6.302   1.962   3.568 -1.2161  0.8898  1.5435
 4196TIP3   OH212593   5.476   1.792   4.077 -0.1091 -1.1502 -0.4058
 4196TIP3    H112594   5.426   1.753   4.148  0.1096 -2.4313 -0.9197
 4196TIP3    H212595   5.568   1.775   4.100  0.0362 -0.1527 -0.2124
 4197TIP3   OH212596   4.310   4.256   4.901 -0.3329  0.1445 -0.5980
 4197TIP3    H112597   4.260   4.307   4.837 -2.5277  0.1483  1.0212
 4197TIP3    H212598   4.386   4.312   4.922  0.1281  0.3860 -2.6880
 4198TIP3   OH212599   1.137   4.085   0.252  0.0464 -0.7546  0.2202
 4198TIP3    H112600   1.071   4.145   0.216  0.2451 -0.8993 -0.4019
 4198TIP3    H212601   1.122   4.086   0.346 -1.0070 -0.9685  0.0652
 4199TIP3   OH212602   2.844   4.061   0.235 -0.4971  0.2643 -0.1423
 4199TIP3    H112603   2.880   4.034   0.320  1.3133 -1.4144 -1.3506
 4199TIP3    H212604   2.901   4.133   0.207 -1.9695  1.8027  0.6290
 4200TIP3   OH212605   5.940   1.740   2.874  0.4512  0.0282 -0.1984
 4200TIP3    H112606   5.934   1.770   2.783  2.9570 -0.8002 -0.7167
 4200TIP3    H212607   5.907   1.650   2.871 -0.1606  0.2449 -0.1203
 4201TIP3   OH212608   2.085   4.062   2.638 -0.0078  0.1653 -0.4782
 4201TIP3    H112609   2.061   4.154   2.627  0.3663  0.2335 -0.7521
 4201TIP3    H212610   2.021   4.015   2.584 -0.8106  0.1822  0.4336
 4202TIP3   OH212611   2.840   0.227   5.209 -0.6080 -0.1103  0.4422
 4202TIP3    H112612   2.814   0.178   5.131 -0.1048 -0.8908  0.7561
 4202TIP3    H212613   2.821   0.318   5.188  0.4657 -0.1932 -0.9826
 4203TIP3   OH212614   4.050   1.913   0.369  0.1057  0.0284  0.2304
 4203TIP3    H112615   4.033   1.886   0.459  0.1443  0.6673  0.4341
 4203TIP3    H212616   3.970   1.959   0.342 -1.0448 -2.5005 -1.0205
 4204TIP3   OH212617   3.397   3.289   1.987 -0.7407  0.0775  0.0148
 4204TIP3    H112618   3.395   3.364   2.047 -0.2273 -1.0370  1.4938
 4204TIP3    H212619   3.383   3.213   2.043  0.5940 -1.1024 -1.1524
 4205TIP3   OH212620   3.074   3.779   1.335  0.0412 -0.0413 -0.0260
 4205TIP3    H112621   3.143   3.716   1.312 -0.1903  0.4999 -2.5220
 4205TIP3    H212622   3.076   3.843   1.264 -0.8900  1.8320  1.5530
 4206TIP3   OH212623   5.151   5.225   2.348 -0.6915 -0.7494  0.4367
 4206TIP3    H112624   5.186   5.293   2.406 -0.6463  0.0755 -0.5199
 4206TIP3    H212625   5.226   5.198   2.295 -1.7855  3.1052 -3.6874
 4207TIP3   OH212626   5.386   5.587   2.728 -0.0091 -0.1429  0.6242
 4207TIP3    H112627   5.388   5.510   2.784  0.3312  0.7445  1.8766
 4207TIP3    H212628   5.325   5.564   2.657 -0.2769 -1.3719  1.2314
 4208TIP3   OH212629   3.210   2.842   0.250  0.2705  0.2479 -0.6574
 4208TIP3    H112630   3.206   2.770   0.187 -1.4069  0.3005 -0.6422
 4208TIP3    H212631   3.177   2.805   0.332 -2.1374  1.3605 -1.0306
 4209TIP3   OH212632   0.240   5.931   3.767 -0.9143 -0.4197  0.0369
 4209TIP3    H112633   0.271   5.950   3.855 -0.6847 -2.6648  0.4850
 4209TIP3    H212634   0.145   5.925   3.775 -0.8121 -1.9064  0.4475
 4210TIP3   OH212635   2.173   1.915   3.500 -0.2520 -1.0463  0.3126
 4210TIP3    H112636   2.093   1.920   3.553  0.2878  0.3469  1.0531
 4210TIP3    H212637   2.179   2.001   3.459  2.5482  0.1244  2.8500
 4211TIP3   OH212638   3.239   1.384   0.476  0.7165  0.4595  0.1503
 4211TIP3    H112639   3.236   1.288   0.481 -1.6789  0.4873  0.3162
 4211TIP3    H212640   3.169   1.413   0.534  0.8506  2.2947 -0.5498
 4212TIP3   OH212641   3.999   0.039   4.205  0.5732 -0.0907 -0.1806
 4212TIP3    H112642   4.018   0.117   4.258  0.7578 -0.7828  0.7931
 4212TIP3    H212643   4.046  -0.032   4.249  2.9597 -0.2508 -2.7546
 4213TIP3   OH212644   1.394   3.700   1.349  0.2753  0.1403 -0.4163
 4213TIP3    H112645   1.433   3.747   1.275  1.3492 -0.2115 -0.0912
 4213TIP3    H212646   1.414   3.608   1.332 -1.3353 -0.1715 -0.7644
 4214TIP3   OH212647   2.372   4.885   3.636 -0.3733  0.5132  0.7277
 4214TIP3    H112648   2.374   4.876   3.731  1.7179 -0.8422  0.6361
 4214TIP3    H212649   2.329   4.805   3.605  1.8824 -0.6951  0.4923
 4215TIP3   OH212650   1.600   2.267   3.086 -0.4004 -0.1853  0.3083
 4215TIP3    H112651   1.626   2.351   3.124 -1.2873  0.1439  0.2213
 4215TIP3    H212652   1.587   2.285   2.993 -1.1747 -0.2675  0.3913
 4216TIP3   OH212653   3.794   1.379   0.359  0.4342 -0.0504 -0.0995
 4216TIP3    H112654   3.822   1.449   0.300  1.1599  1.3396  1.8002
 4216TIP3    H212655   3.787   1.421   0.445  1.3489 -2.3915  1.2138
 4217TIP3   OH212656   4.474   2.356   2.011  0.2263  0.4952  0.0421
 4217TIP3    H112657   4.529   2.398   2.077  0.8728  0.4810 -0.4759
 4217TIP3    H212658   4.436   2.281   2.056 -3.0218  2.9361  1.7957
 4218TIP3   OH212659   1.238   1.765   3.044  0.0255  0.5013  0.1499
 4218TIP3    H112660   1.167   1.807   3.093 -2.5256 -1.1787 -1.8036
 4218TIP3    H212661   1.284   1.713   3.109 -2.4617 -0.7079  1.1023
 4219TIP3   OH212662   4.661   1.152   0.411  0.2182 -0.3271  0.1041
 4219TIP3    H112663   4.698   1.164   0.324 -0.3617  1.0713  0.0164
 4219TIP3    H212664   4.725   1.190   0.470  0.6776 -1.4062  0.3183
 4220TIP3   OH212665   0.515   4.975   3.229 -0.3557  0.6137 -0.1549
 4220TIP3    H112666   0.607   4.982   3.253 -0.4338 -1.1046  0.7840
 4220TIP3    H212667   0.486   4.892   3.267 -1.9158  0.4062 -1.6770
 4221TIP3   OH212668   0.778   5.779   3.005 -0.0701  0.7328  0.1721
 4221TIP3    H112669   0.684   5.782   2.985  0.0531 -0.1484 -0.6650
 4221TIP3    H212670   0.784   5.806   3.096 -0.7874  4.0839 -0.6443
 4222TIP3   OH212671   4.230   2.658   0.992 -0.1941 -0.2639  0.2777
 4222TIP3    H112672   4.235   2.584   0.931  1.2072  0.0553 -0.0282
 4222TIP3    H212673   4.143   2.651   1.030 -1.7551  0.4088 -2.8770
 4223TIP3   OH212674   4.267   5.315   1.582  0.1851 -0.0309  0.0230
 4223TIP3    H112675   4.248   5.247   1.517 -0.4082  0.2206 -0.0742
 4223TIP3    H212676   4.307   5.385   1.531 -0.9814  0.4817 -0.2170
 4224TIP3   OH212677   1.946   2.403   3.017  0.2802  0.3693  0.1693
 4224TIP3    H112678   1.929   2.314   2.988 -0.2465  0.2936  0.6673
 4224TIP3    H212679   1.872   2.454   2.983 -0.5115  0.2223  1.5577
 4225TIP3   OH212680   2.069   0.557   4.989 -0.3995  0.7413  0.1655
 4225TIP3    H112681   2.090   0.629   5.049 -0.1268  1.4741 -0.7800
 4225TIP3    H212682   2.073   0.597   4.902  1.5391 -0.8127 -0.5343
 4226TIP3   OH212683   3.689   3.803   3.790 -0.2841 -0.1041 -0.0259
 4226TIP3    H112684   3.770   3.799   3.841  0.3124 -0.1991 -0.9739
 4226TIP3    H212685   3.693   3.886   3.745 -0.7300 -0.1016 -0.0624
 4227TIP3   OH212686   1.946   4.188   0.500 -0.4660  0.2259 -0.2257
 4227TIP3    H112687   1.876   4.122   0.498  0.6583 -1.0289  0.5935
 4227TIP3    H212688   1.995   4.172   0.419  0.4436 -0.6783  0.4888
 4228TIP3   OH212689   3.812   3.569   2.955 -0.5893  0.1760  0.4662
 4228TIP3    H112690   3.735   3.514   2.970  1.4759 -3.0184  0.2629
 4228TIP3    H212691   3.855   3.574   3.040 -0.3393  0.9063  0.3073
 4229TIP3   OH212692   4.683   3.771   4.722  0.4103 -0.2999 -0.2317
 4229TIP3    H112693   4.625   3.742   4.792  0.1897  0.2534 -0.1804
 4229TIP3    H212694   4.740   3.835   4.763  1.4564 -1.2647 -0.1422
 4230TIP3   OH212695   3.036   5.499   0.278  0.3458 -0.0433  0.0111
 4230TIP3    H112696   3.131   5.496   0.265  0.6629  0.9502  1.7955
 4230TIP3    H212697   3.022   5.574   0.336 -1.5071 -0.3309 -0.0092
 4231TIP3   OH212698   6.297   4.024   4.971  0.1328  0.2682 -0.2097
 4231TIP3    H112699   6.217   4.030   5.023  0.5065  0.4354  0.3538
 4231TIP3    H212700   6.285   4.090   4.902 -0.5625 -0.2778 -0.6201
 4232TIP3   OH212701   4.130   2.957   0.119  0.3057  0.0780 -0.3967
 4232TIP3    H112702   4.088   2.968   0.205  0.4646  0.1957 -0.3336
 4232TIP3    H212703   4.057   2.947   0.058  0.2088 -1.2123 -0.0990
 4233TIP3   OH212704   6.190   4.212   4.818 -0.5669 -0.0474 -0.7066
 4233TIP3    H112705   6.162   4.200   4.728  2.2026  0.0237 -1.6645
 4233TIP3    H212706   6.228   4.300   4.820  0.7797 -0.6183  0.1175
 4234TIP3   OH212707   5.599   4.459   1.157  0.6884 -0.5171 -0.3045
 4234TIP3    H112708   5.652   4.389   1.196  0.7581 -0.4609 -0.2978
 4234TIP3    H212709   5.554   4.499   1.232 -0.8208 -1.7639 -0.4935
 4235TIP3   OH212710   1.589   1.142   1.746  0.8985 -0.7898  0.3163
 4235TIP3    H112711   1.621   1.113   1.660 -1.8193  0.1297 -1.1355
 4235TIP3    H212712   1.516   1.083   1.765 -1.4397  1.7050 -0.2654
 4236TIP3   OH212713   1.410   5.031   5.154  0.0468  0.1642 -0.3041
 4236TIP3    H112714   1.438   5.006   5.242  0.3371  1.2089 -0.0871
 4236TIP3    H212715   1.315   5.022   5.155  0.2212 -2.2338 -0.6681
 4237TIP3   OH212716   6.164   5.053   0.923 -0.5442  0.3531 -0.7140
 4237TIP3    H112717   6.148   5.033   0.831 -0.6695 -1.1434 -0.3898
 4237TIP3    H212718   6.244   5.005   0.945  1.6386  3.5827 -0.9352
 4238TIP3   OH212719   5.711   0.753   2.495 -0.3741  0.5656 -0.2671
 4238TIP3    H112720   5.621   0.785   2.505 -0.3252  1.0300 -1.1923
 4238TIP3    H212721   5.749   0.808   2.426  1.0856  1.3455  1.0983
 4239TIP3   OH212722   5.713   3.643   1.277  0.5080  0.0548 -0.3335
 4239TIP3    H112723   5.705   3.590   1.356 -0.2030  2.0733  1.0220
 4239TIP3    H212724   5.627   3.684   1.267  0.5998 -0.1178 -2.1633
 4240TIP3   OH212725   5.938   2.810   0.818 -0.1460 -0.4179 -0.1266
 4240TIP3    H112726   6.017   2.798   0.871  0.6158 -2.1633 -1.5477
 4240TIP3    H212727   5.876   2.853   0.877  1.0815 -1.1109  1.7649
 4241TIP3   OH212728   1.515   0.646   2.566 -0.0430 -0.1070  0.3889
 4241TIP3    H112729   1.444   0.708   2.582 -0.4343 -0.5613  0.4131
 4241TIP3    H212730   1.564   0.684   2.493 -0.3592  0.1578  0.3135
 4242TIP3   OH212731   3.280   3.380   5.076  0.1069  0.2916 -0.0964
 4242TIP3    H112732   3.223   3.447   5.038 -0.0751  0.7423  0.9390
 4242TIP3    H212733   3.273   3.393   5.170  0.5331 -0.8158  0.1051
 4243TIP3   OH212734   3.020   4.280   2.838  0.0319  0.5811  0.0106
 4243TIP3    H112735   2.954   4.322   2.783  1.2419  0.8540 -1.2796
 4243TIP3    H212736   3.102   4.291   2.790  0.9791 -0.0070  1.4335
 4244TIP3   OH212737   4.902   1.131   0.553 -0.1788  0.1750  0.1082
 4244TIP3    H112738   4.910   1.082   0.471  0.3542 -0.5860  0.5955
 4244TIP3    H212739   4.936   1.071   0.620 -1.1638  0.5571  0.9709
 4245TIP3   OH212740   5.000   4.099   3.871 -0.5270 -0.4530 -0.2846
 4245TIP3    H112741   5.033   4.148   3.946 -1.2767 -1.7857  0.9713
 4245TIP3    H212742   4.905   4.114   3.874 -0.6824 -1.3901 -0.2973
 4246TIP3   OH212743   5.414   1.290   0.524  0.0302 -0.3736 -0.6186
 4246TIP3    H112744   5.423   1.299   0.429  1.6271  0.6431 -0.4228
 4246TIP3    H212745   5.504   1.299   0.557 -0.6875  1.2082  1.1052
 4247TIP3   OH212746   4.888   1.622   0.317  0.0590 -0.4497  0.2662
 4247TIP3    H112747   4.891   1.700   0.262  0.4602  0.4790  1.5489
 4247TIP3    H212748   4.801   1.584   0.301  0.5063 -0.7400 -1.6608
 4248TIP3   OH212749   1.790   2.488   0.215  0.5750  0.0669 -0.1352
 4248TIP3    H112750   1.884   2.471   0.207  0.6760  0.5547  0.0241
 4248TIP3    H212751   1.750   2.421   0.159  1.0855  0.8220 -1.4549
 4249TIP3   OH212752   5.791   0.906   5.072  0.1302  0.1305 -0.0687
 4249TIP3    H112753   5.798   0.813   5.053  1.9025  0.0179  0.9098
 4249TIP3    H212754   5.767   0.910   5.164  0.0986  0.6435 -0.0972
 4250TIP3   OH212755   0.996   4.246   1.177 -0.9783 -0.3842 -0.0964
 4250TIP3    H112756   0.947   4.324   1.151  0.7936  1.3721  1.4792
 4250TIP3    H212757   0.945   4.209   1.249 -1.5743 -0.3999 -0.5225
 4251TIP3   OH212758   2.433   2.198   4.507 -0.1134 -0.4495  0.2531
 4251TIP3    H112759   2.454   2.224   4.417 -0.9164 -1.2606 -0.1914
 4251TIP3    H212760   2.514   2.208   4.555  0.2527  0.3055 -0.4950
 4252TIP3   OH212761   5.808  -0.009   0.521 -0.5748  0.3520  0.3896
 4252TIP3    H112762   5.902   0.004   0.523 -0.5966  0.5399  0.2307
 4252TIP3    H212763   5.772   0.074   0.553 -0.6890  0.3200  0.3454
 4253TIP3   OH212764   4.815   5.059   1.628  0.5971  0.1958 -0.0416
 4253TIP3    H112765   4.802   4.967   1.649 -0.3857  0.4940  0.7525
 4253TIP3    H212766   4.774   5.106   1.701 -0.1041  1.2670 -1.0896
 4254TIP3   OH212767   6.154   1.404   2.987  0.3980 -0.3278 -0.5714
 4254TIP3    H112768   6.085   1.428   3.049  0.2995 -0.5105 -0.6102
 4254TIP3    H212769   6.235   1.437   3.026  0.7754 -2.9976  1.1244
 4255TIP3   OH212770   0.058   2.501   2.581  0.1596 -0.1316 -0.0248
 4255TIP3    H112771  -0.018   2.443   2.583  0.1606 -0.1695 -0.7615
 4255TIP3    H212772   0.038   2.569   2.646 -1.4438  1.0139 -1.6126
 4256TIP3   OH212773   2.752   4.945   5.091 -0.2606 -0.3255 -0.5282
 4256TIP3    H112774   2.763   5.017   5.153  1.0812 -1.1135  0.2008
 4256TIP3    H212775   2.681   4.893   5.127 -0.7192  0.2050 -0.6513
 4257TIP3   OH212776   2.092   4.672   3.072  0.0617  0.2067  0.6501
 4257TIP3    H112777   2.165   4.613   3.091 -0.6433 -0.4319  1.4774
 4257TIP3    H212778   2.036   4.665   3.149 -2.3775 -1.6126 -1.1505
 4258TIP3   OH212779   5.110   5.588   4.754  0.0626 -0.3722 -0.4657
 4258TIP3    H112780   5.174   5.592   4.826  2.1556 -0.2423 -2.2441
 4258TIP3    H212781   5.143   5.519   4.696  0.1827  1.5571 -2.8353
 4259TIP3   OH212782   4.688   1.273   4.451 -0.1809  0.1818 -0.0895
 4259TIP3    H112783   4.675   1.280   4.545 -0.1823 -0.6977 -0.0154
 4259TIP3    H212784   4.783   1.281   4.439 -0.2609  1.2838 -0.1233
 4260TIP3   OH212785   2.786   2.970   1.893  0.6718 -0.6827  1.1281
 4260TIP3    H112786   2.697   2.937   1.881  0.9869 -0.9122 -0.9723
 4260TIP3    H212787   2.819   2.984   1.805  3.1323 -1.6691  1.7973
 4261TIP3   OH212788   5.281   0.278   4.368  0.4625 -0.0410 -0.1181
 4261TIP3    H112789   5.224   0.254   4.440  0.0824  0.4598 -0.2498
 4261TIP3    H212790   5.315   0.194   4.335  0.1830 -0.3053  0.2671
 4262TIP3   OH212791   0.418   2.012   0.470  0.0146  0.0109  0.7104
 4262TIP3    H112792   0.355   2.018   0.541  1.5814  2.9340  2.0151
 4262TIP3    H212793   0.398   2.086   0.413  0.8069 -0.3791 -0.1124
 4263TIP3   OH212794   2.944   2.890   4.629 -0.4340  0.5551  0.5499
 4263TIP3    H112795   3.015   2.898   4.693 -0.1070 -1.7063  0.5571
 4263TIP3    H212796   2.978   2.829   4.563 -1.6243  1.0303 -0.5451
 4264TIP3   OH212797   6.171   0.348   0.652 -0.3911 -0.1313 -0.1602
 4264TIP3    H112798   6.181   0.443   0.644 -0.6300  0.0618  1.4732
 4264TIP3    H212799   6.231   0.312   0.587 -0.5239  1.1327 -1.0193
 4265TIP3   OH212800   1.196   5.596   3.460 -0.5473 -0.1020  0.0464
 4265TIP3    H112801   1.232   5.651   3.530 -1.7200 -0.2736  0.8148
 4265TIP3    H212802   1.270   5.580   3.402  1.1475 -1.9496  2.4843
 4266TIP3   OH212803   3.936   1.036   2.671 -0.1940  0.4515  0.7734
 4266TIP3    H112804   3.895   1.110   2.716  3.0328  0.5746  4.0275
 4266TIP3    H212805   3.873   0.965   2.679 -2.7337  2.3078 -1.0973
 4267TIP3   OH212806   0.298   5.101   1.311 -0.3789  0.0583  0.5883
 4267TIP3    H112807   0.251   5.126   1.232 -0.6322  2.9253  1.5056
 4267TIP3    H212808   0.378   5.059   1.279 -1.3854 -0.6893 -1.0896
 4268TIP3   OH212809   0.873   2.367   1.896  0.6540  0.5995  0.1702
 4268TIP3    H112810   0.877   2.343   1.988  1.1743  0.5151  0.1307
 4268TIP3    H212811   0.782   2.392   1.881  0.9418  2.4366  1.1729
 4269TIP3   OH212812   6.259   4.911   2.257 -0.0483 -0.4274 -0.2408
 4269TIP3    H112813   6.172   4.938   2.286 -0.2191 -1.1103 -0.0913
 4269TIP3    H212814   6.280   4.836   2.313  0.2344 -0.8547 -0.9124
 4270TIP3   OH212815   2.431   4.486   2.860 -0.3420  0.3089  0.0758
 4270TIP3    H112816   2.415   4.513   2.951  1.4683  1.6887  0.0452
 4270TIP3    H212817   2.392   4.557   2.808 -2.1829 -0.9165 -0.3246
 4271TIP3   OH212818   3.751   1.996   1.777  0.1411  0.3993  0.1740
 4271TIP3    H112819   3.725   2.028   1.863 -1.2722  1.7246 -0.7010
 4271TIP3    H212820   3.797   2.070   1.737  1.3504 -0.4158  0.0037
 4272TIP3   OH212821   5.931   0.330   2.483 -0.3268  0.2722  0.3917
 4272TIP3    H112822   5.905   0.285   2.562 -1.5996  0.8505  0.3209
 4272TIP3    H212823   6.020   0.299   2.466 -1.3228 -2.6729  0.0012
 4273TIP3   OH212824   0.610   4.386   4.306  0.6374 -0.3816 -0.4860
 4273TIP3    H112825   0.669   4.419   4.239  1.3341 -1.6226 -0.5161
 4273TIP3    H212826   0.662   4.383   4.385 -0.4003  1.8232  0.3685
 4274TIP3   OH212827   3.383   2.660   2.410  0.4475 -0.0613  0.3731
 4274TIP3    H112828   3.440   2.733   2.433  0.9683 -0.3269 -0.0371
 4274TIP3    H212829   3.304   2.701   2.376  1.0924  0.3401 -0.7192
 4275TIP3   OH212830   5.559   2.598   0.386  0.6377  0.2754 -0.3038
 4275TIP3    H112831   5.466   2.620   0.387  0.8678  1.2939 -0.4044
 4275TIP3    H212832   5.600   2.669   0.337  1.8075  1.3426  2.0151
 4276TIP3   OH212833   3.697   4.776   0.092 -0.2828 -0.3744  0.1626
 4276TIP3    H112834   3.726   4.792   0.002  2.9028 -0.5052  1.0683
 4276TIP3    H212835   3.737   4.692   0.116  1.0891  0.8335  2.4752
 4277TIP3   OH212836   2.405   0.509   1.018  0.0797 -0.0283 -0.2804
 4277TIP3    H112837   2.413   0.458   1.098 -0.4437 -0.2374 -0.3571
 4277TIP3    H212838   2.382   0.445   0.951 -0.6326  0.3086 -0.3670
 4278TIP3   OH212839   0.911   1.541   3.604  0.0927 -0.4097  0.2067
 4278TIP3    H112840   0.834   1.487   3.582  0.5571 -1.5034  1.1445
 4278TIP3    H212841   0.878   1.631   3.601 -0.7343 -0.7185 -1.2972
 4279TIP3   OH212842   4.139   4.815   1.644  0.8875 -0.1080 -0.0373
 4279TIP3    H112843   4.098   4.784   1.725  0.1870  1.5810  0.3011
 4279TIP3    H212844   4.211   4.754   1.629  0.9066 -0.5953  1.7598
 4280TIP3   OH212845   3.672   2.150   1.474 -0.5424  0.3709  0.2429
 4280TIP3    H112846   3.634   2.186   1.394 -1.7469 -0.8827  0.2183
 4280TIP3    H212847   3.730   2.219   1.506  0.3311  0.7153 -1.9379
 4281TIP3   OH212848   3.024   2.265   0.311 -0.4193  0.4635 -0.4596
 4281TIP3    H112849   3.028   2.334   0.245  2.7555  2.8086  1.8651
 4281TIP3    H212850   3.001   2.310   0.392  0.1153 -1.4940  0.8498
 4282TIP3   OH212851   1.804   0.741   0.443 -0.4814 -0.3608  0.2902
 4282TIP3    H112852   1.813   0.826   0.400 -1.6751  0.1339  0.9411
 4282TIP3    H212853   1.736   0.696   0.393  0.8277 -1.3626 -0.6505
 4283TIP3   OH212854   0.121   1.881   3.883 -0.2601 -0.7467 -0.0528
 4283TIP3    H112855   0.209   1.844   3.893 -0.2372 -0.5856  0.3668
 4283TIP3    H212856   0.132   1.974   3.899 -0.4536 -0.6766 -0.3268
 4284TIP3   OH212857   2.611   0.926   0.009 -0.8019 -0.0582 -0.1053
 4284TIP3    H112858   2.704   0.945   0.001 -0.8776  1.8084  2.2418
 4284TIP3    H212859   2.607   0.832   0.026  0.9029  0.1824  2.0151
 4285TIP3   OH212860   2.961   1.934   1.289 -0.3550  0.0977  0.0470
 4285TIP3    H112861   2.939   1.904   1.377  2.2406 -0.0042  0.7684
 4285TIP3    H212862   2.968   1.854   1.237  0.0874 -0.0185  0.2806
 4286TIP3   OH212863   0.056   2.174   4.699 -0.3572  0.8383  0.8530
 4286TIP3    H112864  -0.036   2.202   4.701 -0.3693  0.8831 -0.0283
 4286TIP3    H212865   0.068   2.137   4.612  0.0767 -0.5099  1.4543
 4287TIP3   OH212866   5.525   4.028   4.057  0.7360 -0.1696 -0.1853
 4287TIP3    H112867   5.488   4.075   4.131 -0.1707 -0.5119 -0.4073
 4287TIP3    H212868   5.619   4.044   4.062  0.5941  0.4340  0.5929
 4288TIP3   OH212869   2.855   3.079   4.818  0.9734 -0.6164  0.5107
 4288TIP3    H112870   2.793   3.144   4.786  1.1650 -0.7737 -0.2039
 4288TIP3    H212871   2.867   3.019   4.744  1.7208 -0.7728  0.7496
 4289TIP3   OH212872   1.379   0.973   1.771 -0.0143  0.1103 -0.1541
 4289TIP3    H112873   1.393   0.922   1.851  0.3061  0.4717  0.0250
 4289TIP3    H212874   1.340   0.911   1.709 -1.8236  0.2327  0.7943
 4290TIP3   OH212875   3.421   4.854   4.376  0.1914 -0.0558 -0.7721
 4290TIP3    H112876   3.362   4.880   4.448  1.0157  0.2758 -0.2043
 4290TIP3    H212877   3.508   4.881   4.405  0.4790  0.5652 -2.1303
 4291TIP3   OH212878   2.517   2.478   2.476  0.0487  0.0829  0.0758
 4291TIP3    H112879   2.513   2.385   2.452 -0.7069 -0.2985  1.5875
 4291TIP3    H212880   2.482   2.482   2.565  0.7756  1.7249  0.3246
 4292TIP3   OH212881   4.965   1.834   1.433  0.1175 -0.3666 -0.3631
 4292TIP3    H112882   4.882   1.858   1.474  0.4660  0.9091 -0.3765
 4292TIP3    H212883   4.984   1.746   1.467 -0.3444  0.0455  1.0209
 4293TIP3   OH212884   3.189   3.932   3.757 -0.0563 -0.0842 -0.4815
 4293TIP3    H112885   3.208   4.024   3.774 -1.3237  0.2888 -0.9917
 4293TIP3    H212886   3.268   3.899   3.714  1.7865 -0.1292  2.6172
 4294TIP3   OH212887   2.295   1.919   0.023 -0.1181  0.0674  0.2412
 4294TIP3    H112888   2.341   1.988  -0.025 -0.2679  1.4683  1.9810
 4294TIP3    H212889   2.350   1.903   0.100 -0.7044 -0.8944  0.4724
 4295TIP3   OH212890   5.492   3.735   3.704 -0.1843  0.2747  0.3522
 4295TIP3    H112891   5.546   3.754   3.781 -0.4260  1.9697  0.1439
 4295TIP3    H212892   5.546   3.761   3.630 -1.0269  1.4591  0.1137
 4296TIP3   OH212893   5.366   3.647   3.081 -0.2002  0.7380  0.1832
 4296TIP3    H112894   5.348   3.718   3.019 -2.0474  0.9754  0.9384
 4296TIP3    H212895   5.341   3.682   3.166  2.2240  0.3844  1.1224
 4297TIP3   OH212896   3.809   2.089   3.831 -0.2915  0.1235  0.4203
 4297TIP3    H112897   3.886   2.097   3.888 -0.4389 -2.1016  0.9959
 4297TIP3    H212898   3.780   2.180   3.819  0.0265  0.7676  3.4940
 4298TIP3   OH212899   4.367   3.152   2.186  0.3996  0.5597  0.0358
 4298TIP3    H112900   4.379   3.065   2.224  1.3106 -0.2480 -1.9388
 4298TIP3    H212901   4.440   3.203   2.220  2.6499 -0.8315 -2.2970
 4299TIP3   OH212902   6.275   3.034   2.172 -0.1000 -0.0611  0.1231
 4299TIP3    H112903   6.286   2.989   2.256 -1.1930 -0.1980  0.2050
 4299TIP3    H212904   6.271   3.127   2.194 -1.9540 -0.1759  0.4257
 4300TIP3   OH212905   3.044   5.953   2.535  0.7619  0.2688  0.2786
 4300TIP3    H112906   2.961   5.996   2.556  0.0021 -0.2540 -1.4691
 4300TIP3    H212907   3.021   5.860   2.529  1.3523  0.1709 -0.6663
 4301TIP3   OH212908   0.760   1.593   1.455 -0.3882 -0.0559  0.1767
 4301TIP3    H112909   0.760   1.683   1.424 -0.2643  0.9442  2.8422
 4301TIP3    H212910   0.689   1.589   1.520  0.2970 -1.5680  0.9016
 4302TIP3   OH212911   2.765   4.875   0.667 -0.1829  0.4002  0.8034
 4302TIP3    H112912   2.769   4.795   0.615 -0.4080  0.5132  0.6084
 4302TIP3    H212913   2.780   4.846   0.757  1.5314  0.3801  0.5393
 4303TIP3   OH212914   2.007   1.275   2.090  0.2327  0.9654 -0.3623
 4303TIP3    H112915   1.946   1.246   2.157 -0.0190 -1.5741 -1.5829
 4303TIP3    H212916   1.957   1.272   2.008  1.5840  0.0340 -1.2127
 4304TIP3   OH212917   5.967   5.955   0.798  0.4772  0.3427 -0.5946
 4304TIP3    H112918   5.916   6.032   0.820 -0.7828 -0.3945 -0.8720
 4304TIP3    H212919   5.903   5.890   0.770  1.4510 -0.9785  0.0990
 4305TIP3   OH212920   1.232   4.557   2.512 -0.0132  0.1867  0.0821
 4305TIP3    H112921   1.159   4.547   2.452 -0.1350  0.2795  0.2148
 4305TIP3    H212922   1.306   4.580   2.456 -0.7076  3.1117  0.2013
 4306TIP3   OH212923   5.840   5.695   2.104 -0.4242 -0.5275 -0.1045
 4306TIP3    H112924   5.916   5.638   2.119  0.1980  0.0750 -0.9026
 4306TIP3    H212925   5.839   5.755   2.179 -1.2981 -1.7629  0.9416
 4307TIP3   OH212926   1.270   4.281   0.795 -0.6249  0.7541 -0.1288
 4307TIP3    H112927   1.276   4.246   0.706  0.2917  2.2043 -0.6690
 4307TIP3    H212928   1.182   4.320   0.800 -0.7055  0.6030 -0.3611
 4308TIP3   OH212929   5.771   1.841   0.146  0.4859 -0.1856  0.1931
 4308TIP3    H112930   5.774   1.777   0.217 -0.3520  0.3964  0.7684
 4308TIP3    H212931   5.745   1.790   0.069 -1.5960 -0.3376  0.9280
 4309TIP3   OH212932   1.858   3.376   4.202  0.2713  0.0871  0.5168
 4309TIP3    H112933   1.954   3.373   4.204  0.4303 -2.2048 -2.6747
 4309TIP3    H212934   1.833   3.385   4.294  3.5609 -2.2290  1.8629
 4310TIP3   OH212935   5.204   4.136   1.755 -0.0474 -0.2870  0.8136
 4310TIP3    H112936   5.227   4.044   1.746  0.1682 -0.3821  2.0938
 4310TIP3    H212937   5.116   4.143   1.717  0.5036 -0.6973 -0.6176
 4311TIP3   OH212938   2.917   5.028   0.025 -0.0491  0.1929  0.0357
 4311TIP3    H112939   2.835   5.011   0.071  1.4039 -1.6064  2.2230
 4311TIP3    H212940   2.965   5.088   0.083  0.8134 -0.1201 -0.3321
 4312TIP3   OH212941   1.294   0.295   1.043  0.5174  0.0977 -0.6868
 4312TIP3    H112942   1.390   0.303   1.050  0.2732  2.9895  0.4604
 4312TIP3    H212943   1.271   0.344   0.964 -0.0653 -0.4424 -0.8630
 4313TIP3   OH212944   1.546   1.833   1.073 -0.3345 -0.1493 -0.0568
 4313TIP3    H112945   1.536   1.746   1.111  0.0090 -0.4299 -0.5905
 4313TIP3    H212946   1.470   1.883   1.105 -1.0704 -0.9344 -0.5462
 4314TIP3   OH212947   3.456   2.636   2.040  0.1283 -0.4208  0.2034
 4314TIP3    H112948   3.465   2.563   2.101 -2.0915 -1.2842 -0.4086
 4314TIP3    H212949   3.403   2.601   1.969 -0.2530  1.5530 -0.5329
 4315TIP3   OH212950   4.181   5.230   3.525  0.4172  0.2428  0.3722
 4315TIP3    H112951   4.121   5.216   3.452  2.2711 -3.2695 -0.7050
 4315TIP3    H212952   4.210   5.321   3.517 -1.9286  0.9146 -1.2122
 4316TIP3   OH212953   4.982   3.907   2.110  0.3970  0.6619 -0.4939
 4316TIP3    H112954   4.978   4.001   2.090 -2.3939  0.4771 -1.2278
 4316TIP3    H212955   4.913   3.868   2.056  0.9348 -1.7099  0.4099
 4317TIP3   OH212956   0.413   2.556   5.021 -0.0537  0.0385  0.1682
 4317TIP3    H112957   0.458   2.473   5.001  0.6893  0.1197  1.3480
 4317TIP3    H212958   0.322   2.540   4.998  0.6516  0.1470 -3.0967
 4318TIP3   OH212959   1.036   2.406   4.140 -0.3859  0.1873 -0.5557
 4318TIP3    H112960   1.013   2.317   4.168 -0.4267  0.6920  1.1403
 4318TIP3    H212961   1.008   2.462   4.212  2.0474  1.3023 -0.3659
 4319TIP3   OH212962   1.550   2.151   1.636 -0.1739 -0.1825  0.5079
 4319TIP3    H112963   1.552   2.199   1.553  2.3843  0.5666  0.9057
 4319TIP3    H212964   1.507   2.210   1.697 -1.6384 -0.5421 -0.1495
 4320TIP3   OH212965   5.779   5.062   4.613 -0.3748 -0.3494  0.2242
 4320TIP3    H112966   5.833   5.140   4.624  0.1982 -0.7175  0.0636
 4320TIP3    H212967   5.785   5.017   4.697  0.5763 -1.0146 -0.1857
 4321TIP3   OH212968   3.734   1.532   3.463  0.2927 -0.2336 -0.0593
 4321TIP3    H112969   3.820   1.570   3.480 -0.5934  1.1361  1.7719
 4321TIP3    H212970   3.673   1.594   3.502 -1.7194 -0.0486 -3.1775
 4322TIP3   OH212971   4.210   5.446   0.263  0.6096  0.1452  0.5772
 4322TIP3    H112972   4.236   5.516   0.203  1.8881  0.5148  1.4888
 4322TIP3    H212973   4.230   5.365   0.217 -1.7565  0.2998 -0.8679
 4323TIP3   OH212974   4.413   5.290   4.056  0.3533 -0.0600  0.2347
 4323TIP3    H112975   4.420   5.294   4.152 -0.0029 -0.3264  0.2757
 4323TIP3    H212976   4.447   5.203   4.034  0.2096 -0.0934  0.1433
 4324TIP3   OH212977   1.388   5.842   1.847  0.2956  0.0777  0.5420
 4324TIP3    H112978   1.351   5.814   1.931  2.6933 -0.6092  1.4530
 4324TIP3    H212979   1.379   5.937   1.847 -0.6145 -0.0017  1.1213
 4325TIP3   OH212980   2.068   2.412   0.187 -0.1995  0.6079 -0.0029
 4325TIP3    H112981   2.155   2.414   0.227 -0.8967  1.8092  1.5815
 4325TIP3    H212982   2.082   2.439   0.097  1.2254 -0.5002 -0.1465
 4326TIP3   OH212983   2.220   3.035   2.357  0.2425  0.0964  0.1924
 4326TIP3    H112984   2.236   2.997   2.443  2.1672  0.9716  0.2672
 4326TIP3    H212985   2.211   2.960   2.298  0.5682 -0.4945  0.8921
 4327TIP3   OH212986   4.161   2.540   2.019  0.0861  0.0043 -0.3263
 4327TIP3    H112987   4.148   2.462   2.073 -2.4848 -1.3550 -2.6974
 4327TIP3    H212988   4.250   2.532   1.986  0.9970 -0.1708  1.9850
 4328TIP3   OH212989   1.022   4.354   4.310  0.0130  0.0178 -0.0329
 4328TIP3    H112990   1.072   4.312   4.381  0.3452 -2.2543 -1.4865
 4328TIP3    H212991   0.947   4.393   4.354  0.0841 -1.4926  1.5768
 4329TIP3   OH212992   2.712   2.857   3.408 -0.2751 -0.1195  0.6387
 4329TIP3    H112993   2.741   2.823   3.493  0.0351  0.7664  0.9075
 4329TIP3    H212994   2.641   2.918   3.430  0.1072  0.4522  0.3121
 4330TIP3   OH212995   1.095   5.986   3.173 -0.4393  0.1764 -0.3473
 4330TIP3    H112996   1.063   5.978   3.263 -0.2088  0.2920 -0.2527
 4330TIP3    H212997   1.079   5.900   3.134  1.2787 -0.5557  0.4213
 4331TIP3   OH212998   0.945   4.715   3.005  0.1399 -0.2894  0.3840
 4331TIP3    H112999   0.903   4.800   3.019 -1.4456 -0.5400 -2.2970
 4331TIP3    H213000   0.974   4.688   3.092 -2.3398  1.4397  1.8565
 4332TIP3   OH213001   0.771   4.581   1.599  0.4206  0.6554  0.1014
 4332TIP3    H113002   0.710   4.567   1.527  1.7475 -0.7443 -0.8005
 4332TIP3    H213003   0.734   4.656   1.647 -0.4632  1.6950 -2.0589
 4333TIP3   OH213004   2.207   5.407   4.540  0.3598  0.0068 -0.5582
 4333TIP3    H113005   2.246   5.485   4.579 -3.3440  1.4968  0.5836
 4333TIP3    H213006   2.148   5.441   4.472 -1.4528 -1.6944  0.0538
 4334TIP3   OH213007   5.539   4.214   2.067 -0.8113 -0.3602  0.9097
 4334TIP3    H113008   5.631   4.227   2.088 -0.8364  1.4424  0.0714
 4334TIP3    H213009   5.497   4.204   2.153  0.0349 -0.3138  1.3427
 4335TIP3   OH213010   2.765   5.918   0.103  0.1366 -0.4441  0.4113
 4335TIP3    H113011   2.860   5.917   0.086 -0.1576 -0.3248 -1.4267
 4335TIP3    H213012   2.732   5.841   0.058 -0.6426 -0.5625  1.1684
 4336TIP3   OH213013   3.444   0.833   0.516  0.0104 -0.2152  0.0517
 4336TIP3    H113014   3.537   0.815   0.529  1.0077  3.3584 -0.9915
 4336TIP3    H213015   3.404   0.813   0.600  1.9583 -0.4913  0.9750
 4337TIP3   OH213016   0.008   0.203   0.462  0.4557  0.2262  0.3698
 4337TIP3    H113017   0.088   0.246   0.488  0.6410  0.0038  0.1815
 4337TIP3    H213018   0.036   0.116   0.432  0.3064  0.5677 -0.8455
 4338TIP3   OH213019   0.126   0.018   0.746  0.3540  0.0315  0.0391
 4338TIP3    H113020   0.182  -0.039   0.694  0.2505 -0.4842  0.4837
 4338TIP3    H213021   0.067   0.059   0.683  2.5586  2.2020 -0.7711
 4339TIP3   OH213022   0.875   3.390   3.905 -0.8239  0.0248 -0.0243
 4339TIP3    H113023   0.968   3.391   3.928 -0.5453 -1.0136 -1.0020
 4339TIP3    H213024   0.871   3.430   3.818 -1.2495 -0.1739 -0.1008
 4340TIP3   OH213025   0.714   0.378   1.675  0.5926 -0.6148 -0.6172
 4340TIP3    H113026   0.741   0.286   1.686  1.1889 -0.1589  2.3630
 4340TIP3    H213027   0.795   0.423   1.650  0.9905 -0.4735  0.8339
 4341TIP3   OH213028   3.503   4.519   3.095  0.0196 -0.2829  0.0684
 4341TIP3    H113029   3.476   4.448   3.153 -0.8688  0.6608  0.8360
 4341TIP3    H213030   3.444   4.591   3.115  0.2987  0.3865 -1.3576
 4342TIP3   OH213031   1.096   0.774   1.841  0.0719  0.1635 -0.6621
 4342TIP3    H113032   1.103   0.680   1.825  0.5679 -0.0418  0.5967
 4342TIP3    H213033   1.176   0.796   1.887 -0.2723  1.1063 -0.4937
 4343TIP3   OH213034   4.856   0.142   3.819 -0.1725 -0.2392  0.6642
 4343TIP3    H113035   4.918   0.102   3.880  0.8425  0.6183  0.2295
 4343TIP3    H213036   4.817   0.214   3.869 -0.8118 -0.7478  0.9214
 4344TIP3   OH213037   4.380   3.024   2.938 -0.5358  0.1324 -0.1291
 4344TIP3    H113038   4.325   2.952   2.970 -1.2767  0.5330 -0.4693
 4344TIP3    H213039   4.469   2.998   2.961 -0.9123 -0.2531  0.9757
 4345TIP3   OH213040   6.165   3.478   1.699  0.2822  0.3818  0.1355
 4345TIP3    H113041   6.080   3.522   1.697 -0.0982 -0.1863  1.7903
 4345TIP3    H213042   6.214   3.517   1.626 -1.3416  0.7967 -0.8004
 4346TIP3   OH213043   1.868   0.316   4.063  0.3908  0.4282 -0.3934
 4346TIP3    H113044   1.934   0.350   4.003 -0.5564  0.4609 -1.4398
 4346TIP3    H213045   1.785   0.327   4.017 -0.3838  0.5687  0.9734
 4347TIP3   OH213046   0.447   1.465   3.292  0.4964 -0.0700  0.4286
 4347TIP3    H113047   0.464   1.558   3.278 -0.1374 -0.0922 -0.6304
 4347TIP3    H213048   0.458   1.426   3.205  0.9730 -1.0286  0.9038
 4348TIP3   OH213049   0.953   4.079   3.867  0.6547 -0.1995  0.3562
 4348TIP3    H113050   0.968   3.988   3.893 -1.4129 -0.2914  1.4462
 4348TIP3    H213051   0.969   4.129   3.947 -0.5927  0.1032  0.4393
 4349TIP3   OH213052   2.328   3.335   1.183  0.3272 -0.7321 -0.0579
 4349TIP3    H113053   2.351   3.356   1.093 -0.9337 -0.5738 -0.3694
 4349TIP3    H213054   2.282   3.414   1.215  3.0553  0.3213  1.6437
 4350TIP3   OH213055   0.795   2.464   2.511 -0.3321  0.2250  0.0711
 4350TIP3    H113056   0.791   2.532   2.443 -1.7882  0.1812  0.0740
 4350TIP3    H213057   0.884   2.470   2.545  0.2893  0.5870 -1.4881
 4351TIP3   OH213058   3.381   0.194   2.046 -0.9886 -0.3520  0.0373
 4351TIP3    H113059   3.317   0.122   2.048  0.6893 -1.9040  1.5204
 4351TIP3    H213060   3.438   0.173   1.972  0.0137 -1.0966  0.9772
 4352TIP3   OH213061   3.306   1.663   2.138  0.1054  0.0787  0.2059
 4352TIP3    H113062   3.395   1.696   2.148 -0.3313  0.9315  1.5491
 4352TIP3    H213063   3.313   1.569   2.148  1.2951 -0.2848 -3.0168
 4353TIP3   OH213064   0.740   5.364   2.739  0.3093 -0.1125 -0.1137
 4353TIP3    H113065   0.799   5.290   2.754  0.3549  0.2813  1.9607
 4353TIP3    H213066   0.796   5.441   2.742 -0.1853  0.2256  1.2951
 4354TIP3   OH213067   5.490   0.885   2.433  0.4931 -0.1063  0.6387
 4354TIP3    H113068   5.481   0.917   2.344  0.1639 -0.3126  0.5972
 4354TIP3    H213069   5.412   0.918   2.478  0.3674 -0.4911  0.7025
 4355TIP3   OH213070   2.495   4.886   3.345  0.3481 -0.6941 -0.2101
 4355TIP3    H113071   2.540   4.837   3.414  0.9645 -0.9019 -0.7494
 4355TIP3    H213072   2.411   4.842   3.336  0.3105 -0.7401  0.3244
 4356TIP3   OH213073   3.357   2.973   3.850  0.1696 -0.2329  0.0961
 4356TIP3    H113074   3.391   2.966   3.939 -1.4762 -0.3168  0.7398
 4356TIP3    H213075   3.267   2.942   3.856 -0.4275  1.1165 -1.3255
 4357TIP3   OH213076   1.338   2.280   1.741 -0.0535 -0.2390  0.4654
 4357TIP3    H113077   1.271   2.342   1.770  1.2852  0.3832  2.4520
 4357TIP3    H213078   1.288   2.206   1.706 -1.7276  0.9835  0.1284
 4358TIP3   OH213079   0.193   1.675   1.889  0.0523 -0.3720  0.6466
 4358TIP3    H113080   0.180   1.659   1.796  0.7012  2.2413  0.0100
 4358TIP3    H213081   0.288   1.673   1.901 -0.0666 -2.4500  1.6814
 4359TIP3   OH213082   4.120   1.477   1.581  0.4325 -0.6510  0.5814
 4359TIP3    H113083   4.148   1.454   1.669  1.4780  3.0545  1.3709
 4359TIP3    H213084   4.031   1.511   1.592 -0.2089 -2.0123 -0.1617
 4360TIP3   OH213085   3.003   1.862   2.109  0.5171 -0.4964 -0.0909
 4360TIP3    H113086   3.036   1.872   2.019  0.3970 -2.5361 -0.4045
 4360TIP3    H213087   2.931   1.925   2.115  3.5592  3.3445  0.2817
 4361TIP3   OH213088   2.768   0.597   0.505 -0.3089 -0.0581 -0.2591
 4361TIP3    H113089   2.730   0.653   0.572  1.6002 -1.9413  2.6044
 4361TIP3    H213090   2.744   0.508   0.531  0.8163 -0.8941 -1.8654
 4362TIP3   OH213091   5.532   5.347   0.999 -0.8683 -0.2001 -0.1910
 4362TIP3    H113092   5.437   5.345   0.984 -0.8167  1.8807 -1.0736
 4362TIP3    H213093   5.570   5.323   0.915 -0.5891 -0.2627 -0.0484
 4363TIP3   OH213094   5.750   3.645   1.733 -0.1358  0.0798  0.1521
 4363TIP3    H113095   5.756   3.736   1.763  0.7532  1.0159 -2.5524
 4363TIP3    H213096   5.831   3.631   1.684 -0.2262 -2.2458  0.5516
 4364TIP3   OH213097   5.597   5.000   0.244  0.0181 -0.4392 -0.0174
 4364TIP3    H113098   5.661   4.931   0.266  1.0995 -0.0516 -1.7553
 4364TIP3    H213099   5.650   5.078   0.229 -0.9132  0.0362 -0.9766
 4365TIP3   OH213100   3.432   1.231   2.725 -0.0096  0.2626  0.3614
 4365TIP3    H113101   3.378   1.311   2.725  1.4752  1.3092  0.7863
 4365TIP3    H213102   3.483   1.238   2.806  3.0804  0.9635 -1.5154
 4366TIP3   OH213103   4.733   1.754   3.460  0.3003 -0.2131 -0.2062
 4366TIP3    H113104   4.674   1.809   3.408  1.7578  2.4900  0.8551
 4366TIP3    H213105   4.699   1.760   3.549  1.2052 -0.0021  0.1279
 4367TIP3   OH213106   0.358   5.751   3.443  0.2515 -0.6639 -1.1248
 4367TIP3    H113107   0.380   5.662   3.471 -1.8482 -0.9563 -0.2345
 4367TIP3    H213108   0.411   5.807   3.499 -0.2691 -1.3385  0.0863
 4368TIP3   OH213109   1.781   2.501   4.650 -0.0011 -0.0743 -0.2114
 4368TIP3    H113110   1.807   2.518   4.559  0.4777 -2.6521 -0.6398
 4368TIP3    H213111   1.696   2.544   4.659 -0.4658 -0.4632 -2.1896
 4369TIP3   OH213112   1.665   3.317   4.718 -0.4121  0.2246 -0.0172
 4369TIP3    H113113   1.723   3.289   4.647 -0.1617 -0.0394  0.2852
 4369TIP3    H213114   1.712   3.388   4.761 -0.1498 -0.2132  0.4382
 4370TIP3   OH213115   6.320   0.086   2.928 -0.7171 -0.2673 -0.2884
 4370TIP3    H113116   6.231   0.110   2.906 -1.4297 -0.7807  1.7982
 4370TIP3    H213117   6.355   0.161   2.975  0.2656  0.2533 -1.7919
 4371TIP3   OH213118   0.717   5.086   2.556  0.1162  0.2906 -0.5971
 4371TIP3    H113119   0.663   5.014   2.524  0.1441 -0.4200  0.9070
 4371TIP3    H213120   0.661   5.164   2.543 -1.7659 -0.5360  1.8684
 4372TIP3   OH213121   5.607   1.576   0.849  0.3019  0.0121  0.2289
 4372TIP3    H113122   5.650   1.657   0.875  0.1439 -0.1784  1.0969
 4372TIP3    H213123   5.539   1.562   0.915  0.5078 -0.9714  0.2496
 4373TIP3   OH213124   0.717   3.315   2.887  0.0598  0.3468  0.2152
 4373TIP3    H113125   0.725   3.331   2.981 -0.3688 -1.5970  0.6309
 4373TIP3    H213126   0.807   3.303   2.857  0.1252 -0.4636  0.6941
 4374TIP3   OH213127   0.280   1.950   1.603 -0.0069 -0.1322  0.7668
 4374TIP3    H113128   0.288   1.957   1.698  1.0668 -1.4696  0.8031
 4374TIP3    H213129   0.370   1.943   1.572 -0.3232  0.6906 -0.3996
 4375TIP3   OH213130   0.402   0.672   4.621  0.4512  0.1098  0.3385
 4375TIP3    H113131   0.409   0.680   4.716 -0.5709 -1.5149  0.5903
 4375TIP3    H213132   0.309   0.684   4.603  0.2395 -1.9603 -0.1608
 4376TIP3   OH213133   2.844   0.684   4.108 -0.6571 -0.4120  0.1772
 4376TIP3    H113134   2.892   0.741   4.048 -0.7139 -0.5223  0.0252
 4376TIP3    H213135   2.757   0.676   4.069 -0.4598 -1.1064 -0.1411
 4377TIP3   OH213136   1.678   2.308   4.221  0.4519  0.0028 -0.4557
 4377TIP3    H113137   1.743   2.363   4.176  1.7017  0.6080  1.8806
 4377TIP3    H213138   1.717   2.221   4.222  0.8384  0.1730  0.1467
 4378TIP3   OH213139   3.209   3.994   0.041  0.5201 -0.1067  0.3166
 4378TIP3    H113140   3.227   4.082   0.073 -2.2779  0.7679 -0.2058
 4378TIP3    H213141   3.188   3.944   0.120 -1.9562  0.8764  0.3940
 4379TIP3   OH213142   4.793   5.768   0.517  0.4372 -0.6021  0.5289
 4379TIP3    H113143   4.822   5.677   0.513 -0.9415 -1.0230 -0.6469
 4379TIP3    H213144   4.716   5.772   0.460  1.2560  1.5914 -0.5698
 4380TIP3   OH213145   0.409   0.677   4.897 -0.4492  0.0082  0.7137
 4380TIP3    H113146   0.408   0.745   4.964  0.4220  0.0559  0.6933
 4380TIP3    H213147   0.475   0.614   4.928 -1.5627 -1.0762  0.9722
 4381TIP3   OH213148   0.797   1.985   2.700  0.0733 -0.0169  0.1784
 4381TIP3    H113149   0.790   2.018   2.611  1.5237 -0.8441 -0.2854
 4381TIP3    H213150   0.847   2.052   2.747 -0.8762  0.5185  0.4349
 4382TIP3   OH213151   5.245   4.563   3.578  0.5623  0.2888  0.4602
 4382TIP3    H113152   5.216   4.583   3.667  0.2583 -1.9947  0.9363
 4382TIP3    H213153   5.245   4.647   3.533 -0.2317  1.3488  2.3386
 4383TIP3   OH213154   2.030   3.732   0.467  0.3783 -0.0665 -0.4879
 4383TIP3    H113155   2.060   3.658   0.519  2.3373  0.2395 -1.0925
 4383TIP3    H213156   1.969   3.778   0.523  1.1029 -0.7193  0.8769
 4384TIP3   OH213157   1.795   3.769   4.171  0.2577 -0.5007  0.7604
 4384TIP3    H113158   1.859   3.830   4.134 -0.6278  0.7631  1.2443
 4384TIP3    H213159   1.771   3.808   4.255  0.7830 -2.3253  1.8102
 4385TIP3   OH213160   0.385   4.542   0.675 -0.2999  0.3242  0.0279
 4385TIP3    H113161   0.367   4.590   0.594 -2.2998 -1.4530 -0.6488
 4385TIP3    H213162   0.303   4.543   0.723  0.2316 -0.5737  1.0018
 4386TIP3   OH213163   5.360   3.053   4.770 -0.3055  0.0652 -0.3627
 4386TIP3    H113164   5.320   3.094   4.847 -3.0846  0.6106 -1.9412
 4386TIP3    H213165   5.317   2.967   4.765  1.2039 -0.7170 -0.3315
 4387TIP3   OH213166   3.967   0.574   0.956 -0.2761 -0.4458 -0.3995
 4387TIP3    H113167   4.059   0.556   0.938 -0.1255 -1.5293  1.3121
 4387TIP3    H213168   3.959   0.571   1.051 -1.3436  3.3796 -0.1624
 4388TIP3   OH213169   0.609   5.319   3.264  0.4027  0.7171  0.6641
 4388TIP3    H113170   0.647   5.407   3.264  0.2460  0.7916  1.3690
 4388TIP3    H213171   0.685   5.261   3.254  0.7449  0.8631  2.1741
 4389TIP3   OH213172   5.098   2.034   0.167 -0.7731 -0.3124 -0.4672
 4389TIP3    H113173   5.146   1.961   0.130  0.9465 -0.5979  2.0958
 4389TIP3    H213174   5.044   1.996   0.236 -0.3570  0.7122  0.4629
 4390TIP3   OH213175   2.517   5.940   4.508  0.3667  0.4111 -0.1024
 4390TIP3    H113176   2.605   5.912   4.484  0.4195 -0.7337  1.2727
 4390TIP3    H213177   2.529   5.993   4.586 -0.2050 -0.3607  0.5267
 4391TIP3   OH213178   3.783   1.218   4.269  0.3984 -0.4970 -0.0188
 4391TIP3    H113179   3.830   1.296   4.238 -0.8448 -0.1567 -1.1409
 4391TIP3    H213180   3.790   1.222   4.364  0.5344  0.8731 -0.0680
 4392TIP3   OH213181   5.323   1.683   3.042 -0.2847 -0.2021  0.2636
 4392TIP3    H113182   5.303   1.757   2.985 -1.3625 -1.2712 -0.8099
 4392TIP3    H213183   5.413   1.698   3.070 -0.4923  1.5236  0.1336
 4393TIP3   OH213184   1.242   1.499   1.819 -0.2256 -0.5436  0.2950
 4393TIP3    H113185   1.216   1.408   1.833  0.1441 -0.9206 -1.2826
 4393TIP3    H213186   1.160   1.544   1.797 -0.3398 -0.5757  0.6454
 4394TIP3   OH213187   1.855   3.012   2.909 -0.7063  0.4755 -0.1498
 4394TIP3    H113188   1.865   2.918   2.922  0.7542  0.1470 -2.9054
 4394TIP3    H213189   1.767   3.021   2.871 -1.0534  0.3173  0.5924
 4395TIP3   OH213190   5.754   0.116   4.516  0.1539  0.6254  0.5396
 4395TIP3    H113191   5.784   0.025   4.525 -0.5386  0.4281  0.9478
 4395TIP3    H213192   5.816   0.156   4.456 -0.2486 -0.4532 -0.6479
 4396TIP3   OH213193   3.552   4.854   2.944 -0.3606 -0.2210 -0.0572
 4396TIP3    H113194   3.514   4.831   2.859  0.8777  3.5914 -1.8529
 4396TIP3    H213195   3.638   4.813   2.943 -0.0775  0.3604 -0.9963
 4397TIP3   OH213196   5.738   0.236   0.621  0.3196 -0.3321 -0.3844
 4397TIP3    H113197   5.827   0.262   0.646  0.2581 -0.8645  0.3960
 4397TIP3    H213198   5.686   0.315   0.634  0.4962 -0.2965  0.0931
 4398TIP3   OH213199   2.054   2.683   1.984 -0.1838  0.5673  0.0011
 4398TIP3    H113200   2.137   2.675   1.937  1.0515  1.6132  1.8915
 4398TIP3    H213201   2.020   2.593   1.986  1.8825 -0.2782  0.8112
 4399TIP3   OH213202   4.579   3.011   3.767  1.0399 -0.0283 -0.1250
 4399TIP3    H113203   4.620   3.097   3.763  0.9672  0.1089  1.3522
 4399TIP3    H213204   4.512   3.012   3.700  0.1823  1.5476  0.7107
 4400TIP3   OH213205   0.312   2.301   4.718  0.6347 -0.3629 -0.2984
 4400TIP3    H113206   0.242   2.236   4.714  0.7548 -0.4664 -3.7693
 4400TIP3    H213207   0.267   2.385   4.727  0.2728 -0.6329  0.4885
 4401TIP3   OH213208   3.484   0.270   3.968  0.1339 -0.4496  0.1072
 4401TIP3    H113209   3.563   0.263   4.021  1.8139 -0.0182 -2.2274
 4401TIP3    H213210   3.503   0.338   3.904 -2.2978 -0.0623 -0.3317
 4402TIP3   OH213211   1.543   1.416   1.667 -0.0786  0.4101  0.4361
 4402TIP3    H113212   1.454   1.441   1.642 -0.1481 -0.8926 -0.7317
 4402TIP3    H213213   1.530   1.344   1.729  0.1530  0.3955  0.4670
 4403TIP3   OH213214   4.798   5.739   2.648 -0.2078 -0.5804 -0.2730
 4403TIP3    H113215   4.812   5.646   2.664  2.4645 -0.1778  0.1999
 4403TIP3    H213216   4.804   5.779   2.735  0.6093  0.2336 -0.6928
 4404TIP3   OH213217   2.029   1.562   2.452 -0.3524 -0.2970 -0.1151
 4404TIP3    H113218   1.983   1.485   2.416 -0.7180 -0.1540  0.0454
 4404TIP3    H213219   2.098   1.525   2.507 -1.0041 -0.5173  0.5704
 4405TIP3   OH213220   5.967   2.936   3.373 -0.2243 -0.1795 -0.5359
 4405TIP3    H113221   6.026   2.962   3.303  0.9650 -0.2552  0.3981
 4405TIP3    H213222   5.893   2.996   3.366  0.7196  0.9874 -0.7403
 4406TIP3   OH213223   1.018   2.836   4.321 -0.3724 -0.5702  0.4397
 4406TIP3    H113224   1.112   2.841   4.306 -0.5453  1.9786 -0.3815
 4406TIP3    H213225   0.986   2.923   4.296 -3.1336 -1.7923 -0.5577
 4407TIP3   OH213226   4.442   3.856   4.034  0.1285 -0.3303 -0.1218
 4407TIP3    H113227   4.359   3.807   4.036 -1.0143  1.5273  1.7207
 4407TIP3    H213228   4.423   3.933   3.981  0.7286  0.0177  0.1579
 4408TIP3   OH213229   0.651   3.143   4.827 -0.0750  0.4627 -0.0999
 4408TIP3    H113230   0.578   3.204   4.820 -0.1978  0.2299 -0.9278
 4408TIP3    H213231   0.705   3.161   4.750  0.1799 -0.0875 -0.0546
 4409TIP3   OH213232   4.496   4.925   2.976  0.4381  0.1412 -0.0476
 4409TIP3    H113233   4.542   4.915   2.892  1.8928 -1.2988  0.8633
 4409TIP3    H213234   4.495   4.837   3.013  0.7421  0.9271  1.9095
 4410TIP3   OH213235   0.214   3.611   1.087  0.0216 -0.0702 -0.7440
 4410TIP3    H113236   0.257   3.688   1.050  0.0190 -0.4621 -1.5981
 4410TIP3    H213237   0.250   3.538   1.036  1.3742 -0.8366  1.2119
 4411TIP3   OH213238   2.408   0.896   4.164 -0.0121  0.0780 -0.3346
 4411TIP3    H113239   2.484   0.920   4.110 -0.2449  0.5127 -0.4689
 4411TIP3    H213240   2.426   0.805   4.190  2.4880  1.3172  2.8717
 4412TIP3   OH213241   0.094   3.604   1.832 -0.7612 -0.4758  0.2019
 4412TIP3    H113242   0.078   3.667   1.762  0.0366 -0.6424 -0.1447
 4412TIP3    H213243   0.007   3.572   1.856 -1.2147  0.9880  0.6123
 4413TIP3   OH213244   5.745   5.680   1.775  0.4032 -0.1537 -0.0543
 4413TIP3    H113245   5.778   5.750   1.832  1.1001 -0.2430 -0.3308
 4413TIP3    H213246   5.813   5.670   1.708  0.3098 -1.0954 -0.0222
 4414TIP3   OH213247   5.301   0.688   4.872 -0.3649  0.0030  0.0048
 4414TIP3    H113248   5.384   0.734   4.885 -0.3198  0.3471 -1.3782
 4414TIP3    H213249   5.257   0.694   4.957  1.1577 -0.4984  0.8746
 4415TIP3   OH213250   2.427   3.194   2.651 -0.2614 -0.2176 -0.2861
 4415TIP3    H113251   2.335   3.221   2.657 -0.0411  0.7811 -1.2205
 4415TIP3    H213252   2.476   3.276   2.644  0.8427 -0.6571  1.5310
 4416TIP3   OH213253   5.521   4.986   1.521  0.0751 -0.4099 -0.0084
 4416TIP3    H113254   5.454   4.923   1.497 -0.1848 -0.3791  0.6370
 4416TIP3    H213255   5.570   4.944   1.592  0.6054 -0.3463 -0.3302
 4417TIP3   OH213256   5.073   1.962   4.001  0.4864 -0.2916 -0.4772
 4417TIP3    H113257   5.027   2.016   4.064  1.4318  0.5994 -0.5238
 4417TIP3    H213258   5.004   1.915   3.954 -0.2140 -1.4132  1.5617
 4418TIP3   OH213259   3.044   2.139   0.023  0.4839  0.2252 -0.4943
 4418TIP3    H113260   2.950   2.158   0.028 -0.1095 -1.9451 -1.9144
 4418TIP3    H213261   3.067   2.105   0.110  0.7435  3.4722  0.8602
 4419TIP3   OH213262   1.176   3.442   1.727 -0.0578  0.6627 -0.2770
 4419TIP3    H113263   1.157   3.391   1.648  1.6863  1.5767 -1.3636
 4419TIP3    H213264   1.167   3.533   1.700 -3.4458  1.0932  1.7228
 4420TIP3   OH213265   2.001   0.512   4.445 -0.0722  0.4379 -0.4978
 4420TIP3    H113266   2.023   0.570   4.372 -0.5314  0.5546 -0.5461
 4420TIP3    H213267   2.066   0.532   4.512  1.3610 -0.8139 -1.4592
 4421TIP3   OH213268   2.314   2.734   4.938  0.6748  0.5928 -0.2643
 4421TIP3    H113269   2.365   2.686   4.873  1.3930  2.5096 -1.1838
 4421TIP3    H213270   2.233   2.758   4.891  0.2476  0.1683  0.2420
 4422TIP3   OH213271   3.024   3.661   0.921 -0.5494  0.2093  0.4317
 4422TIP3    H113272   3.043   3.567   0.918  0.0681  0.2307  2.5098
 4422TIP3    H213273   2.952   3.670   0.982 -2.8830  0.8572 -2.1969
 4423TIP3   OH213274   4.229   4.920   4.637 -0.5915  0.2209  0.4177
 4423TIP3    H113275   4.294   4.990   4.644 -1.6840  1.4988 -1.4255
 4423TIP3    H213276   4.153   4.954   4.686 -0.6534 -0.3059  0.6946
 4424TIP3   OH213277   4.845   4.636   3.802 -0.0851 -0.0639 -0.5412
 4424TIP3    H113278   4.793   4.714   3.785  0.2676  0.2184 -0.3415
 4424TIP3    H213279   4.815   4.605   3.888 -0.2755 -0.1917 -0.6525
 4425TIP3   OH213280   3.636   0.169   4.300 -0.4749 -0.5659  0.5611
 4425TIP3    H113281   3.672   0.209   4.221 -2.5612  0.2432 -0.0473
 4425TIP3    H213282   3.604   0.243   4.352  0.3887 -1.1265  1.9503
 4426TIP3   OH213283   1.030   3.925   2.288 -0.6733  0.0174  0.1395
 4426TIP3    H113284   1.099   3.981   2.323 -0.6265 -0.3174  0.6032
 4426TIP3    H213285   0.954   3.983   2.278 -0.7823  0.0702  1.1038
 4427TIP3   OH213286   0.058   1.380   0.504  0.6159 -0.4707  0.2612
 4427TIP3    H113287   0.075   1.291   0.537  0.7591 -1.1598 -1.5360
 4427TIP3    H213288  -0.004   1.367   0.433  0.0877  0.9733  0.4356
 4428TIP3   OH213289   2.981   3.646   0.119 -0.4048 -0.0632 -0.1623
 4428TIP3    H113290   3.053   3.614   0.065 -0.2099 -0.1165  0.1290
 4428TIP3    H213291   3.007   3.625   0.209 -0.7337  0.0137 -0.0488
 4429TIP3   OH213292   1.833   0.965   0.294  0.7453 -0.3459 -0.4100
 4429TIP3    H113293   1.780   0.933   0.222  1.4298 -0.2379 -0.9716
 4429TIP3    H213294   1.839   1.059   0.280  0.1063 -0.1789  0.3210
 4430TIP3   OH213295   6.174   2.105   2.611  0.0786 -0.0114  0.2651
 4430TIP3    H113296   6.226   2.098   2.531  0.1141  1.0617  0.1805
 4430TIP3    H213297   6.225   2.162   2.669 -1.2018  1.5061 -0.0219
 4431TIP3   OH213298   4.464   4.948   0.205  0.3915  0.0956  0.0322
 4431TIP3    H113299   4.436   4.949   0.297 -0.6181 -3.0376 -0.1620
 4431TIP3    H213300   4.539   4.888   0.203  0.4591  0.1931 -1.1978
 4432TIP3   OH213301   3.242   4.777   0.696 -0.2537 -0.0786 -0.2143
 4432TIP3    H113302   3.243   4.780   0.791 -4.1157 -1.6019  0.0556
 4432TIP3    H213303   3.235   4.868   0.668 -3.4220  0.2840  1.3124
 4433TIP3   OH213304   2.565   3.463   2.881 -0.0914  0.0060  0.1195
 4433TIP3    H113305   2.534   3.433   2.966 -0.3256  1.7704  0.7090
 4433TIP3    H213306   2.491   3.511   2.844  0.2169 -0.2143 -0.8107
 4434TIP3   OH213307   5.448   5.290   1.986  0.0712 -0.2984  0.0532
 4434TIP3    H113308   5.381   5.229   1.955 -0.2280  0.0683 -0.0282
 4434TIP3    H213309   5.491   5.322   1.907  1.3708 -1.6546  0.1496
 4435TIP3   OH213310   0.398   2.514   2.211 -0.0298  0.1794 -0.4413
 4435TIP3    H113311   0.306   2.522   2.235  0.5444  0.2093  2.0908
 4435TIP3    H213312   0.440   2.588   2.255  1.3967 -0.7364 -0.1989
 4436TIP3   OH213313   0.210   1.166   1.128  0.3311 -0.1186 -0.1075
 4436TIP3    H113314   0.300   1.155   1.097  0.8303 -1.2454  1.6550
 4436TIP3    H213315   0.216   1.230   1.199 -0.3280  0.1028 -0.2421
 4437TIP3   OH213316   0.393   0.407   4.980  0.1136  0.0116  0.4240
 4437TIP3    H113317   0.332   0.475   4.953  2.4057  1.7024 -0.8871
 4437TIP3    H213318   0.389   0.407   5.076 -0.9283  1.0298  0.3981
 4438TIP3   OH213319   3.700   1.252   3.452  0.1906 -0.1943 -0.0748
 4438TIP3    H113320   3.730   1.342   3.439  0.6056 -0.5834 -2.2027
 4438TIP3    H213321   3.778   1.203   3.478  0.1904 -0.1214  0.0588
 4439TIP3   OH213322   3.736   3.871   2.594 -0.4798  0.1781  0.3559
 4439TIP3    H113323   3.649   3.885   2.557 -1.1772 -0.2430  1.7490
 4439TIP3    H213324   3.738   3.928   2.671  0.0266 -0.6754  0.9823
 4440TIP3   OH213325   1.171   1.993   0.330  0.0226  0.1567 -0.1091
 4440TIP3    H113326   1.106   2.045   0.283  1.2289  0.8732 -1.0535
 4440TIP3    H213327   1.210   2.054   0.393  0.5761  0.0636 -0.3551
 4441TIP3   OH213328   2.723   5.358   0.869 -1.0590  0.7334  0.3500
 4441TIP3    H113329   2.647   5.315   0.828  1.0160 -0.5067 -2.4982
 4441TIP3    H213330   2.728   5.443   0.827 -1.1199  1.0217  0.9100
 4442TIP3   OH213331   4.915   0.646   0.525 -0.3006 -0.4126  0.2239
 4442TIP3    H113332   4.855   0.680   0.592  1.2989  0.6851  1.1605
 4442TIP3    H213333   4.935   0.557   0.553 -1.2759 -0.6966  0.0417
 4443TIP3   OH213334   0.954   0.479   3.336  0.4236 -0.3860  0.3179
 4443TIP3    H113335   0.895   0.527   3.278 -0.1245 -0.5708  0.7144
 4443TIP3    H213336   1.024   0.542   3.355  0.7964 -0.4432 -0.8096
 4444TIP3   OH213337   4.897   1.952   4.455 -0.2573  0.3734 -0.4905
 4444TIP3    H113338   4.885   1.857   4.452  0.8735  0.2244 -0.8424
 4444TIP3    H213339   4.955   1.966   4.531  1.9369  0.4634 -2.0792
 4445TIP3   OH213340   3.139   4.230   2.022 -0.3277  0.3786 -0.1594
 4445TIP3    H113341   3.120   4.295   1.954  3.7579  1.4942 -0.5019
 4445TIP3    H213342   3.184   4.159   1.975 -0.8519 -0.6765  0.8753
 4446TIP3   OH213343   2.116   1.164   2.879 -0.3435 -0.4177 -0.8719
 4446TIP3    H113344   2.148   1.184   2.791 -0.9746 -0.0237 -1.0170
 4446TIP3    H213345   2.023   1.187   2.877 -0.1915  0.3890  0.1378
 4447TIP3   OH213346   0.848   1.088   0.121 -0.3374 -0.1969 -0.2767
 4447TIP3    H113347   0.907   1.057   0.053  0.1554  0.9215 -0.3775
 4447TIP3    H213348   0.775   1.128   0.073  1.0245  2.5497 -0.2443
 4448TIP3   OH213349   3.451   2.295   3.701  0.0741 -0.2605  0.3078
 4448TIP3    H113350   3.498   2.379   3.703  2.1828 -1.3804  0.4878
 4448TIP3    H213351   3.403   2.296   3.618  1.4388  0.4425 -0.5063
 4449TIP3   OH213352   0.459   2.875   5.056 -0.3048 -0.0857  0.4589
 4449TIP3    H113353   0.453   2.804   4.992 -0.7557  0.9069 -0.6349
 4449TIP3    H213354   0.532   2.929   5.025 -1.2021  0.9901  0.1485
 4450TIP3   OH213355   3.823   4.129   3.201 -0.0876 -0.2759 -0.3046
 4450TIP3    H113356   3.808   4.217   3.234 -1.0691 -0.9252  1.0908
 4450TIP3    H213357   3.749   4.111   3.144 -0.0414 -0.2964 -0.3582
 4451TIP3   OH213358   5.858   0.069   3.403 -0.1137 -0.5478  0.0203
 4451TIP3    H113359   5.934   0.045   3.456  0.4832 -0.5563 -0.8142
 4451TIP3    H213360   5.783   0.028   3.448  0.5640 -1.8977 -0.0234
 4452TIP3   OH213361   2.508   5.177   2.430 -0.1368  0.0886 -0.3836
 4452TIP3    H113362   2.425   5.223   2.439  0.3598  0.5798  2.6566
 4452TIP3    H213363   2.574   5.246   2.431  0.4298 -0.4434  0.4032
 4453TIP3   OH213364   0.378   4.708   1.407  0.5197 -0.3213  0.8923
 4453TIP3    H113365   0.431   4.720   1.486 -1.1126  1.6763  1.7634
 4453TIP3    H213366   0.423   4.759   1.340  0.9103 -0.5061  1.0067
 4454TIP3   OH213367   3.298   4.489   2.008 -0.2766 -0.2045  0.3621
 4454TIP3    H113368   3.360   4.420   2.028 -0.6321 -0.5042  0.4447
 4454TIP3    H213369   3.251   4.458   1.931 -1.2518 -0.6069  1.0923
 4455TIP3   OH213370   1.941   3.841   3.725  0.4071 -0.3362 -0.1565
 4455TIP3    H113371   1.918   3.892   3.648 -0.4693 -0.1154  0.2356
 4455TIP3    H213372   2.018   3.884   3.761  1.3809 -0.9784 -1.4007
 4456TIP3   OH213373   5.341   2.602   3.070 -0.1734 -0.2579 -0.3138
 4456TIP3    H113374   5.386   2.686   3.077 -1.4383  0.4146  0.0274
 4456TIP3    H213375   5.399   2.548   3.016  1.1632  0.4738  0.3548
 4457TIP3   OH213376   4.067   2.771   1.918 -0.2595  0.0614  0.0653
 4457TIP3    H113377   4.099   2.685   1.943  0.6462  0.7810  1.5019
 4457TIP3    H213378   3.995   2.789   1.978  0.3943  0.8186  0.6515
 4458TIP3   OH213379   5.722   1.038   2.807 -0.5516  0.3400 -0.6216
 4458TIP3    H113380   5.692   1.062   2.720 -1.2749  0.5634 -0.3163
 4458TIP3    H213381   5.670   1.092   2.867  0.0110  0.2693 -0.0546
 4459TIP3   OH213382   5.003   2.899   0.259  0.1999  0.3863 -0.9751
 4459TIP3    H113383   5.066   2.833   0.290 -2.9456 -2.2123  0.4377
 4459TIP3    H213384   4.979   2.870   0.172 -1.5442 -0.7372 -0.1701
 4460TIP3   OH213385   1.298   5.707   0.166  0.2063  0.9014 -0.3811
 4460TIP3    H113386   1.372   5.765   0.151  0.9816 -0.0823 -0.4381
 4460TIP3    H213387   1.269   5.683   0.078  0.0213  1.0277 -0.3554
 4461TIP3   OH213388   2.946   2.371   0.585 -0.1280  0.1251 -0.4263
 4461TIP3    H113389   2.893   2.316   0.642  1.9204  0.1433  1.6797
 4461TIP3    H213390   2.935   2.460   0.619  0.2134  0.3177 -0.8000
 4462TIP3   OH213391   4.183   5.196   0.017  0.4303 -0.0421 -0.1976
 4462TIP3    H113392   4.141   5.190  -0.069  0.2310  1.5421 -0.2360
 4462TIP3    H213393   4.114   5.225   0.076  0.9738  0.5677  0.1514
 4463TIP3   OH213394   2.228   4.282   4.398  0.2163  0.3655  0.5269
 4463TIP3    H113395   2.190   4.196   4.381  1.1041  0.1904 -0.7359
 4463TIP3    H213396   2.250   4.280   4.491 -0.1939 -0.5985  0.6215
 4464TIP3   OH213397  -0.027   0.697   0.033  0.1816  0.4462  0.0842
 4464TIP3    H113398  -0.020   0.681   0.127  0.5560 -0.8617 -0.1473
 4464TIP3    H213399   0.062   0.690   0.000  0.4331  3.1871 -0.0861
 4465TIP3   OH213400   2.493   1.204   3.977 -0.0340  0.2382  0.2175
 4465TIP3    H113401   2.481   1.200   4.072 -2.6378  0.6234 -0.0241
 4465TIP3    H213402   2.458   1.290   3.952 -3.1272 -1.3138 -1.4512
 4466TIP3   OH213403   2.182   5.662   1.648  0.1267  0.1908 -0.2814
 4466TIP3    H113404   2.228   5.673   1.564 -0.3524 -0.9185 -0.7085
 4466TIP3    H213405   2.090   5.673   1.627 -0.1746 -1.8563 -0.2944
 4467TIP3   OH213406   3.646   5.183   0.868 -0.7193  0.3816 -0.3792
 4467TIP3    H113407   3.693   5.124   0.808 -0.3064 -1.1860  1.3924
 4467TIP3    H213408   3.711   5.247   0.894 -0.0947 -0.5677  0.4759
 4468TIP3   OH213409   4.037   1.296   4.769  0.1648  0.1645 -0.3172
 4468TIP3    H113410   3.991   1.214   4.787  0.6356 -0.8633 -3.2728
 4468TIP3    H213411   3.968   1.362   4.766 -0.2799 -0.1460  1.6004
 4469TIP3   OH213412   0.232   3.135   1.332 -0.6995  0.3227 -0.4511
 4469TIP3    H113413   0.256   3.191   1.406  0.9762 -0.4917 -0.3290
 4469TIP3    H213414   0.182   3.193   1.274 -2.1054  0.9544  1.3093
 4470TIP3   OH213415   3.399   5.064   4.084  0.2127  0.0057 -0.0607
 4470TIP3    H113416   3.305   5.057   4.070 -0.2072  1.7259  1.5179
 4470TIP3    H213417   3.415   5.016   4.165  1.1503 -2.2748 -1.4815
 4471TIP3   OH213418   2.507   3.387   0.073 -0.2044  0.1618  0.1757
 4471TIP3    H113419   2.493   3.421   0.162 -0.9269  1.1265 -0.2833
 4471TIP3    H213420   2.597   3.412   0.053 -0.0355 -0.0591  0.6329
 4472TIP3   OH213421   2.605   2.737   4.234  0.1035 -0.0299  0.4545
 4472TIP3    H113422   2.592   2.690   4.317  0.1153  0.0888  0.5245
 4472TIP3    H213423   2.587   2.672   4.166 -0.5247  0.0337  0.5478
 4473TIP3   OH213424   1.592   3.090   3.757 -0.0415 -0.0836  0.2051
 4473TIP3    H113425   1.537   3.141   3.696 -0.5795  0.9194  1.4768
 4473TIP3    H213426   1.547   3.098   3.841  1.6885  0.1986  1.1433
 4474TIP3   OH213427   2.898   3.741   3.878  0.1112 -0.0067  0.3068
 4474TIP3    H113428   2.927   3.662   3.925 -1.6541 -2.6009 -2.5667
 4474TIP3    H213429   2.815   3.715   3.837 -1.0030  3.6936 -0.1644
 4475TIP3   OH213430   4.859   1.384   0.664 -0.1543  0.0693  0.1096
 4475TIP3    H113431   4.870   1.370   0.759  1.3900  0.3834  0.0057
 4475TIP3    H213432   4.851   1.295   0.628 -0.1035 -0.0862  0.4734
 4476TIP3   OH213433   3.695   1.674   0.056  0.2274  0.1702  0.2019
 4476TIP3    H113434   3.632   1.616   0.099 -0.1908 -0.4695 -1.2239
 4476TIP3    H213435   3.645   1.717  -0.013  0.7341  1.6701  0.7182
 4477TIP3   OH213436   3.548   4.754   2.446  0.2771 -0.1995  0.5704
 4477TIP3    H113437   3.617   4.689   2.464  0.3011 -1.1443 -2.3419
 4477TIP3    H213438   3.590   4.838   2.460  1.4531 -0.7783  0.6408
 4478TIP3   OH213439   3.343   0.103   2.366  0.1281 -0.2021  0.3232
 4478TIP3    H113440   3.407   0.169   2.390  1.8251 -2.2149  1.7412
 4478TIP3    H213441   3.393   0.021   2.366 -1.8318 -1.4932 -1.4499
 4479TIP3   OH213442   4.319   2.178   4.598  0.1532 -0.3321  0.3742
 4479TIP3    H113443   4.347   2.100   4.551 -0.7021 -1.1771  1.2373
 4479TIP3    H213444   4.315   2.246   4.530  0.2336 -1.1895 -0.5131
 4480TIP3   OH213445   2.951   4.370   3.324  0.2863 -0.2443 -0.2585
 4480TIP3    H113446   2.881   4.436   3.326  0.2492 -0.2165  3.1020
 4480TIP3    H213447   2.907   4.288   3.347  0.8511 -0.8960 -1.4024
 4481TIP3   OH213448   0.857   4.587   0.381 -0.1245 -0.1829  0.1914
 4481TIP3    H113449   0.856   4.495   0.408 -0.1491 -0.0498  0.6518
 4481TIP3    H213450   0.769   4.602   0.345 -0.2803 -0.2100  0.5581
 4482TIP3   OH213451   3.349   2.299   0.427 -0.2610  0.0654 -0.3652
 4482TIP3    H113452   3.306   2.218   0.454 -2.6290  1.5388  0.7091
 4482TIP3    H213453   3.438   2.291   0.460 -0.6385 -1.7875  0.3516
 4483TIP3   OH213454   1.705   0.418   1.760  0.1730 -0.1976 -0.3812
 4483TIP3    H113455   1.748   0.333   1.749  0.7499 -0.1081  0.9577
 4483TIP3    H213456   1.772   0.472   1.802 -1.1570  0.0374  1.5057
 4484TIP3   OH213457   5.459   2.080   2.143  0.3762  0.8559  0.3496
 4484TIP3    H113458   5.502   2.054   2.062  1.2728  0.0542  1.0608
 4484TIP3    H213459   5.524   2.065   2.211 -0.6757  0.5787  1.3384
 4485TIP3   OH213460   5.160   1.081   2.023  0.6465 -0.1513  0.0541
 4485TIP3    H113461   5.167   1.098   2.117 -1.5211  1.0899  0.0506
 4485TIP3    H213462   5.092   1.015   2.015  1.0239 -0.4722 -0.6479
 4486TIP3   OH213463   5.172   1.695   0.358  0.7650  0.2279 -0.4076
 4486TIP3    H113464   5.237   1.644   0.407 -0.3241  0.8960  1.8888
 4486TIP3    H213465   5.093   1.642   0.360  0.6667  0.3137 -1.4267
 4487TIP3   OH213466   6.009   5.764   1.908  0.2792  0.2495 -0.2036
 4487TIP3    H113467   5.928   5.751   1.957  0.5321 -0.7168 -0.0255
 4487TIP3    H213468   6.046   5.677   1.899 -0.0053  0.2906 -2.5770
 4488TIP3   OH213469   1.133   3.339   3.611  0.3979 -0.2473 -0.1444
 4488TIP3    H113470   1.190   3.356   3.536  0.8019  1.2918  0.4807
 4488TIP3    H213471   1.185   3.284   3.669  1.9885  2.4771  1.1969
 4489TIP3   OH213472   1.101   3.642   3.715  0.0523 -0.3003  0.4825
 4489TIP3    H113473   1.102   3.546   3.722 -0.5164 -0.4309 -0.9816
 4489TIP3    H213474   1.183   3.664   3.672 -0.3985 -0.2428 -0.3586
 4490TIP3   OH213475   0.831   4.332   2.563  0.0375 -0.2984  0.2576
 4490TIP3    H113476   0.905   4.389   2.544 -0.3455  0.8239  1.9282
 4490TIP3    H213477   0.858   4.281   2.639 -0.0313 -1.6072 -0.5721
 4491TIP3   OH213478   3.085   2.716   4.436 -1.1037  0.3470  0.1462
 4491TIP3    H113479   3.009   2.727   4.378 -1.1565 -0.5738  0.0302
 4491TIP3    H213480   3.122   2.631   4.412 -2.2163 -0.9749  2.7202
 4492TIP3   OH213481   3.513   1.674   0.614  0.6563  0.5403  0.1942
 4492TIP3    H113482   3.531   1.766   0.596  1.4077  0.1263 -1.3614
 4492TIP3    H213483   3.555   1.627   0.542  0.2242 -1.0195  0.9166
 4493TIP3   OH213484   6.266   2.519   0.975 -0.1646 -0.2079 -0.6020
 4493TIP3    H113485   6.278   2.485   0.887  0.0914 -0.4332 -0.4825
 4493TIP3    H213486   6.191   2.471   1.009  0.5196 -1.0641 -0.2417
 4494TIP3   OH213487   3.058   4.595   2.456 -0.0298  0.1863  0.1826
 4494TIP3    H113488   3.124   4.532   2.427 -0.5384 -0.5803  0.6367
 4494TIP3    H213489   3.029   4.637   2.375  0.6316  0.1529 -0.0794
 4495TIP3   OH213490   2.002   2.273   0.779 -0.3788  0.4207 -0.5897
 4495TIP3    H113491   2.028   2.325   0.855  0.1217 -0.5811 -0.0561
 4495TIP3    H213492   2.026   2.183   0.802 -1.1039 -0.0346 -1.5426
 4496TIP3   OH213493   0.199   3.449   5.030 -0.3752  0.7493  0.3362
 4496TIP3    H113494   0.228   3.527   4.984 -0.1536 -0.7360 -2.2731
 4496TIP3    H213495   0.281   3.407   5.059 -0.4658  1.2220  1.2900
 4497TIP3   OH213496   1.423   1.028   4.504  0.2832 -0.3785 -0.7758
 4497TIP3    H113497   1.364   1.084   4.454  0.7798 -0.9358 -2.0294
 4497TIP3    H213498   1.365   0.980   4.563 -0.5604 -1.0019 -2.0640
 4498TIP3   OH213499   5.468   2.161   1.862  0.7557  0.4385  0.2928
 4498TIP3    H113500   5.408   2.111   1.807  1.3777 -0.4656  0.4213
 4498TIP3    H213501   5.501   2.231   1.806  1.0593 -0.2194 -0.3514
 4499TIP3   OH213502   4.883   0.072   1.686  0.1188 -0.5053 -0.0952
 4499TIP3    H113503   4.955   0.131   1.711  0.7414 -0.5822 -1.6099
 4499TIP3    H213504   4.859   0.099   1.598 -1.1688 -1.0315  0.0716
 4500TIP3   OH213505   1.576   4.217   1.583  0.2561 -0.1241 -0.2100
 4500TIP3    H113506   1.661   4.190   1.548 -0.0293  2.6862 -3.6598
 4500TIP3    H213507   1.594   4.299   1.629 -0.2749 -0.8893  1.4374
 4501TIP3   OH213508   3.720   0.281   1.067 -0.1013  0.3855  0.0580
 4501TIP3    H113509   3.640   0.234   1.092 -0.3801  0.7806 -0.0817
 4501TIP3    H213510   3.779   0.213   1.034 -0.3075  0.0678  0.3420
 4502TIP3   OH213511   5.757   1.765   4.092  0.0146 -0.3227  0.7622
 4502TIP3    H113512   5.767   1.735   4.002  1.8076  1.2286  0.3645
 4502TIP3    H213513   5.833   1.728   4.138  0.2650  0.5887  1.1071
 4503TIP3   OH213514   4.741   3.193   4.522  0.5975  0.5014  0.3612
 4503TIP3    H113515   4.765   3.284   4.503 -0.5610  0.4416 -1.7671
 4503TIP3    H213516   4.659   3.199   4.571  1.5099  0.5873  1.9501
 4504TIP3   OH213517   4.314   4.243   3.478  0.0248  0.1068 -0.5834
 4504TIP3    H113518   4.401   4.206   3.493 -0.0247  0.2402  0.0675
 4504TIP3    H213519   4.279   4.258   3.566 -0.1276  1.2947 -0.8292
 4505TIP3   OH213520   2.639   0.731   1.662 -0.2110  0.4133  0.0732
 4505TIP3    H113521   2.581   0.662   1.693 -2.2234  2.7420  1.8772
 4505TIP3    H213522   2.590   0.774   1.592 -0.0848  1.4898  0.6206
 4506TIP3   OH213523   4.922   5.830   1.196  0.1102  0.3016 -0.2931
 4506TIP3    H113524   4.877   5.837   1.112  0.9474  0.3558 -0.7484
 4506TIP3    H213525   5.005   5.876   1.183 -0.4079  1.6847  1.0578
 4507TIP3   OH213526   5.730  -0.010   0.800  0.3167 -0.1212  0.1687
 4507TIP3    H113527   5.807   0.001   0.856  2.1358 -1.6337 -1.8298
 4507TIP3    H213528   5.718   0.076   0.759  1.0775  0.0926  0.3695
 4508TIP3   OH213529   0.992   4.567   2.379 -0.4931 -0.1373  0.5112
 4508TIP3    H113530   0.996   4.487   2.327  0.9885  0.5340 -0.4998
 4508TIP3    H213531   0.899   4.590   2.382 -0.7049 -0.6440 -1.1861
 4509TIP3   OH213532   2.041   5.894   2.970  0.3321  0.3095 -0.2594
 4509TIP3    H113533   2.055   5.974   3.020 -0.3748  1.7405 -2.1838
 4509TIP3    H213534   2.092   5.907   2.890  0.3453 -1.2547 -0.5336
 4510TIP3   OH213535   0.675   1.986   0.357  0.1017 -0.8422 -0.6460
 4510TIP3    H113536   0.611   2.016   0.422  1.7720  0.7991  0.3817
 4510TIP3    H213537   0.702   1.899   0.387  0.0370 -0.5600  0.2570
 4511TIP3   OH213538   5.161   0.759   0.458 -0.3711  0.0728  0.0138
 4511TIP3    H113539   5.079   0.721   0.491 -0.2738 -0.2069 -0.0588
 4511TIP3    H213540   5.195   0.811   0.531 -0.5290  0.0520  0.1027
 4512TIP3   OH213541   4.794   4.402   1.580 -0.5539  0.2352  0.2163
 4512TIP3    H113542   4.800   4.481   1.527 -1.0975 -0.7889 -1.4775
 4512TIP3    H213543   4.724   4.351   1.538  0.2246 -1.4185  0.8428
 4513TIP3   OH213544   3.949   0.616   3.062  0.0583 -0.7135 -0.3679
 4513TIP3    H113545   4.001   0.552   3.013  1.6625  0.7540 -0.6579
 4513TIP3    H213546   4.006   0.692   3.071 -2.6354  1.7619 -2.3470
 4514TIP3   OH213547   3.272   2.219   4.813  0.5569 -0.6160 -0.3636
 4514TIP3    H113548   3.200   2.279   4.833  0.5922 -1.2521  2.0397
 4514TIP3    H213549   3.288   2.231   4.719 -1.4895  0.8194 -0.6064
 4515TIP3   OH213550   1.138   1.880   4.783 -0.0508 -0.6635  0.0502
 4515TIP3    H113551   1.210   1.852   4.727  0.5060 -0.2939  0.5635
 4515TIP3    H213552   1.063   1.829   4.753 -0.0814  0.4147 -1.8622
 4516TIP3   OH213553   4.559   5.418   2.263 -0.2697 -0.0079  0.5358
 4516TIP3    H113554   4.550   5.482   2.333 -0.3700  0.4495  0.1139
 4516TIP3    H213555   4.559   5.470   2.183  0.8286 -0.4458  0.2384
 4517TIP3   OH213556   2.690   1.243   1.207  0.2943 -0.3651  0.1360
 4517TIP3    H113557   2.749   1.307   1.166 -0.1772  0.4480  0.6964
 4517TIP3    H213558   2.714   1.245   1.300  0.9819 -1.7839  0.0145
 4518TIP3   OH213559   4.454   0.868   3.245 -0.3312 -0.0735  0.1714
 4518TIP3    H113560   4.535   0.867   3.194 -1.3925  1.3606 -1.6814
 4518TIP3    H213561   4.460   0.792   3.303  2.2398 -0.0887 -0.0222
 4519TIP3   OH213562   5.463   5.662   4.007  0.3446  0.5057  0.4354
 4519TIP3    H113563   5.426   5.591   3.955  2.7998  0.8193 -1.9455
 4519TIP3    H213564   5.397   5.732   4.001  0.6183  0.6262 -2.6132
 4520TIP3   OH213565   2.795   5.843   3.070 -0.0779  0.0440  0.3913
 4520TIP3    H113566   2.875   5.804   3.105  0.4150 -1.9434 -2.6105
 4520TIP3    H213567   2.817   5.936   3.060  0.3213  0.3979  3.4123
 4521TIP3   OH213568   1.417   0.585   0.665 -0.7226  0.5851 -0.0203
 4521TIP3    H113569   1.451   0.505   0.625 -1.7100  0.0414  0.1719
 4521TIP3    H213570   1.388   0.638   0.590 -0.9772  0.3242 -0.1098
 4522TIP3   OH213571   2.986   0.279   2.508  0.3049  0.0074 -0.5203
 4522TIP3    H113572   2.949   0.198   2.543 -0.8482  1.6311  2.3413
 4522TIP3    H213573   3.048   0.250   2.442  0.6999 -3.2602  1.0809
 4523TIP3   OH213574   0.080   1.934   0.119 -0.3217 -0.1419 -0.3556
 4523TIP3    H113575   0.151   1.975   0.069  0.4379 -0.2222  0.6130
 4523TIP3    H213576   0.074   1.987   0.199 -0.8495 -0.5931 -0.0897
 4524TIP3   OH213577   3.927   5.643   0.532  0.6479  0.2823  0.0518
 4524TIP3    H113578   3.949   5.564   0.483  1.0605  0.1563  0.4375
 4524TIP3    H213579   3.849   5.620   0.582  1.4668 -0.2809  1.1063
 4525TIP3   OH213580   0.468   4.008   1.974  0.7501  0.6009  0.0695
 4525TIP3    H113581   0.379   3.973   1.968  2.0800 -3.2731 -0.2764
 4525TIP3    H213582   0.499   3.977   2.059  2.8252 -1.3369 -1.2747
 4526TIP3   OH213583   4.500   4.786   4.215 -0.0590 -0.1420  0.0374
 4526TIP3    H113584   4.412   4.757   4.240  0.2187 -0.3293  0.8488
 4526TIP3    H213585   4.547   4.793   4.299  1.3056 -2.0033 -0.5265
 4527TIP3   OH213586   4.808   0.397   1.286 -0.3676  0.6122  0.4495
 4527TIP3    H113587   4.805   0.427   1.377 -0.5899  0.9882  0.3234
 4527TIP3    H213588   4.794   0.477   1.234  0.2470  0.4799  0.0721
 4528TIP3   OH213589   2.733   1.260   1.492  0.2542  0.5340 -0.2448
 4528TIP3    H113590   2.701   1.214   1.570  1.8261 -0.1877  0.0068
 4528TIP3    H213591   2.827   1.244   1.492  0.3005  0.6006 -2.2409
 4529TIP3   OH213592   0.144   2.405   5.007  0.4431  0.1702  0.2527
 4529TIP3    H113593   0.141   2.422   4.913  1.8068  0.3769  0.2266
 4529TIP3    H213594   0.093   2.475   5.047  0.4581  0.4863 -0.2864
 4530TIP3   OH213595   5.324   0.431   4.969 -0.5818 -0.0245 -1.0071
 4530TIP3    H113596   5.360   0.506   4.921  0.6557 -0.6323 -1.0773
 4530TIP3    H213597   5.401   0.377   4.990 -1.5606 -2.0441 -2.2668
 4531TIP3   OH213598   3.138   4.288   0.823 -0.4164  0.1451  0.0794
 4531TIP3    H113599   3.047   4.258   0.811  0.0186 -0.6931 -1.3671
 4531TIP3    H213600   3.130   4.365   0.879 -1.7405 -1.5669  2.4188
 4532TIP3   OH213601   4.828   4.254   2.192  0.2521  0.0547 -0.2495
 4532TIP3    H113602   4.833   4.293   2.279 -2.4210 -1.0030  0.4672
 4532TIP3    H213603   4.899   4.297   2.143  1.1597  1.4581  2.0964
 4533TIP3   OH213604   3.587   4.275   4.457 -1.0040  0.7912 -0.0425
 4533TIP3    H113605   3.643   4.325   4.398  2.5057 -3.4286 -0.7768
 4533TIP3    H213606   3.517   4.240   4.402  0.9552 -1.2397 -1.4123
 4534TIP3   OH213607   4.803   0.982   4.114  0.3757  0.2694  0.5916
 4534TIP3    H113608   4.760   0.949   4.193 -0.7945  0.3948  0.0332
 4534TIP3    H213609   4.753   0.943   4.042 -0.3273  2.2904 -0.0868
 4535TIP3   OH213610   0.471   1.812   5.158 -0.1419 -0.6726  0.4588
 4535TIP3    H113611   0.483   1.865   5.237  0.1370  1.2435 -0.8139
 4535TIP3    H213612   0.547   1.754   5.157  1.7336  1.6156 -0.0813
 4536TIP3   OH213613   2.206   2.873   4.653  0.1195  0.4501  0.2107
 4536TIP3    H113614   2.293   2.858   4.616  0.0902  0.8553 -0.0240
 4536TIP3    H213615   2.171   2.785   4.668  0.8914  0.2729  1.0732
 4537TIP3   OH213616   0.905   0.144   2.603 -0.7433  0.0281 -0.2432
 4537TIP3    H113617   0.852   0.204   2.551 -2.8887 -0.6715  1.0097
 4537TIP3    H213618   0.930   0.195   2.680 -0.3677  0.0763 -0.3954
 4538TIP3   OH213619   5.874   5.366   4.028 -0.7267  0.0913 -0.0868
 4538TIP3    H113620   5.917   5.300   3.975 -0.8219 -0.1293  0.1082
 4538TIP3    H213621   5.882   5.334   4.118  1.6019  1.6297  0.3409
 4539TIP3   OH213622   6.051   2.056   4.760 -0.1300  0.2741 -0.1748
 4539TIP3    H113623   6.015   2.008   4.685 -1.6124  0.9030  0.0916
 4539TIP3    H213624   6.047   2.148   4.733  2.5831  0.3226 -0.6455
 4540TIP3   OH213625   1.355   3.107   1.366  0.3472  0.0942 -0.0397
 4540TIP3    H113626   1.419   3.129   1.298 -0.5710  0.0811 -0.9282
 4540TIP3    H213627   1.357   3.012   1.371  2.4428  0.1348  1.9848
 4541TIP3   OH213628   0.481   4.274   3.799  0.1068  0.4084  0.2140
 4541TIP3    H113629   0.557   4.280   3.857 -0.0122 -0.4827  0.4816
 4541TIP3    H213630   0.497   4.194   3.748 -2.4698 -2.1490  2.9985
 4542TIP3   OH213631   6.141   4.325   2.706 -0.7214 -0.0269 -0.3775
 4542TIP3    H113632   6.135   4.419   2.718 -0.5146 -0.1516  0.7602
 4542TIP3    H213633   6.056   4.291   2.733 -0.8070 -0.1674 -0.8155
 4543TIP3   OH213634   1.923   2.200   4.951  0.1035  0.4203  0.0244
 4543TIP3    H113635   1.886   2.119   4.916 -0.6409  1.0880 -0.7766
 4543TIP3    H213636   1.987   2.227   4.885  0.9503  0.0662  0.6833
 4544TIP3   OH213637   0.590   5.507   1.381 -0.3258  0.0423 -0.9194
 4544TIP3    H113638   0.599   5.417   1.413 -0.5960  0.5063  0.4985
 4544TIP3    H213639   0.510   5.539   1.421  0.3494  1.2762 -0.5100
 4545TIP3   OH213640   2.394   5.228   1.835  0.4360  0.0367 -0.3460
 4545TIP3    H113641   2.377   5.231   1.930  1.3374 -0.4079 -0.1597
 4545TIP3    H213642   2.336   5.295   1.799 -0.4267 -0.2574  0.4396
 4546TIP3   OH213643   0.424   1.368   1.768  0.1360  0.1590 -0.7113
 4546TIP3    H113644   0.501   1.423   1.781  0.3775 -0.1062 -1.0255
 4546TIP3    H213645   0.378   1.372   1.852  0.7328 -0.0649 -0.3681
 4547TIP3   OH213646   3.503   4.458   0.391  0.3407 -0.2507 -0.1280
 4547TIP3    H113647   3.498   4.510   0.311  0.4534  1.0601  0.6848
 4547TIP3    H213648   3.413   4.457   0.424  0.1144 -1.5983 -0.7557
 4548TIP3   OH213649   5.737   5.710   0.093  0.7221  0.3702 -0.1063
 4548TIP3    H113650   5.748   5.617   0.077  2.3327  0.6555 -0.8007
 4548TIP3    H213651   5.787   5.728   0.172 -1.0917  0.3481  1.1087
 4549TIP3   OH213652   1.319   1.576   4.381  0.1620 -0.0291  0.4916
 4549TIP3    H113653   1.236   1.551   4.341  0.5838 -0.0361 -0.4033
 4549TIP3    H213654   1.325   1.522   4.460 -0.2223 -0.7502  0.0399
 4550TIP3   OH213655   5.481   2.245   0.196  0.1029 -0.2126  0.3675
 4550TIP3    H113656   5.440   2.325   0.162 -0.2966  0.5698  2.5183
 4550TIP3    H213657   5.458   2.177   0.132 -0.8937  1.0699 -0.6959
 4551TIP3   OH213658   1.742   2.275   1.957 -0.0749  0.4612 -0.5874
 4551TIP3    H113659   1.788   2.215   1.898  0.7755  0.2092  0.3100
 4551TIP3    H213660   1.701   2.218   2.022 -0.2350  0.7869 -0.4028
 4552TIP3   OH213661   5.758   3.845   3.772 -0.0673  0.2039 -0.3143
 4552TIP3    H113662   5.799   3.799   3.698 -1.9320 -1.0478 -0.6453
 4552TIP3    H213663   5.807   3.817   3.849  1.2844  0.7624 -0.9477
 4553TIP3   OH213664   3.675   2.055   4.111 -0.2731  0.3700  0.7823
 4553TIP3    H113665   3.618   1.987   4.074  0.3580  1.2862 -2.1469
 4553TIP3    H213666   3.628   2.137   4.095  0.5346  0.8978  1.0531
 4554TIP3   OH213667   4.111   0.332   4.399 -0.4343 -0.1171  0.2429
 4554TIP3    H113668   4.148   0.406   4.447 -0.5861 -1.0781  1.8978
 4554TIP3    H213669   4.121   0.357   4.307  0.3755  1.5367  0.7297
 4555TIP3   OH213670   1.473   5.372  -0.017 -0.3876  0.4300 -0.1415
 4555TIP3    H113671   1.424   5.296   0.013 -0.6794  0.4484 -0.5557
 4555TIP3    H213672   1.541   5.384   0.049  0.0319 -0.5491 -0.3699
 4556TIP3   OH213673   6.272   1.904   4.814 -0.0798  0.0837  0.1237
 4556TIP3    H113674   6.326   1.959   4.871 -1.8695  1.1270  0.9063
 4556TIP3    H213675   6.187   1.948   4.811 -0.1228  0.0091 -3.3213
 4557TIP3   OH213676   1.595   5.774   4.815  0.0136 -0.1446 -0.2831
 4557TIP3    H113677   1.656   5.846   4.801  1.7542 -1.6760 -1.0555
 4557TIP3    H213678   1.573   5.743   4.727 -0.5051 -0.7304  0.0381
 4558TIP3   OH213679   2.849   2.836   0.619 -0.3671 -0.0420 -0.0225
 4558TIP3    H113680   2.873   2.928   0.617 -0.5794  0.0385 -2.4362
 4558TIP3    H213681   2.779   2.830   0.684  0.0143  1.3723  0.5577
 4559TIP3   OH213682   0.511   3.354   0.269 -0.4271 -0.2277 -0.0791
 4559TIP3    H113683   0.556   3.435   0.295 -0.2418 -0.2372 -0.3659
 4559TIP3    H213684   0.456   3.332   0.344 -1.0913  0.6033 -0.3105
 4560TIP3   OH213685   0.305   5.178   2.804 -0.4646 -0.2258 -0.3919
 4560TIP3    H113686   0.262   5.093   2.797  0.0799 -0.4966 -0.5455
 4560TIP3    H213687   0.286   5.222   2.722 -2.3214  0.5757  0.4084
 4561TIP3   OH213688   0.783   0.603   3.956  0.5179 -0.4336 -0.0635
 4561TIP3    H113689   0.774   0.675   3.893  1.6649  0.3465  0.6146
 4561TIP3    H213690   0.817   0.530   3.904  3.1536  0.7174 -0.1317
 4562TIP3   OH213691   1.712   1.722   4.684 -1.0900  0.1476 -0.3847
 4562TIP3    H113692   1.636   1.748   4.736  0.4059  1.1519  1.4324
 4562TIP3    H213693   1.758   1.659   4.739  0.2252  0.7767 -0.7347
 4563TIP3   OH213694   2.258   1.850   2.839  0.1810 -0.0356 -0.7124
 4563TIP3    H113695   2.253   1.941   2.811  0.8487  0.3851  0.4863
 4563TIP3    H213696   2.273   1.854   2.933  0.0852 -1.3880 -0.6180
 4564TIP3   OH213697   2.534   5.690   2.893 -0.3922 -0.5791  0.2388
 4564TIP3    H113698   2.486   5.678   2.975 -2.5631  1.0890 -0.6844
 4564TIP3    H213699   2.466   5.705   2.827  1.2780  4.4457 -0.7740
 4565TIP3   OH213700   4.007   5.130   0.517  0.4381 -0.1393 -0.0041
 4565TIP3    H113701   4.042   5.047   0.485  0.7361  0.0577 -0.1951
 4565TIP3    H213702   4.079   5.192   0.507  0.0444  0.2690 -0.3845
 4566TIP3   OH213703   0.082   1.694   4.668  0.2537  0.0406 -0.0374
 4566TIP3    H113704   0.167   1.718   4.703  0.2214 -0.7073  0.5702
 4566TIP3    H213705   0.030   1.774   4.676  0.6226  0.2401  0.4564
 4567TIP3   OH213706   3.868   2.108   1.210  0.7998 -0.3431 -0.3538
 4567TIP3    H113707   3.921   2.135   1.285  1.6684  2.4459 -1.8474
 4567TIP3    H213708   3.849   2.015   1.226  1.3239  0.0221  3.0286
 4568TIP3   OH213709   1.109   2.040   1.519  0.1481  0.4433 -0.0703
 4568TIP3    H113710   1.102   2.084   1.604  0.8093  2.5738 -1.0382
 4568TIP3    H213711   1.204   2.033   1.504  0.0394  0.8091 -0.9701
 4569TIP3   OH213712   3.169   3.115   1.382  0.0904 -0.0433 -0.3762
 4569TIP3    H113713   3.157   3.207   1.356 -2.0811 -0.5505 -1.4004
 4569TIP3    H213714   3.236   3.082   1.322  2.2848  1.2694  1.2015
 4570TIP3   OH213715   1.105   3.660   0.940 -0.0698  0.2346 -0.0017
 4570TIP3    H113716   1.058   3.738   0.969  0.7312  0.8832 -0.3770
 4570TIP3    H213717   1.101   3.600   1.014  0.2545  1.0798  0.7303
 4571TIP3   OH213718   5.415   2.360   0.426 -0.0172 -0.2594  0.1827
 4571TIP3    H113719   5.503   2.393   0.410  0.3553 -0.6128  1.4132
 4571TIP3    H213720   5.403   2.291   0.361 -0.1375  1.0499 -1.2548
 4572TIP3   OH213721   2.246   3.631   0.123  0.2223 -0.1844  0.4853
 4572TIP3    H113722   2.195   3.568   0.174 -1.0255 -0.4320 -1.0033
 4572TIP3    H213723   2.329   3.638   0.171  0.4009 -2.9122  0.7600
 4573TIP3   OH213724   0.903   3.021   1.216  0.0906  0.1023  0.5387
 4573TIP3    H113725   0.965   3.040   1.145  0.7962  0.9219  1.3450
 4573TIP3    H213726   0.908   2.926   1.227  0.6373  0.0688  0.0796
 4574TIP3   OH213727   3.112   2.956   2.753 -0.4328  0.0067 -0.1087
 4574TIP3    H113728   3.058   2.896   2.805  1.4480 -0.0855  1.8641
 4574TIP3    H213729   3.196   2.911   2.743  0.4710  1.5866 -0.0191
 4575TIP3   OH213730   2.393   1.680   3.901 -0.0067  1.3018 -0.1446
 4575TIP3    H113731   2.327   1.733   3.946 -0.3446  1.5433 -0.8957
 4575TIP3    H213732   2.388   1.710   3.810 -0.8819 -0.6801 -0.8049
 4576TIP3   OH213733   0.377   1.409   4.038 -0.3149 -0.1171 -0.6542
 4576TIP3    H113734   0.311   1.392   4.105  0.3871  0.1278  0.1195
 4576TIP3    H213735   0.401   1.501   4.050 -0.4010  0.0180 -1.4471
 4577TIP3   OH213736   2.079   5.957   1.592 -0.2688 -0.5900  0.3162
 4577TIP3    H113737   1.997   5.968   1.640  0.4247  0.7038  1.2716
 4577TIP3    H213738   2.146   5.948   1.660  0.5335 -0.3515 -0.4242
 4578TIP3   OH213739   6.342   5.619   1.376  0.0758  0.4875  0.1736
 4578TIP3    H113740   6.383   5.664   1.450 -0.6910 -0.6010  1.2907
 4578TIP3    H213741   6.316   5.534   1.411 -4.3790  1.5174  0.0113
 4579TIP3   OH213742   0.263   3.073   4.248 -0.4024  0.7881 -0.7458
 4579TIP3    H113743   0.175   3.065   4.284 -0.3658 -1.2113 -0.9794
 4579TIP3    H213744   0.318   3.090   4.325 -0.7499 -0.0029 -0.3056
 4580TIP3   OH213745   3.621   4.764   3.755 -0.4234 -0.2838 -0.2928
 4580TIP3    H113746   3.580   4.718   3.828 -0.1410 -2.2589 -1.2968
 4580TIP3    H213747   3.563   4.838   3.737 -1.3651 -0.7019  0.8647
 4581TIP3   OH213748   2.953   1.716   3.641  0.0626 -0.1303 -0.3801
 4581TIP3    H113749   2.972   1.626   3.615  2.3082  0.2893 -0.3802
 4581TIP3    H213750   2.884   1.709   3.706  0.2259 -1.8501 -0.3617
 4582TIP3   OH213751  -0.002   0.357   0.232 -0.1590  0.6635 -0.0739
 4582TIP3    H113752   0.011   0.290   0.298 -1.1982  0.7779  0.2628
 4582TIP3    H213753   0.037   0.320   0.152  0.8380  0.4062  0.5116
 4583TIP3   OH213754   0.907   4.311   3.682 -0.0252 -0.2479  0.3411
 4583TIP3    H113755   0.944   4.223   3.691  0.9480  0.0904 -0.1932
 4583TIP3    H213756   0.978   4.370   3.709 -0.7935  0.3793  1.0819
 4584TIP3   OH213757   3.991   1.583   3.547 -0.0348  0.8641  0.0690
 4584TIP3    H113758   4.045   1.517   3.590 -1.0802 -0.2069 -0.2274
 4584TIP3    H213759   4.009   1.664   3.596  0.6308  0.1970  0.9625
 4585TIP3   OH213760   2.720   4.793   2.617 -0.0995  0.1036  0.0677
 4585TIP3    H113761   2.714   4.801   2.712  0.9310 -0.9307  0.2436
 4585TIP3    H213762   2.648   4.847   2.584 -0.5318  0.4074  1.4289
 4586TIP3   OH213763   3.170   4.848   2.054 -0.2377 -0.2086  0.9217
 4586TIP3    H113764   3.206   4.936   2.039 -0.5031 -0.3588 -0.8599
 4586TIP3    H213765   3.243   4.789   2.034 -0.8514 -0.4532 -0.6843
 4587TIP3   OH213766   1.867   0.044   1.031  1.0788  0.4299  0.3742
 4587TIP3    H113767   1.831  -0.007   0.958 -0.7050 -1.2253  2.2794
 4587TIP3    H213768   1.948  -0.001   1.054  1.1734  0.4138  0.0242
 4588TIP3   OH213769   4.719   0.059   4.763  0.2687 -0.1201  0.6976
 4588TIP3    H113770   4.697   0.054   4.856 -1.2111 -1.5037  0.3051
 4588TIP3    H213771   4.753  -0.028   4.742  2.2481  0.6906  0.2894
 4589TIP3   OH213772   0.193   2.026   4.176  0.2566  0.6842  0.0389
 4589TIP3    H113773   0.121   1.964   4.188  1.2568 -0.5484 -0.1966
 4589TIP3    H213774   0.174   2.068   4.091  0.5453 -0.6563 -0.7150
 4590TIP3   OH213775   6.128   0.934   5.060  0.0969 -0.3964  0.2964
 4590TIP3    H113776   6.068   1.008   5.055  0.8464  0.2032 -0.0576
 4590TIP3    H213777   6.106   0.880   4.984 -0.1257 -0.2825  0.2787
 4591TIP3   OH213778   1.860   2.729   2.920  0.2491 -0.5921 -0.2558
 4591TIP3    H113779   1.894   2.746   2.832 -0.7805  2.3572 -0.2095
 4591TIP3    H213780   1.787   2.668   2.906 -0.1601  0.1521 -1.5216
 4592TIP3   OH213781   0.693   3.569   0.337  0.1652 -0.1936 -0.0691
 4592TIP3    H113782   0.661   3.645   0.287  1.0573  0.8626  0.9100
 4592TIP3    H213783   0.778   3.549   0.298 -0.8435 -1.9397 -1.5632
 4593TIP3   OH213784   3.662   5.830   4.426  0.0536 -0.1250  0.2817
 4593TIP3    H113785   3.681   5.834   4.332  0.7655  0.7072  0.4421
 4593TIP3    H213786   3.749   5.830   4.467 -0.2297 -1.4515  0.9222
 4594TIP3   OH213787   6.137   5.591   4.781 -0.3188 -0.1963  0.1619
 4594TIP3    H113788   6.157   5.594   4.687 -0.1505 -2.0415  0.0979
 4594TIP3    H213789   6.154   5.680   4.812 -0.5202  0.4910 -1.5787
 4595TIP3   OH213790   1.401   5.683   0.449  0.2673 -0.5071 -0.1520
 4595TIP3    H113791   1.337   5.710   0.515 -0.6657 -1.5407 -0.5899
 4595TIP3    H213792   1.368   5.721   0.367  2.0715  1.8202  0.0804
 4596TIP3   OH213793   3.825   5.286   4.824  0.1785  0.2317 -0.0480
 4596TIP3    H113794   3.806   5.377   4.803 -0.0688  0.3617  0.7023
 4596TIP3    H213795   3.920   5.279   4.816  0.2020  0.5595 -0.0738
 4597TIP3   OH213796   6.031   0.429   1.102  0.3706  0.5367  0.4165
 4597TIP3    H113797   6.096   0.402   1.037 -1.4355  2.1852 -2.2514
 4597TIP3    H213798   5.952   0.381   1.078  0.0117  0.0743  2.3666
 4598TIP3   OH213799   2.609   4.467   1.798  0.0243  0.0537  0.0974
 4598TIP3    H113800   2.578   4.512   1.876 -1.3640  0.5001 -0.6870
 4598TIP3    H213801   2.668   4.529   1.756  0.2178  0.0850  0.4110
 4599TIP3   OH213802   1.024   0.369   2.756  0.2723  0.6159 -0.3407
 4599TIP3    H113803   0.993   0.410   2.837  1.2422  1.0115 -0.1563
 4599TIP3    H213804   1.052   0.442   2.701  0.9050  0.2808 -0.4769
 4600TIP3   OH213805   5.179   5.916   1.144 -0.2537  0.2969 -0.0105
 4600TIP3    H113806   5.214   6.001   1.116 -0.8210  0.5084 -0.0998
 4600TIP3    H213807   5.254   5.857   1.143  0.2515  0.9121  0.5356
 4601TIP3   OH213808   1.914   2.351   1.577  0.6740 -0.0473  0.2721
 4601TIP3    H113809   1.865   2.433   1.581 -1.0978 -1.1073  1.3156
 4601TIP3    H213810   2.002   2.374   1.607  0.2325  1.4686  0.4730
 4602TIP3   OH213811   5.751   2.455   3.983 -0.7847 -0.0859  0.0357
 4602TIP3    H113812   5.785   2.370   3.954  0.6619  0.4400  0.1181
 4602TIP3    H213813   5.764   2.513   3.908 -3.0974 -0.2219 -0.5489
 4603TIP3   OH213814   2.037   4.448   3.494 -0.6559 -0.0067 -0.3707
 4603TIP3    H113815   1.948   4.416   3.482  0.0334 -2.3797  0.2220
 4603TIP3    H213816   2.087   4.408   3.423 -0.1513  1.8642 -1.1202
 4604TIP3   OH213817   2.327   3.683   5.026  0.0055  0.5304 -0.3569
 4604TIP3    H113818   2.353   3.594   5.002  0.6267 -0.1297  2.4721
 4604TIP3    H213819   2.406   3.735   5.011  1.1741 -0.3182  2.2310
 4605TIP3   OH213820   2.120   0.628   3.835  0.2112  0.0132 -1.0115
 4605TIP3    H113821   2.194   0.668   3.881 -0.7596  0.5096  0.2021
 4605TIP3    H213822   2.157   0.553   3.790  1.0746 -1.2285  1.5770
 4606TIP3   OH213823   4.439   0.315   1.853 -0.8637  0.6580 -0.3748
 4606TIP3    H113824   4.499   0.311   1.778 -2.8989  0.0306 -2.0890
 4606TIP3    H213825   4.396   0.400   1.844 -1.3948  0.4158 -0.1680
 4607TIP3   OH213826   3.164   1.710   3.197 -0.5156 -0.3187 -0.3450
 4607TIP3    H113827   3.177   1.781   3.134 -1.0472  0.4520  0.3909
 4607TIP3    H213828   3.189   1.631   3.149 -0.9914  0.2314 -1.5582
 4608TIP3   OH213829   2.674   1.257   4.850 -0.0618  0.8293  0.7794
 4608TIP3    H113830   2.751   1.232   4.799  0.3214  1.2348  1.1521
 4608TIP3    H213831   2.681   1.352   4.860  0.6206  0.6063  2.7638
 4609TIP3   OH213832   4.073   2.476   0.564  0.5024  0.0347  0.1045
 4609TIP3    H113833   4.101   2.385   0.551  1.4427  0.4865 -1.3870
 4609TIP3    H213834   4.154   2.527   0.553  0.3970  0.9649  2.9269
 4610TIP3   OH213835   5.911   0.971   4.820  0.4705  0.4754  0.0318
 4610TIP3    H113836   5.915   0.942   4.911  0.9048  2.5988  0.7313
 4610TIP3    H213837   5.819   0.994   4.805 -0.1898 -2.3735 -0.9691
 4611TIP3   OH213838   4.520   1.649   1.181  0.3302 -0.0351  0.1998
 4611TIP3    H113839   4.492   1.740   1.196  0.4865  0.1608 -0.6342
 4611TIP3    H213840   4.541   1.616   1.268 -0.3115  0.5377  0.5889
 4612TIP3   OH213841   0.101   0.077   1.449 -0.7785 -0.7456  0.5158
 4612TIP3    H113842   0.168   0.107   1.511 -0.0940 -0.5556 -0.2934
 4612TIP3    H213843   0.020   0.115   1.482 -0.3785 -0.4047  1.1356
 4613TIP3   OH213844   0.829   3.888   4.882  0.0624  0.1366 -0.3990
 4613TIP3    H113845   0.873   3.964   4.844  0.3555  0.9776  1.5251
 4613TIP3    H213846   0.900   3.829   4.907  0.2091  1.3086  2.3148
 4614TIP3   OH213847   1.040   1.880   2.069  0.3335  0.3050 -0.3764
 4614TIP3    H113848   0.954   1.869   2.029 -0.0615 -2.4648  0.9569
 4614TIP3    H213849   1.028   1.947   2.136 -0.4079  0.9738 -1.1704
 4615TIP3   OH213850   2.745   4.356   1.545 -0.4250 -0.1790 -0.1725
 4615TIP3    H113851   2.698   4.413   1.606  0.2743  0.9843 -0.6854
 4615TIP3    H213852   2.817   4.319   1.597  1.1469  2.0547 -0.5987
 4616TIP3   OH213853   5.400   1.255   5.039 -0.7749 -0.3145 -0.4193
 4616TIP3    H113854   5.438   1.273   4.953 -0.0886 -0.6750 -0.1950
 4616TIP3    H213855   5.465   1.201   5.084  0.0679  1.9904  1.3018
 4617TIP3   OH213856   3.504   5.153   3.121 -0.9526 -0.0174 -0.4706
 4617TIP3    H113857   3.509   5.088   3.051  0.0330 -1.2097  0.6572
 4617TIP3    H213858   3.578   5.212   3.106 -0.6549 -0.3612 -0.3512
 4618TIP3   OH213859   1.379   4.545   3.781 -0.2215  0.3613  0.5176
 4618TIP3    H113860   1.382   4.536   3.685  1.0870  1.7644  0.3934
 4618TIP3    H213861   1.415   4.463   3.814  1.7345  0.8355 -0.2874
 4619TIP3   OH213862   4.886   4.246   0.577  0.0003  0.1634  0.1072
 4619TIP3    H113863   4.793   4.228   0.564  0.1956 -0.0397 -1.1229
 4619TIP3    H213864   4.888   4.330   0.624 -0.7883  0.8480 -1.0581
 4620TIP3   OH213865   5.972   1.645   4.451 -0.3688 -0.4617  1.0802
 4620TIP3    H113866   6.029   1.569   4.445 -0.6479 -0.5871 -1.2867
 4620TIP3    H213867   5.941   1.646   4.541  3.2867 -0.4018  2.5068
 4621TIP3   OH213868   5.209   4.603   1.965  0.1923  0.6510  0.7409
 4621TIP3    H113869   5.217   4.698   1.972 -0.3366  0.8674 -1.0740
 4621TIP3    H213870   5.268   4.579   1.894  2.1482 -0.7388  2.6969
 4622TIP3   OH213871   0.278   4.143   2.655  0.1871 -0.6484 -0.3847
 4622TIP3    H113872   0.359   4.110   2.616  0.8239 -1.0111  1.1547
 4622TIP3    H213873   0.273   4.235   2.627  0.1061 -1.1336 -2.0452
 4623TIP3   OH213874   2.471   2.219   2.361 -0.3107 -0.6122  0.4317
 4623TIP3    H113875   2.377   2.235   2.354 -0.0723  0.6071 -0.1097
 4623TIP3    H213876   2.488   2.147   2.300 -0.3728  1.4026 -2.1500
 4624TIP3   OH213877   1.609   4.811   1.404 -0.6254 -0.3703 -0.2928
 4624TIP3    H113878   1.522   4.849   1.409 -0.2783  0.7441 -1.8622
 4624TIP3    H213879   1.594   4.717   1.391 -1.5177 -0.5982  2.0136
 4625TIP3   OH213880   3.124   1.031   2.958 -0.1531 -0.2783  0.5885
 4625TIP3    H113881   3.211   1.006   2.990  0.7501  1.2247 -0.5576
 4625TIP3    H213882   3.132   1.124   2.937 -2.1196 -0.0534  0.6268
 4626TIP3   OH213883   1.815   4.973   1.213  0.0830  0.3685 -0.1432
 4626TIP3    H113884   1.746   4.926   1.259 -0.9657  1.5116 -0.5263
 4626TIP3    H213885   1.774   5.005   1.133  1.2628  0.4165 -0.7553
 4627TIP3   OH213886   6.212   1.829   0.834  0.4661  0.0360  0.6666
 4627TIP3    H113887   6.228   1.848   0.927  0.4857 -0.3449  0.7431
 4627TIP3    H213888   6.231   1.736   0.825  2.0209  0.3838 -0.0526
 4628TIP3   OH213889   0.072   5.069   3.420 -0.1014  0.2605  0.0080
 4628TIP3    H113890   0.128   5.060   3.343  1.9252  0.0971  1.4225
 4628TIP3    H213891   0.062   5.164   3.431 -0.3871  0.2841 -0.4442
 4629TIP3   OH213892   3.892   2.248   5.152  0.5881 -0.4833  0.2751
 4629TIP3    H113893   3.959   2.179   5.150  0.7507 -0.4447  2.3373
 4629TIP3    H213894   3.895   2.287   5.065  1.0477 -2.5386 -0.7017
 4630TIP3   OH213895   1.134   3.741   1.629 -0.1420 -0.5326 -0.1105
 4630TIP3    H113896   1.223   3.770   1.609 -0.3089  3.3542  3.4654
 4630TIP3    H213897   1.086   3.753   1.547  2.4021 -2.2770 -1.9998
 4631TIP3   OH213898   4.610   0.596   1.971 -0.1004 -0.6319 -0.1580
 4631TIP3    H113899   4.667   0.571   1.898  0.2239  0.9895 -0.5106
 4631TIP3    H213900   4.571   0.679   1.943 -0.3559 -0.2329  1.3071
 4632TIP3   OH213901   2.834   1.433   4.362 -0.5087 -0.2070 -0.0055
 4632TIP3    H113902   2.796   1.346   4.375  0.8625 -0.5584  2.0565
 4632TIP3    H213903   2.776   1.492   4.410 -2.4452  0.3985 -2.8135
 4633TIP3   OH213904   3.601   3.052   2.133  0.5549 -0.0957 -0.1489
 4633TIP3    H113905   3.660   3.095   2.194  0.1860 -0.3886  0.4244
 4633TIP3    H213906   3.522   3.106   2.133  1.1629  0.8548 -1.6691
 4634TIP3   OH213907   5.897   4.941   0.756 -0.0269 -0.5751  0.1623
 4634TIP3    H113908   5.826   4.940   0.693 -0.1624 -1.5540  0.3173
 4634TIP3    H213909   5.963   4.999   0.718 -1.1086  0.7586  0.2681
 4635TIP3   OH213910   0.066   4.555   1.650  0.4512  0.1028 -0.1531
 4635TIP3    H113911   0.092   4.549   1.742 -0.6087 -0.4778  0.1211
 4635TIP3    H213912   0.036   4.645   1.640  0.0117 -0.0002  0.2226
 4636TIP3   OH213913   5.431   0.599   2.708 -0.0755  0.0259  0.3793
 4636TIP3    H113914   5.356   0.645   2.743 -0.0822 -0.0915  0.5199
 4636TIP3    H213915   5.414   0.594   2.614  1.0534  2.4285 -0.0291
 4637TIP3   OH213916   0.810   1.716   2.737  0.5755 -0.2604 -0.6198
 4637TIP3    H113917   0.810   1.807   2.708  0.3864 -0.7277 -2.1933
 4637TIP3    H213918   0.738   1.710   2.800 -0.2331  0.3971 -1.4719
 4638TIP3   OH213919   1.143   0.069   0.994  0.1197  0.1280  0.4321
 4638TIP3    H113920   1.198   0.012   0.940  0.3287 -0.0540  0.8389
 4638TIP3    H213921   1.198   0.146   1.010  0.1766  0.0386  0.6611
 4639TIP3   OH213922   4.069   5.837   1.277  0.0164  0.2469  0.1850
 4639TIP3    H113923   4.032   5.774   1.215  2.3226 -0.2206 -0.8178
 4639TIP3    H213924   4.043   5.922   1.241  1.8314  0.0165 -1.9042
 4640TIP3   OH213925   1.858   0.078   2.425  0.2947 -0.2273  0.3912
 4640TIP3    H113926   1.789   0.014   2.412  0.3480 -0.3407  0.6466
 4640TIP3    H213927   1.901   0.086   2.340 -1.1659  1.1939 -0.2484
 4641TIP3   OH213928   1.513   5.186   1.435 -0.2028 -0.3319 -0.0075
 4641TIP3    H113929   1.495   5.277   1.461 -0.8750 -0.2637 -0.6803
 4641TIP3    H213930   1.600   5.168   1.470 -0.6273  0.1069  1.3432
 4642TIP3   OH213931   2.160   1.766   4.019 -0.1531 -0.6435 -0.7048
 4642TIP3    H113932   2.085   1.782   3.961 -1.0604 -0.4877  0.4523
 4642TIP3    H213933   2.120   1.737   4.101  0.9301  1.2880  0.5831
 4643TIP3   OH213934   3.998   0.196   0.491 -0.1970 -0.4581  0.6489
 4643TIP3    H113935   4.025   0.207   0.400 -0.4752  0.1549  0.6316
 4643TIP3    H213936   3.986   0.286   0.523  1.0005 -0.6193  1.6277
 4644TIP3   OH213937   3.278   1.601   1.063  0.5683 -0.1061  0.5602
 4644TIP3    H113938   3.280   1.507   1.047 -2.8490 -0.3197  0.5099
 4644TIP3    H213939   3.249   1.609   1.154  1.3170  0.9064  0.7200
 4645TIP3   OH213940   1.646   5.972   0.530  0.1553  0.3936  0.3165
 4645TIP3    H113941   1.692   6.015   0.458  0.4698  1.0470  0.8915
 4645TIP3    H213942   1.559   5.952   0.495  0.2547  0.8431 -0.1964
 4646TIP3   OH213943   4.290   2.169   4.099  0.0625  0.5971 -0.0230
 4646TIP3    H113944   4.247   2.087   4.072  0.6822 -0.1588  1.1587
 4646TIP3    H213945   4.220   2.234   4.101 -0.7128 -0.2279  0.2871
 4647TIP3   OH213946   3.347   2.215   4.360 -0.2673 -0.3739 -0.2572
 4647TIP3    H113947   3.408   2.141   4.361  1.4082  0.8975  2.6950
 4647TIP3    H213948   3.378   2.273   4.429 -0.0746  4.3077 -3.8031
 4648TIP3   OH213949   5.179   3.039   1.562 -0.2695  0.0710  0.0843
 4648TIP3    H113950   5.174   3.125   1.519  0.5764  0.4149  0.6479
 4648TIP3    H213951   5.142   2.978   1.498 -0.3464  0.7715 -0.5564
 4649TIP3   OH213952   4.210   1.293   4.028  0.0411 -0.2163 -1.0447
 4649TIP3    H113953   4.252   1.305   4.113  1.4724 -0.2733 -1.7301
 4649TIP3    H213954   4.214   1.379   3.986 -1.3923  0.0236 -0.7740
 4650TIP3   OH213955   5.578   5.770   3.676 -0.6952 -0.3344  0.1036
 4650TIP3    H113956   5.633   5.790   3.752  0.2269 -0.7270 -0.4445
 4650TIP3    H213957   5.517   5.704   3.708  0.3694 -1.2754  0.2352
 4651TIP3   OH213958   3.601   2.807   1.585  0.0161 -0.2150 -0.2706
 4651TIP3    H113959   3.608   2.889   1.538 -1.1072  0.1178  0.1087
 4651TIP3    H213960   3.533   2.758   1.539 -0.5931 -0.1737  0.5504
 4652TIP3   OH213961   0.730   4.839   1.750 -0.3215  0.3859  0.1846
 4652TIP3    H113962   0.812   4.889   1.742 -0.3808  0.3792 -0.4888
 4652TIP3    H213963   0.735   4.799   1.837  0.1855  0.7538  0.3282
 4653TIP3   OH213964   0.208   5.090   1.942 -0.4605  0.1280 -0.3753
 4653TIP3    H113965   0.225   5.159   1.878  0.9204  1.2614  1.1591
 4653TIP3    H213966   0.293   5.071   1.980 -1.5364  1.3177  2.9330
 4654TIP3   OH213967   5.779   0.913   2.286 -0.3607 -0.0133 -0.8151
 4654TIP3    H113968   5.874   0.898   2.283 -0.0171  1.4787  0.6220
 4654TIP3    H213969   5.751   0.910   2.195  1.2195  0.3379 -1.3471
 4655TIP3   OH213970   0.892   2.993   3.011  0.5522  0.2521 -0.3748
 4655TIP3    H113971   0.935   3.079   3.016  0.8356  0.1653 -1.2005
 4655TIP3    H213972   0.836   2.999   2.934  0.0007 -0.0528  0.0011
 4656TIP3   OH213973   4.786   4.684   2.895  0.2101  0.0328  0.1492
 4656TIP3    H113974   4.877   4.657   2.912 -0.2802 -1.5679  0.4227
 4656TIP3    H213975   4.756   4.721   2.978  0.3843 -0.1136  0.2782
 4657TIP3   OH213976   2.885  -0.002   2.105  0.2378 -0.5841 -0.5363
 4657TIP3    H113977   2.840  -0.001   2.189 -0.4970 -0.1169 -0.9301
 4657TIP3    H213978   2.817   0.016   2.040  1.0597  0.6126 -1.1049
 4658TIP3   OH213979   1.431   4.243   2.412 -0.5961 -0.0474 -0.8380
 4658TIP3    H113980   1.425   4.303   2.337  0.4038 -0.4129 -1.2335
 4658TIP3    H213981   1.480   4.168   2.378  1.2105  0.4401  0.5497
 4659TIP3   OH213982   3.947   2.347   2.886  0.2658 -0.0536 -0.0660
 4659TIP3    H113983   3.975   2.391   2.806 -0.0861  1.2018  0.4876
 4659TIP3    H213984   4.022   2.294   2.912  1.3503  1.5817  0.2217
 4660TIP3   OH213985   3.318   2.326   3.487  0.1059 -0.1587 -0.1538
 4660TIP3    H113986   3.333   2.393   3.421  0.0042 -0.9225 -0.9647
 4660TIP3    H213987   3.223   2.323   3.497  0.1653  0.8188  0.9557
 4661TIP3   OH213988   3.875   3.967   0.873  0.1172  0.0746 -0.1682
 4661TIP3    H113989   3.892   3.927   0.958 -0.7830  0.9015  0.4257
 4661TIP3    H213990   3.827   3.900   0.824  2.3098 -1.1469 -0.7841
 4662TIP3   OH213991   4.834   4.109   1.306 -0.6199  0.4900  0.1164
 4662TIP3    H113992   4.807   4.199   1.328  0.1088  0.7018  0.1624
 4662TIP3    H213993   4.824   4.103   1.211  2.7753  1.8504 -0.4860
 4663TIP3   OH213994   2.515   3.624   3.423  0.0946  0.4202  0.0184
 4663TIP3    H113995   2.465   3.628   3.342  0.2929  0.6291 -0.0962
 4663TIP3    H213996   2.454   3.591   3.488 -0.0526  0.2056 -0.2276
 4664TIP3   OH213997   3.512   3.471   2.402  0.0307  0.2258 -0.2852
 4664TIP3    H113998   3.418   3.474   2.414  0.1182  2.3567  0.2428
 4664TIP3    H213999   3.537   3.560   2.378  1.7138 -0.6595 -2.1866
 4665TIP3   OH214000   3.545   2.313   4.008 -0.1140  0.3197 -0.0834
 4665TIP3    H114001   3.631   2.352   3.991  0.3702 -0.7116 -0.0542
 4665TIP3    H214002   3.504   2.308   3.921 -0.2814  1.0926 -0.0588
 4666TIP3   OH214003   5.429   0.969   1.572 -0.2946 -0.2550  0.5204
 4666TIP3    H114004   5.489   1.038   1.545 -0.2615 -0.5778 -0.2351
 4666TIP3    H214005   5.368   1.013   1.633 -0.9520  0.7078 -0.7889
 4667TIP3   OH214006   2.942   5.724   0.592 -0.7329  0.0031 -0.1690
 4667TIP3    H114007   3.021   5.677   0.564 -1.2217 -0.9862  0.0840
 4667TIP3    H214008   2.894   5.740   0.511 -0.5791  0.0532 -0.2524
 4668TIP3   OH214009   1.117   4.908   4.519  0.3576  0.3499  0.4796
 4668TIP3    H114010   1.195   4.934   4.471 -0.1161 -2.9968 -2.4680
 4668TIP3    H214011   1.044   4.940   4.466 -0.1932 -1.5470  0.0163
 4669TIP3   OH214012   4.859   2.402   4.155  0.3997  0.1983  0.3678
 4669TIP3    H114013   4.861   2.360   4.069 -1.2408  0.7231  0.0376
 4669TIP3    H214014   4.879   2.494   4.138 -1.2266  0.5725  0.3305
 4670TIP3   OH214015   5.106   0.180   2.304  0.1162 -0.1001 -0.1002
 4670TIP3    H114016   5.062   0.263   2.288 -1.4864 -0.8368  0.2506
 4670TIP3    H214017   5.046   0.132   2.361 -0.1699 -2.4098 -2.1548
 4671TIP3   OH214018   0.720   4.910   2.754 -0.5151 -0.1618 -0.5965
 4671TIP3    H114019   0.647   4.952   2.800  0.6227  0.5301  0.6683
 4671TIP3    H214020   0.762   4.982   2.707  0.5911 -0.1132  0.4149
 4672TIP3   OH214021   2.858   5.669   3.635  0.4461 -0.3087  0.1150
 4672TIP3    H114022   2.783   5.719   3.667 -0.6599 -2.7214  1.6154
 4672TIP3    H214023   2.827   5.626   3.555  0.5105 -0.6251  0.2572
 4673TIP3   OH214024   0.989   1.995   0.946 -0.2918  0.2118 -0.2844
 4673TIP3    H114025   1.003   2.077   0.993  2.1583 -0.6409  0.6218
 4673TIP3    H214026   0.920   1.950   0.995  2.3232 -0.7687  2.8475
 4674TIP3   OH214027   0.991   5.688   4.510 -0.3843  0.6570  0.1162
 4674TIP3    H114028   1.061   5.670   4.573 -0.0251 -2.4637 -0.9865
 4674TIP3    H214029   1.034   5.688   4.425 -1.2725  2.1395 -0.3698
 4675TIP3   OH214030   1.498   0.122   3.328 -0.1285 -0.1083  0.1965
 4675TIP3    H114031   1.438   0.148   3.259 -0.3769 -1.6724 -0.2089
 4675TIP3    H214032   1.481   0.029   3.341  2.1257 -0.5837  0.1416
 4676TIP3   OH214033   0.243   3.885   2.937 -0.1389 -0.1458 -0.2371
 4676TIP3    H114034   0.336   3.875   2.953 -0.4995  0.3020  2.6617
 4676TIP3    H214035   0.227   3.979   2.943 -0.8779 -0.2817  0.1623
 4677TIP3   OH214036   4.923   0.551   4.540 -0.1823 -0.5073  0.3995
 4677TIP3    H114037   4.969   0.573   4.621 -1.7074 -0.4178  1.2785
 4677TIP3    H214038   4.923   0.456   4.538 -1.4435 -0.5443  1.3088
 4678TIP3   OH214039   2.236   4.004   0.115  0.1463  0.1727  0.1943
 4678TIP3    H114040   2.293   4.067   0.069  0.6937 -1.3415 -1.3432
 4678TIP3    H214041   2.228   3.932   0.053 -2.9929  0.0445  0.6280
 4679TIP3   OH214042   1.548   0.412   1.087 -0.2244 -0.2075 -0.0767
 4679TIP3    H114043   1.621   0.423   1.148 -0.1856  1.4541 -0.3636
 4679TIP3    H214044   1.574   0.461   1.009 -1.6849  0.5556 -0.1315
 4680TIP3   OH214045   4.962   4.419   4.801 -0.2192 -0.0940 -0.0690
 4680TIP3    H114046   4.986   4.408   4.709 -1.6456 -0.9430 -0.3812
 4680TIP3    H214047   4.901   4.493   4.802  1.2883  1.1951  0.5151
 4681TIP3   OH214048   2.503   3.641   0.689  0.4036 -0.1414  0.4256
 4681TIP3    H114049   2.564   3.695   0.738 -0.7807 -0.0858  1.9205
 4681TIP3    H214050   2.547   3.556   0.681  3.0840  1.3171 -3.5128
 4682TIP3   OH214051   5.688   5.259   4.925 -0.5846  0.0158 -0.1494
 4682TIP3    H114052   5.753   5.280   4.859  0.4125 -0.6258  0.5902
 4682TIP3    H214053   5.718   5.304   5.004 -1.9455  1.0643 -0.1890
 4683TIP3   OH214054   1.264   5.075   1.339  0.7393 -0.4607 -0.3027
 4683TIP3    H114055   1.319   5.031   1.275  0.1473 -0.4589 -0.8261
 4683TIP3    H214056   1.321   5.091   1.414  1.9448  1.0954 -1.4805
 4684TIP3   OH214057   5.816   0.976   3.403 -0.1585 -0.3616  0.4269
 4684TIP3    H114058   5.742   0.942   3.353 -0.2706  0.3694  0.0898
 4684TIP3    H214059   5.785   1.058   3.440  0.6539  0.2487 -0.1998
 4685TIP3   OH214060   0.197   3.837   5.097 -0.1620  0.2615  0.3014
 4685TIP3    H114061   0.194   3.874   5.185 -0.4904 -1.6667  1.1365
 4685TIP3    H214062   0.106   3.818   5.075  0.0723 -0.7585  0.1997
 4686TIP3   OH214063   0.723   2.272   4.371  0.0783  0.3560 -0.5552
 4686TIP3    H114064   0.709   2.355   4.326  2.2705  1.0333 -0.1028
 4686TIP3    H214065   0.661   2.274   4.444 -0.5599  1.1592 -1.0995
 4687TIP3   OH214066   3.867   3.402   3.951  0.1294  0.2221 -0.0616
 4687TIP3    H114067   3.876   3.309   3.934  1.9308  0.5925 -1.3932
 4687TIP3    H214068   3.818   3.436   3.875 -0.4158  0.3912  0.3578
 4688TIP3   OH214069   2.750   5.741   1.247  0.0475 -0.2343  0.0464
 4688TIP3    H114070   2.748   5.706   1.336  0.0958 -0.6957 -0.1343
 4688TIP3    H214071   2.807   5.818   1.254  0.6479 -0.6957  0.2613
 4689TIP3   OH214072   2.616   2.134   0.990  0.5008 -0.6965 -0.1245
 4689TIP3    H114073   2.690   2.139   1.050  0.7678 -0.4333 -0.4763
 4689TIP3    H214074   2.553   2.198   1.022  0.6335 -0.5746 -0.1114
 4690TIP3   OH214075   1.528   0.648   2.846 -0.6721 -0.4281 -0.5242
 4690TIP3    H114076   1.432   0.643   2.839 -0.6807 -1.7481  0.1678
 4690TIP3    H214077   1.558   0.646   2.755 -1.2885 -0.2434 -0.7410
 4691TIP3   OH214078   3.455   2.164   2.547 -0.4032 -0.0993  0.0222
 4691TIP3    H114079   3.480   2.201   2.632 -0.1921  0.2340 -0.1864
 4691TIP3    H214080   3.499   2.218   2.482  0.6287 -1.2525 -0.2762
 4692TIP3   OH214081   4.152   2.656   2.856 -0.7270  0.2319  0.1183
 4692TIP3    H114082   4.154   2.738   2.906 -0.0928  1.0604 -1.2080
 4692TIP3    H214083   4.155   2.684   2.764  2.1995 -1.2790 -0.3726
 4693TIP3   OH214084   6.151   3.119   0.053 -0.9422  0.6870  0.5459
 4693TIP3    H114085   6.127   3.091  -0.035 -0.3328  1.0049  0.2753
 4693TIP3    H214086   6.069   3.112   0.103 -1.3810  0.8561 -0.1319
 4694TIP3   OH214087   1.798   0.809   0.730 -0.0311 -0.0807 -0.7133
 4694TIP3    H114088   1.826   0.900   0.718  0.7055 -0.2711 -0.5058
 4694TIP3    H214089   1.812   0.768   0.645 -3.1630  0.6838 -1.7106
 4695TIP3   OH214090   0.278   2.896   4.030  0.8768  0.6120  0.9691
 4695TIP3    H114091   0.333   2.945   3.969  1.7117 -0.2499  1.0041
 4695TIP3    H214092   0.281   2.947   4.111  1.5355  0.6352  0.9380
 4696TIP3   OH214093   2.684   0.560   4.855  0.1989 -0.0296 -0.3405
 4696TIP3    H114094   2.648   0.649   4.856 -0.4451 -0.2252  2.5429
 4696TIP3    H214095   2.608   0.503   4.853  0.4903 -0.4776  0.5978
 4697TIP3   OH214096   5.392   4.381  -0.002 -0.4287  0.2581 -0.8369
 4697TIP3    H114097   5.458   4.448  -0.024 -1.0391  0.5698 -1.7610
 4697TIP3    H214098   5.389   4.381   0.093  1.9473 -0.7779 -0.6852
 4698TIP3   OH214099   5.700   1.107   2.515 -0.0431  0.4262 -0.0849
 4698TIP3    H114100   5.732   1.051   2.445 -0.3250 -1.4942  1.2557
 4698TIP3    H214101   5.606   1.091   2.518  0.2287 -1.2217  2.0801
 4699TIP3   OH214102   2.473   5.146   0.212 -0.1671 -0.0309  0.0984
 4699TIP3    H114103   2.455   5.145   0.118  0.8086  0.9020 -0.1225
 4699TIP3    H214104   2.435   5.229   0.242 -0.1612 -0.1583  0.4585
 4700TIP3   OH214105   0.749   4.045   1.928  0.0987  0.0368  0.6194
 4700TIP3    H114106   0.681   3.983   1.955  0.4118 -0.6179 -0.0608
 4700TIP3    H214107   0.826   3.990   1.912  0.5555  0.6787  0.5925
 4701TIP3   OH214108   0.090   4.780   0.328 -0.4183  0.2591  0.2769
 4701TIP3    H114109   0.008   4.760   0.283 -0.9528  0.1729  1.2797
 4701TIP3    H214110   0.068   4.852   0.387  0.6914  1.5918 -0.8395
 4702TIP3   OH214111   5.243  -0.009   0.579  0.3892 -0.1296  0.3194
 4702TIP3    H114112   5.232   0.084   0.599  1.6453 -0.4007  2.6072
 4702TIP3    H214113   5.252  -0.012   0.484 -1.5885  1.8453 -0.0161
 4703TIP3   OH214114   3.743   5.915   1.324 -0.1455  0.4147 -0.0003
 4703TIP3    H114115   3.675   5.866   1.278  0.6580  0.5566 -1.3971
 4703TIP3    H214116   3.791   5.960   1.254 -0.1564  2.3122  1.1362
 4704TIP3   OH214117   3.414   3.181   3.257  0.2812 -0.8308 -0.4836
 4704TIP3    H114118   3.355   3.158   3.328 -0.6326 -0.1192 -0.9869
 4704TIP3    H214119   3.363   3.164   3.177  0.7292 -0.1566 -0.9278
 4705TIP3   OH214120   5.014   0.147   0.355 -0.2174 -0.2063  0.3616
 4705TIP3    H114121   5.102   0.128   0.387 -0.0500 -1.5453 -0.8391
 4705TIP3    H214122   5.027   0.184   0.268 -0.8398 -0.0042  0.3455
 4706TIP3   OH214123   4.448   5.348   0.953  0.3402 -0.3215 -0.0289
 4706TIP3    H114124   4.449   5.252   0.958  0.6815 -0.2744  0.9062
 4706TIP3    H214125   4.509   5.376   1.021 -0.1034  0.5768  0.0020
 4707TIP3   OH214126   1.111   2.554   2.901  0.1332 -0.1402 -0.4286
 4707TIP3    H114127   1.178   2.495   2.934 -0.4362  0.9113  2.9764
 4707TIP3    H214128   1.101   2.620   2.969  0.1336  3.5039 -3.6534
 4708TIP3   OH214129   2.308   2.373   0.905 -0.0519  0.3109  0.5769
 4708TIP3    H114130   2.226   2.414   0.931  1.1587  1.4267  3.0267
 4708TIP3    H214131   2.298   2.281   0.930 -0.4742  0.5046  1.1356
 4709TIP3   OH214132   6.059   2.739   2.735 -0.1595  0.1268  0.4610
 4709TIP3    H114133   6.146   2.764   2.704  0.8381 -1.6762  1.5922
 4709TIP3    H214134   6.074   2.702   2.822 -2.2276  0.7821  1.1632
 4710TIP3   OH214135   4.840   0.953   1.860  0.0639  0.1998 -0.3045
 4710TIP3    H114136   4.827   1.045   1.882 -0.4782  0.2984 -0.9902
 4710TIP3    H214137   4.766   0.908   1.901  0.4029  0.0430  0.1462
 4711TIP3   OH214138   0.338   0.117   3.637  0.0652  0.2660  0.6062
 4711TIP3    H114139   0.338   0.167   3.556  1.2901 -1.6272 -0.6529
 4711TIP3    H214140   0.431   0.111   3.662  0.0095 -1.5532  0.5268
 4712TIP3   OH214141   2.221   4.264   4.708 -0.0797  0.0642 -0.5129
 4712TIP3    H114142   2.260   4.177   4.695 -0.5720 -0.1792 -0.3957
 4712TIP3    H214143   2.236   4.283   4.800 -0.4747 -0.1501 -0.4025
 4713TIP3   OH214144   2.726   4.145   1.190  0.7024  0.0929 -0.1822
 4713TIP3    H114145   2.689   4.227   1.221 -2.4321 -1.3126  0.1401
 4713TIP3    H214146   2.728   4.089   1.268  0.1244 -1.0098 -0.9345
 4714TIP3   OH214147   4.000   5.000   1.490 -0.0719 -0.3332 -0.0902
 4714TIP3    H114148   3.972   4.945   1.417 -0.4829 -0.8447  0.4435
 4714TIP3    H214149   4.067   4.948   1.534  1.7847  0.8670 -1.3483
 4715TIP3   OH214150   4.241   0.536   0.870  0.0777 -0.4930 -0.0353
 4715TIP3    H114151   4.270   0.620   0.834  1.5833 -0.4073  1.2624
 4715TIP3    H214152   4.235   0.478   0.793  2.6373 -0.1704 -0.5604
 4716TIP3   OH214153   2.457   2.506   2.152  0.1580  0.3407 -0.0370
 4716TIP3    H114154   2.375   2.471   2.187  0.2287  2.1839  2.1920
 4716TIP3    H214155   2.430   2.559   2.077 -0.6773  0.7756  0.5529
 4717TIP3   OH214156   4.448   2.892   1.436  0.0039 -0.2158  0.0634
 4717TIP3    H114157   4.419   2.941   1.513 -1.0941 -1.1543  0.2705
 4717TIP3    H214158   4.511   2.828   1.470  1.7416  1.2410 -0.2617
 4718TIP3   OH214159   6.295   2.589   4.917 -0.2967  0.3096  0.0846
 4718TIP3    H114160   6.293   2.633   5.002 -0.7219 -1.0959  0.8451
 4718TIP3    H214161   6.213   2.614   4.875  0.1003  1.3404 -0.1075
 4719TIP3   OH214162   5.704   5.595   3.024  0.2270 -0.0739 -0.9872
 4719TIP3    H114163   5.706   5.667   2.961 -0.4673  0.8853  0.0471
 4719TIP3    H214164   5.639   5.534   2.990  1.1006 -0.4346 -2.0760
 4720TIP3   OH214165   2.216   5.516   2.809 -0.2995  0.3831  0.5032
 4720TIP3    H114166   2.173   5.581   2.753 -1.0560 -0.4070  0.1553
 4720TIP3    H214167   2.256   5.455   2.747 -1.3628 -0.6452  0.8057
 4721TIP3   OH214168   2.562   5.867   1.639  0.0038  0.3539  0.3030
 4721TIP3    H114169   2.614   5.940   1.672  1.7713 -0.8480  0.3272
 4721TIP3    H214170   2.567   5.874   1.544  1.1655 -0.3420  0.2862
 4722TIP3   OH214171   3.445   4.822   1.540  0.8136 -0.0581  0.3692
 4722TIP3    H114172   3.536   4.846   1.525  0.3304  0.6859 -1.6803
 4722TIP3    H214173   3.409   4.809   1.453 -1.1383  0.0178  1.1201
 4723TIP3   OH214174   3.347   0.505   3.494 -0.8425  0.0899  0.3506
 4723TIP3    H114175   3.275   0.532   3.437 -0.2545  0.8779 -0.0433
 4723TIP3    H214176   3.308   0.441   3.554 -1.0461 -2.4133 -2.2409
 4724TIP3   OH214177   4.627   1.984   0.719  0.6149  0.5497  0.1080
 4724TIP3    H114178   4.679   1.980   0.800 -1.6475  1.2003  1.7033
 4724TIP3    H214179   4.556   1.923   0.734 -0.4244  1.4557 -0.9513
 4725TIP3   OH214180   4.400   2.904   3.597  0.6281  0.1161  0.4922
 4725TIP3    H114181   4.323   2.948   3.561  0.1667 -0.3234  0.9309
 4725TIP3    H214182   4.365   2.836   3.654  1.3276  1.1581  2.2528
 4726TIP3   OH214183   0.727   5.442   5.114 -0.2408  0.4074 -0.1051
 4726TIP3    H114184   0.633   5.424   5.110 -0.3086  0.5762  0.5259
 4726TIP3    H214185   0.760   5.421   5.027 -0.2455 -3.0778  0.5992
 4727TIP3   OH214186   1.093   3.752   4.241 -0.0354 -0.6213 -0.4067
 4727TIP3    H114187   1.079   3.840   4.274  0.1820 -0.1949 -1.4193
 4727TIP3    H214188   1.006   3.713   4.236 -0.4208  0.4125 -2.3167
 4728TIP3   OH214189   1.495   2.040   3.464 -0.7157 -0.4060  0.2590
 4728TIP3    H114190   1.509   2.041   3.370 -0.0326  1.9189  0.3189
 4728TIP3    H214191   1.483   1.948   3.486  0.5725 -1.1510 -1.8825
 4729TIP3   OH214192   4.101   2.438   3.174  0.0320 -0.3220 -0.2378
 4729TIP3    H114193   4.055   2.446   3.091  1.3687  0.2600 -0.9484
 4729TIP3    H214194   4.081   2.519   3.221 -0.5222 -0.5426 -0.0883
 4730TIP3   OH214195   6.003   1.761   2.269 -0.1788  0.5966 -0.2588
 4730TIP3    H114196   5.940   1.723   2.208 -0.7624 -1.5078  1.5148
 4730TIP3    H214197   5.949   1.799   2.339  0.4711  0.0781  0.5506
 4731TIP3   OH214198   0.915   2.760   0.077 -0.0465 -0.2251  0.5863
 4731TIP3    H114199   0.849   2.826   0.097  0.4999 -0.3287  3.0647
 4731TIP3    H214200   0.999   2.805   0.093  0.3764 -0.9888  0.5670
 4732TIP3   OH214201   3.388   0.359   0.211  0.0587  0.2872  0.4680
 4732TIP3    H114202   3.417   0.445   0.180  1.1945 -0.2428 -0.0116
 4732TIP3    H214203   3.297   0.372   0.237  0.2898  1.6965  0.6625
 4733TIP3   OH214204   3.961   4.080   0.626  0.3221  0.2654 -0.2441
 4733TIP3    H114205   3.923   4.074   0.713  0.3235  1.1791 -0.1695
 4733TIP3    H214206   3.894   4.123   0.573 -0.2642 -1.5874 -1.0687
 4734TIP3   OH214207   3.139   1.503   2.402 -0.7124 -0.4678  0.0194
 4734TIP3    H114208   3.088   1.582   2.381 -0.3295  0.4048  2.0943
 4734TIP3    H214209   3.228   1.535   2.414 -0.5724 -1.1917  0.9804
 4735TIP3   OH214210   5.685   3.513   4.925 -0.3857  0.1764  0.4132
 4735TIP3    H114211   5.753   3.570   4.891  0.7520 -2.0719 -1.3199
 4735TIP3    H214212   5.732   3.445   4.973 -1.3728 -1.3026 -0.6382
 4736TIP3   OH214213   5.236   4.840   2.599 -0.4246  0.1716 -0.3287
 4736TIP3    H114214   5.200   4.757   2.628  1.2427 -0.1507  0.9956
 4736TIP3    H214215   5.258   4.825   2.507 -0.3948 -0.7853 -0.1808
 4737TIP3   OH214216   5.336   5.442   3.952  0.7673  0.1813 -0.0066
 4737TIP3    H114217   5.383   5.383   3.893  0.7721 -0.2279  0.4018
 4737TIP3    H214218   5.284   5.384   4.008 -0.2363  0.6279 -0.4536
 4738TIP3   OH214219   0.672   0.577   0.518 -0.1940  0.8113  0.2428
 4738TIP3    H114220   0.615   0.561   0.593  0.6821 -0.3440  0.6959
 4738TIP3    H214221   0.724   0.497   0.510 -0.4391  0.7888 -1.7653
 4739TIP3   OH214222   0.895   3.472   1.914 -0.1525 -0.6280 -0.1816
 4739TIP3    H114223   0.901   3.396   1.972 -0.4308 -0.8488 -0.4408
 4739TIP3    H214224   0.863   3.436   1.832 -1.3066 -0.0684  0.0120
 4740TIP3   OH214225   0.660   1.848   0.998  0.1084 -0.0387 -0.1783
 4740TIP3    H114226   0.668   1.899   0.917 -1.1824  0.0022 -0.2888
 4740TIP3    H214227   0.583   1.792   0.984 -0.8975  0.8813  1.5086
 4741TIP3   OH214228   4.490   3.494   2.419  0.1553  0.1920 -0.5645
 4741TIP3    H114229   4.396   3.475   2.427  0.2102 -0.3468 -1.0909
 4741TIP3    H214230   4.510   3.549   2.494 -0.0763 -1.6106  0.8917
 4742TIP3   OH214231   0.079   0.632   4.742 -0.4225 -0.4434  0.0954
 4742TIP3    H114232   0.123   0.578   4.807  0.8207  1.2652  0.7388
 4742TIP3    H214233  -0.002   0.584   4.722  0.1841 -2.0637  1.2797
 4743TIP3   OH214234   2.697   5.508   2.625 -0.0560  0.2096 -0.1077
 4743TIP3    H114235   2.607   5.527   2.650  0.4632  2.6621  0.1625
 4743TIP3    H214236   2.690   5.473   2.536 -1.2606  0.3602 -0.0892
 4744TIP3   OH214237   2.664   5.283   2.042  0.3052 -0.1676  0.4359
 4744TIP3    H114238   2.746   5.233   2.049 -0.4312 -1.3268  0.9466
 4744TIP3    H214239   2.659   5.332   2.124  0.7249  0.2999  0.1903
 4745TIP3   OH214240   4.254   0.032   0.847  0.2362 -0.3239  0.6596
 4745TIP3    H114241   4.208   0.045   0.764 -0.4240  0.8335  1.1752
 4745TIP3    H214242   4.335  -0.012   0.824  1.4693  2.5682 -1.0261
 4746TIP3   OH214243   1.642   1.183   4.579 -0.0282  0.5341  0.2621
 4746TIP3    H114244   1.561   1.137   4.555  0.2380 -0.7527  1.6235
 4746TIP3    H214245   1.627   1.210   4.670  0.7263  1.0878  0.2238
 4747TIP3   OH214246   6.239   4.705   2.748 -0.0486  0.1386 -0.5241
 4747TIP3    H114247   6.152   4.691   2.712 -0.4144  0.5585  0.1745
 4747TIP3    H214248   6.224   4.726   2.840  1.0125 -3.6680  0.6836
 4748TIP3   OH214249   0.726   0.015   1.623  0.0409 -0.1029  0.2393
 4748TIP3    H114250   0.645   0.058   1.649 -0.2463 -0.8238  0.5616
 4748TIP3    H214251   0.698  -0.064   1.576  0.5200 -1.0844  1.5335
 4749TIP3   OH214252   1.235   3.969   2.848  0.1622 -0.0666  0.5144
 4749TIP3    H114253   1.222   3.903   2.916 -1.8156  0.1417  0.3986
 4749TIP3    H214254   1.181   4.043   2.876  1.4275  1.0579  0.0471
 4750TIP3   OH214255   6.013   5.678   1.328  0.5518  0.0243  0.0574
 4750TIP3    H114256   5.945   5.709   1.268 -0.9464 -0.9212  1.1999
 4750TIP3    H214257   6.055   5.606   1.281 -0.7117 -0.8119  0.1674
 4751TIP3   OH214258   2.976   1.480   4.867 -0.0545  0.0051 -0.4109
 4751TIP3    H114259   3.008   1.433   4.945 -0.0139  0.1653 -0.3310
 4751TIP3    H214260   2.883   1.493   4.884 -0.1618 -0.4438 -0.6343
 4752TIP3   OH214261   0.756   0.689   3.500  0.6140 -0.3678 -0.1989
 4752TIP3    H114262   0.753   0.646   3.415  0.0393  0.6081 -0.6845
 4752TIP3    H214263   0.679   0.656   3.546 -0.8103  1.3731 -1.2085
 4753TIP3   OH214264   0.874   4.346   3.313  0.0074 -0.2433  0.1463
 4753TIP3    H114265   0.926   4.266   3.309 -0.9931 -0.8768 -0.4082
 4753TIP3    H214266   0.853   4.366   3.222  1.8065  1.7133  0.0884
 4754TIP3   OH214267   0.361   0.014   0.530  0.5510  0.2964  0.2514
 4754TIP3    H114268   0.422  -0.060   0.531  1.3461  0.9445  1.0444
 4754TIP3    H214269   0.414   0.088   0.559 -0.5156  0.9601  0.5178
 4755TIP3   OH214270   1.605   1.295   1.332  0.0525 -0.4399  0.4233
 4755TIP3    H114271   1.608   1.387   1.361  0.0418  0.1105 -1.2196
 4755TIP3    H214272   1.526   1.260   1.373 -0.9449  0.8091 -0.3398
 4756TIP3   OH214273   0.354   4.954   4.153 -0.1475  0.3038 -0.0684
 4756TIP3    H114274   0.328   4.932   4.064  0.3790 -1.8167  0.2293
 4756TIP3    H214275   0.433   5.007   4.143  0.8336 -1.2435 -0.8921
 4757TIP3   OH214276   3.266   5.125   4.479 -0.4810 -0.1515  0.4153
 4757TIP3    H114277   3.190   5.067   4.486  0.2082 -1.3153 -1.1823
 4757TIP3    H214278   3.243   5.187   4.410 -0.3536  0.1096  0.6053
 4758TIP3   OH214279   3.724   2.434   4.341 -0.2723  0.5637 -0.0324
 4758TIP3    H114280   3.647   2.491   4.338 -0.0186  0.9097 -0.1820
 4758TIP3    H214281   3.767   2.449   4.256  0.4672  1.1061  0.4225
 4759TIP3   OH214282   1.730   1.589   4.143  0.1477  0.2697 -0.0436
 4759TIP3    H114283   1.773   1.556   4.222 -2.3834 -0.3488  1.1843
 4759TIP3    H214284   1.724   1.684   4.157  1.1005  0.3729 -0.2600
 4760TIP3   OH214285   1.212   3.869   0.658  0.0508  0.0681  0.1035
 4760TIP3    H114286   1.243   3.900   0.743 -1.9213  3.0711 -0.0975
 4760TIP3    H214287   1.263   3.919   0.594 -0.8331  0.4216 -0.3486
 4761TIP3   OH214288   2.085   5.848   2.358 -0.9648  0.0498  0.2778
 4761TIP3    H114289   1.998   5.882   2.338 -1.2908  0.1214  1.6945
 4761TIP3    H214290   2.077   5.810   2.446  0.2845 -0.4828  0.1937
 4762TIP3   OH214291   0.431   3.480   4.188 -0.1857 -0.1575  0.4494
 4762TIP3    H114292   0.387   3.542   4.129 -0.9316 -0.8531  0.2544
 4762TIP3    H214293   0.449   3.531   4.267 -1.4022  0.1315  0.5557
 4763TIP3   OH214294   5.679   4.693   4.935 -0.5385  0.8674 -0.4303
 4763TIP3    H114295   5.744   4.623   4.934 -1.5201 -0.1777 -3.6493
 4763TIP3    H214296   5.595   4.648   4.932 -1.1911  2.0686 -3.1295
 4764TIP3   OH214297   2.969   4.844   4.961  0.2244 -0.2183  0.0719
 4764TIP3    H114298   3.037   4.911   4.957 -0.7558  0.8551  0.6844
 4764TIP3    H214299   2.898   4.884   5.012 -1.0135 -1.1765 -0.8171
 4765TIP3   OH214300   5.559   4.826   2.818  0.3459  0.5045  0.1054
 4765TIP3    H114301   5.652   4.823   2.841  0.7146 -0.6498 -1.4233
 4765TIP3    H214302   5.514   4.796   2.898  1.4312 -1.0754  0.1626
 4766TIP3   OH214303   2.772   0.488   3.069  0.2130  0.5026 -0.2700
 4766TIP3    H114304   2.776   0.568   3.018 -1.1761  0.4690 -0.4749
 4766TIP3    H214305   2.680   0.480   3.095 -0.1415 -2.0779 -1.9652
 4767TIP3   OH214306   3.591   2.563   3.622  0.0931  0.1452 -0.5582
 4767TIP3    H114307   3.681   2.532   3.617  0.0457  0.1999 -2.7613
 4767TIP3    H214308   3.598   2.656   3.642  0.5756  0.3365 -1.5979
 4768TIP3   OH214309   5.209   3.334   1.694 -0.1995 -0.7782  0.2618
 4768TIP3    H114310   5.134   3.385   1.662  0.1487 -0.1585  0.4342
 4768TIP3    H214311   5.241   3.383   1.770  1.9974  0.4121 -1.3074
 4769TIP3   OH214312   1.141   5.112   3.956  0.2090  0.8345 -0.3779
 4769TIP3    H114313   1.122   5.163   4.035  1.9450 -1.0302  1.3846
 4769TIP3    H214314   1.226   5.145   3.926 -0.0839  1.0141 -1.0162
 4770TIP3   OH214315   5.949   3.374   3.493  0.0190 -0.3118 -0.1419
 4770TIP3    H114316   5.888   3.416   3.432  1.0999 -1.2077 -1.9261
 4770TIP3    H214317   5.903   3.373   3.576 -1.7379  0.5044 -1.0499
 4771TIP3   OH214318   6.314   0.611   1.027 -0.7672  0.0213  0.2275
 4771TIP3    H114319   6.296   0.521   0.999 -4.1990  0.8381 -0.7042
 4771TIP3    H214320   6.352   0.601   1.114 -1.4006 -2.3594  0.3170
 4772TIP3   OH214321   3.990   4.634   4.875 -0.0093  0.1334 -0.2464
 4772TIP3    H114322   3.930   4.634   4.801  1.5463  1.8091 -1.6084
 4772TIP3    H214323   3.935   4.651   4.951 -1.3933  0.5317 -1.3110
 4773TIP3   OH214324   0.021   3.528   2.206 -0.3070  0.3553  0.9045
 4773TIP3    H114325  -0.030   3.476   2.143  0.2662  0.6713  0.1679
 4773TIP3    H214326   0.111   3.521   2.175 -0.2641  2.1132  0.5615
 4774TIP3   OH214327   1.496   3.491   2.108  0.1080 -0.7686  0.1355
 4774TIP3    H114328   1.575   3.440   2.092  1.6866  1.6810 -0.5616
 4774TIP3    H214329   1.464   3.514   2.020 -1.2539 -1.5060  0.4143
 4775TIP3   OH214330   5.809   2.196   4.946 -0.0361  0.4959 -0.5933
 4775TIP3    H114331   5.782   2.225   5.033 -0.8868  2.3577 -1.4313
 4775TIP3    H214332   5.797   2.101   4.948  0.6544  0.3832  1.5254
 4776TIP3   OH214333   1.961   5.838   0.945 -0.4458 -0.0081 -0.1490
 4776TIP3    H114334   1.906   5.844   0.867 -0.7916 -0.0447  0.0856
 4776TIP3    H214335   2.044   5.878   0.920 -0.3844 -0.4693 -0.6850
 4777TIP3   OH214336   0.802   3.542   2.673 -0.6727 -0.0095  0.4679
 4777TIP3    H114337   0.847   3.499   2.747  0.4675 -0.9971 -0.7546
 4777TIP3    H214338   0.711   3.551   2.703 -0.3717 -0.9542  1.7685
 4778TIP3   OH214339   5.691   1.714   0.597 -0.0619  0.0543 -0.4373
 4778TIP3    H114340   5.715   1.805   0.616  0.9581 -0.1280 -0.7931
 4778TIP3    H214341   5.663   1.678   0.682  0.7070  0.3528 -0.0527
 4779TIP3   OH214342   2.177   3.021   3.241 -0.0565 -0.1426  0.1332
 4779TIP3    H114343   2.241   3.026   3.312 -1.2510  4.4794  1.2352
 4779TIP3    H214344   2.219   3.064   3.167 -0.4992 -0.7085 -0.4686
 4780TIP3   OH214345   1.931   2.447   2.232 -0.0547  0.0397 -0.2143
 4780TIP3    H114346   1.874   2.497   2.174  0.0105  0.2073 -0.1347
 4780TIP3    H214347   1.878   2.372   2.260  0.7389 -1.5356 -2.5909
 4781TIP3   OH214348   0.290   3.511   2.163 -0.4215 -0.4141  0.0597
 4781TIP3    H114349   0.323   3.564   2.091 -0.6187  0.0574  0.3110
 4781TIP3    H214350   0.324   3.554   2.242 -1.5344  0.0269  0.3193
 4782TIP3   OH214351   6.267   4.770   2.013  0.1249  0.0761  0.3253
 4782TIP3    H114352   6.359   4.748   1.998  0.0266  0.8222 -1.7343
 4782TIP3    H214353   6.269   4.837   2.082  0.9715 -0.9639  1.3445
 4783TIP3   OH214354   2.846   4.220   0.725  0.1420  0.0155 -0.7977
 4783TIP3    H114355   2.786   4.208   0.651  0.0834 -0.9345 -0.6133
 4783TIP3    H214356   2.838   4.312   0.748  1.2277  0.6983 -2.8843
 4784TIP3   OH214357   2.240   5.240   3.341 -0.6155 -0.1489  0.2226
 4784TIP3    H114358   2.152   5.205   3.351  0.0069 -1.8388  0.0586
 4784TIP3    H214359   2.288   5.206   3.417  0.1934 -0.2385 -0.3146
 4785TIP3   OH214360   4.922   5.022   3.622 -0.1492 -0.4370 -0.7583
 4785TIP3    H114361   4.915   5.041   3.528 -1.7207 -0.6013 -0.6954
 4785TIP3    H214362   4.864   5.086   3.664  0.6951 -0.2269  0.1327
 4786TIP3   OH214363   1.432   1.814   4.349 -0.3019 -0.6713  0.4109
 4786TIP3    H114364   1.381   1.734   4.360  0.2173 -0.9058  1.1992
 4786TIP3    H214365   1.369   1.885   4.364 -0.2548 -0.9569  2.2089
 4787TIP3   OH214366   4.476   5.008   1.431  0.0618 -0.3465  0.0243
 4787TIP3    H114367   4.383   5.020   1.413  0.5013  1.0014 -1.6444
 4787TIP3    H214368   4.504   5.090   1.471  1.1384  0.6220 -2.4933
 4788TIP3   OH214369   0.619   0.385   2.155  0.0984 -0.2158  0.5037
 4788TIP3    H114370   0.588   0.411   2.068 -0.0175 -0.8247  0.3627
 4788TIP3    H214371   0.656   0.466   2.191 -0.1114  0.1122  0.0050
 4789TIP3   OH214372   4.572   1.447   2.671  0.0786  0.2944 -0.0931
 4789TIP3    H114373   4.555   1.360   2.636  0.8198  0.3103 -0.5185
 4789TIP3    H214374   4.667   1.457   2.666  0.1902  0.4172  1.6658
 4790TIP3   OH214375   2.815   1.059   0.571 -0.2949  0.8272  0.2220
 4790TIP3    H114376   2.882   1.127   0.580  0.8872 -0.4185  1.2161
 4790TIP3    H214377   2.827   1.025   0.482 -1.1353  2.1108 -0.4192
 4791TIP3   OH214378   6.016   1.206   1.532 -0.1071 -0.0437  0.2275
 4791TIP3    H114379   6.060   1.261   1.466 -1.3020  0.7998  0.1010
 4791TIP3    H214380   6.076   1.133   1.546  1.4706  1.2009  0.2625
 4792TIP3   OH214381   6.079   3.692   2.286 -0.4284  0.1994 -0.6479
 4792TIP3    H114382   6.038   3.622   2.234 -0.1798  0.4438 -1.1832
 4792TIP3    H214383   6.169   3.663   2.298 -0.6106 -0.0807  0.0625
 4793TIP3   OH214384   3.668   5.918   2.027 -0.9817 -0.3828 -0.1360
 4793TIP3    H114385   3.726   5.868   1.969  1.0343  3.7820 -2.1282
 4793TIP3    H214386   3.727   5.961   2.088 -2.3102  1.1888  0.1057
 4794TIP3   OH214387   5.594   5.327   0.246  0.4221  0.3700 -0.3988
 4794TIP3    H114388   5.540   5.259   0.284  1.4168  0.7921  1.9614
 4794TIP3    H214389   5.533   5.395   0.219 -0.4539 -0.7621 -1.3758
 4795TIP3   OH214390   1.195   5.745   2.688  0.6726  0.0788  0.1199
 4795TIP3    H114391   1.256   5.793   2.743  1.0746 -0.5295  0.2152
 4795TIP3    H214392   1.208   5.653   2.711 -0.3318 -0.0582  0.1958
 4796TIP3   OH214393   1.738   0.453   4.355 -0.3324 -0.1432  0.6348
 4796TIP3    H114394   1.716   0.363   4.334  0.1631 -0.1375  0.0653
 4796TIP3    H214395   1.830   0.450   4.381  0.1641  0.4165 -0.9430
 4797TIP3   OH214396   0.280   2.162   2.398  0.1524  0.5013  0.4298
 4797TIP3    H114397   0.319   2.097   2.339 -1.6162  0.7374 -1.1030
 4797TIP3    H214398   0.327   2.151   2.481 -0.1757 -2.8832  0.3216
 4798TIP3   OH214399   1.326   4.290   0.489  0.3769 -0.0140  0.0122
 4798TIP3    H114400   1.287   4.336   0.414  1.1703 -0.2460 -0.5505
 4798TIP3    H214401   1.416   4.321   0.493  0.6356 -0.7725  0.2436
 4799TIP3   OH214402   5.304   3.229   5.061 -0.2744  0.5362 -0.2626
 4799TIP3    H114403   5.286   3.290   5.132  0.3414 -0.2884  0.6308
 4799TIP3    H214404   5.394   3.246   5.036  1.0145 -1.9439  2.0836
 4800TIP3   OH214405   5.234   5.190   4.013 -0.1886 -0.0953  0.0573
 4800TIP3    H114406   5.163   5.135   3.979  0.2273 -1.2139  0.9311
 4800TIP3    H214407   5.314   5.143   3.988  0.3559  1.7475 -1.9656
 4801TIP3   OH214408   4.567   4.140   3.515  0.3231 -0.0866  0.0015
 4801TIP3    H114409   4.620   4.071   3.475 -0.7439 -0.2918 -1.0976
 4801TIP3    H214410   4.581   4.128   3.609  0.3564 -1.6584 -0.1664
 4802TIP3   OH214411   6.043   5.141   0.398  0.3189 -0.3136 -0.2818
 4802TIP3    H114412   6.136   5.147   0.377  0.6692 -1.5008  0.8152
 4802TIP3    H214413   6.024   5.047   0.400 -0.6943 -0.1172  0.3412
 4803TIP3   OH214414   5.687   1.523   5.044 -0.1780 -0.0696 -0.1582
 4803TIP3    H114415   5.659   1.433   5.060 -1.0465  0.2223  0.0106
 4803TIP3    H214416   5.747   1.517   4.970 -0.6653 -0.7159 -0.5046
 4804TIP3   OH214417   0.417   5.813   2.557 -0.0168 -0.4221  0.1662
 4804TIP3    H114418   0.336   5.814   2.506 -0.4382  1.9785  0.7569
 4804TIP3    H214419   0.474   5.874   2.511  1.5053 -2.0865 -0.2390
 4805TIP3   OH214420   1.207   0.606   4.444 -0.0939 -0.4286 -0.3194
 4805TIP3    H114421   1.116   0.632   4.459 -0.3954 -1.7682  0.3096
 4805TIP3    H214422   1.222   0.535   4.506  1.9290  0.8873  0.7736
 4806TIP3   OH214423   5.579   3.580   2.185  0.2921 -0.2138  0.7619
 4806TIP3    H114424   5.486   3.605   2.191  0.3387 -0.0348  0.7558
 4806TIP3    H214425   5.587   3.539   2.099 -0.1616 -1.8719  1.4747
 4807TIP3   OH214426   2.493   2.559   0.782  0.2562  0.3685 -0.1902
 4807TIP3    H114427   2.431   2.508   0.834  0.1781 -0.0992 -0.7226
 4807TIP3    H214428   2.459   2.554   0.693 -0.5606  2.6021 -0.0533
 4808TIP3   OH214429   4.090   3.897   0.492  0.1331 -0.1085 -0.3218
 4808TIP3    H114430   4.054   3.964   0.550  0.8010  0.0355 -0.0606
 4808TIP3    H214431   4.016   3.840   0.472  0.0422 -0.6347  1.3284
 4809TIP3   OH214432   3.850   2.173   2.508 -0.1865 -0.1321  0.2515
 4809TIP3    H114433   3.885   2.131   2.586 -0.0172 -1.0238 -0.3016
 4809TIP3    H214434   3.798   2.246   2.542 -0.5083 -0.8006  1.2209
 4810TIP3   OH214435   1.658   2.262   0.030  0.0311  0.7738 -0.1439
 4810TIP3    H114436   1.576   2.276   0.077  0.4386  3.7200 -0.1241
 4810TIP3    H214437   1.631   2.247  -0.061 -0.6091 -1.9503  0.4110
 4811TIP3   OH214438   1.924   0.704   1.021 -0.2908  0.0074  0.0328
 4811TIP3    H114439   1.885   0.771   1.078  0.4804 -0.0067  0.5861
 4811TIP3    H214440   1.902   0.621   1.063 -1.5464 -0.1330 -0.8365
 4812TIP3   OH214441   4.280   3.239   2.816 -0.3753  1.0473  0.1326
 4812TIP3    H114442   4.189   3.209   2.813  0.6079 -2.2187 -0.0608
 4812TIP3    H214443   4.329   3.166   2.852  2.2803  2.5838 -0.0754
 4813TIP3   OH214444   5.172   1.113   1.270  0.1859  0.1950  0.2716
 4813TIP3    H114445   5.182   1.018   1.279 -2.1824 -0.1729 -0.2849
 4813TIP3    H214446   5.245   1.140   1.215  0.6611 -1.3734  0.0944
 4814TIP3   OH214447   0.473   1.832   2.603  0.3009 -0.9542  0.2246
 4814TIP3    H114448   0.503   1.767   2.540 -0.0119  0.7430 -1.8173
 4814TIP3    H214449   0.518   1.913   2.577 -0.9783  0.1490  1.2651
 4815TIP3   OH214450   4.190   3.483   3.855  0.3292 -0.2157 -0.1322
 4815TIP3    H114451   4.189   3.441   3.941 -1.5790 -0.7670 -0.3840
 4815TIP3    H214452   4.279   3.467   3.822  1.0697 -0.0507  1.6720
 4816TIP3   OH214453   4.126   1.145   2.505 -0.1284  0.3032  0.0194
 4816TIP3    H114454   4.064   1.102   2.563  1.1719  0.0480  1.2767
 4816TIP3    H214455   4.195   1.177   2.562  0.5132  1.2803 -1.2460
 4817TIP3   OH214456   3.396   4.262   2.461  0.0306  0.1937  0.2599
 4817TIP3    H114457   3.343   4.323   2.410  0.1313 -0.7384 -1.0099
 4817TIP3    H214458   3.472   4.245   2.405  0.3511 -0.5357  0.9122
 4818TIP3   OH214459   0.363   0.597   1.814  0.0399  0.0339 -0.0484
 4818TIP3    H114460   0.414   0.518   1.828  1.5245  0.3091 -3.2063
 4818TIP3    H214461   0.424   0.669   1.830  0.1857  0.4000 -2.0070
 4819TIP3   OH214462   2.628   1.952   0.285  0.2299  0.3765  0.5457
 4819TIP3    H114463   2.667   1.989   0.363 -1.2415  1.9448  0.6136
 4819TIP3    H214464   2.550   1.906   0.316  0.2671  0.0302  0.1368
 4820TIP3   OH214465   3.460   3.484   1.767 -0.0548  0.0548 -0.3683
 4820TIP3    H114466   3.483   3.485   1.674  0.4156 -2.1175 -0.3383
 4820TIP3    H214467   3.389   3.420   1.773  0.8131 -0.8325  0.9067
 4821TIP3   OH214468   0.441   3.068   3.906  0.3632  0.1328 -0.2248
 4821TIP3    H114469   0.370   3.126   3.880 -0.0822  0.0368  0.7177
 4821TIP3    H214470   0.520   3.111   3.876 -0.1095  0.0413 -1.6481
 4822TIP3   OH214471   2.982   1.274   4.683  0.3414 -0.5875 -0.1452
 4822TIP3    H114472   2.970   1.351   4.739 -0.7404  1.1642 -2.5729
 4822TIP3    H214473   2.895   1.254   4.650  0.7818 -2.2305 -0.3987
 4823TIP3   OH214474   2.455   1.654   4.848  0.5929  0.4636  0.1669
 4823TIP3    H114475   2.423   1.701   4.771  0.8550  0.2859 -0.0512
 4823TIP3    H214476   2.418   1.702   4.922 -0.4107  0.1104 -0.0819
 4824TIP3   OH214477   3.881   2.688   3.218  0.0847  0.5978 -0.2049
 4824TIP3    H114478   3.973   2.717   3.219  0.6057 -0.9538 -0.3435
 4824TIP3    H214479   3.862   2.672   3.126  0.9935 -2.8735  0.0950
 4825TIP3   OH214480   3.409   4.475   5.066 -0.0836 -0.4294  0.2128
 4825TIP3    H114481   3.458   4.465   5.147  1.4617 -0.1909 -0.6588
 4825TIP3    H214482   3.413   4.569   5.047 -0.7695 -0.4255  0.0528
 4826TIP3   OH214483   2.837   0.177   4.724 -0.4098  0.4147 -0.3028
 4826TIP3    H114484   2.861   0.109   4.662  1.1241  0.0688  0.6237
 4826TIP3    H214485   2.920   0.208   4.760 -1.1909  1.3602  0.7772
 4827TIP3   OH214486   2.675   0.061   1.942 -0.3316  0.2584 -0.2075
 4827TIP3    H114487   2.585   0.085   1.963 -0.3433  0.0657 -0.0322
 4827TIP3    H214488   2.702   0.124   1.875 -0.2292  1.0440  0.5380
 4828TIP3   OH214489   5.369   1.602   1.558  0.4818  0.5123  0.2300
 4828TIP3    H114490   5.390   1.552   1.637 -1.3943 -0.7628  0.0044
 4828TIP3    H214491   5.317   1.541   1.505 -0.6296  2.2297 -0.7417
 4829TIP3   OH214492   3.907   2.935   2.312  0.8419 -0.9028 -0.1587
 4829TIP3    H114493   3.938   2.862   2.258  1.6737 -1.5112  1.0944
 4829TIP3    H214494   3.964   3.008   2.289 -1.1487 -0.0230 -2.7817
 4830TIP3   OH214495   2.634   5.889   4.160  0.1464 -0.5983  0.3577
 4830TIP3    H114496   2.669   5.877   4.072  0.4125 -2.1493  0.6579
 4830TIP3    H214497   2.698   5.946   4.203  0.2217 -0.1558 -0.3107
 4831TIP3   OH214498   0.265   3.797   1.654  0.1583  0.0527 -0.5424
 4831TIP3    H114499   0.216   3.854   1.595 -1.4131 -0.7283 -0.0386
 4831TIP3    H214500   0.256   3.839   1.740  0.1962 -0.2164 -0.4077
 4832TIP3   OH214501   0.742   4.273   3.907  0.3525 -0.7472  0.3263
 4832TIP3    H114502   0.762   4.345   3.848 -0.3616 -1.3078 -0.6182
 4832TIP3    H214503   0.814   4.211   3.896  0.7915 -0.3473  0.8867
 4833TIP3   OH214504   0.973   0.828   2.596  0.4188  0.3788  0.0826
 4833TIP3    H114505   0.937   0.917   2.593  1.0963  0.6672  0.1622
 4833TIP3    H214506   1.043   0.829   2.530  1.2439  0.2912  0.9263
 4834TIP3   OH214507   1.026   4.106   5.132  0.0439  0.4136 -0.2690
 4834TIP3    H114508   1.005   4.155   5.212 -0.2111 -0.6201  0.3168
 4834TIP3    H214509   1.000   4.016   5.152  0.7207 -0.0070 -1.2308
 4835TIP3   OH214510   1.172   5.600   4.878  0.2079 -0.6918 -0.1096
 4835TIP3    H114511   1.261   5.626   4.899  0.3062 -0.1065 -1.1749
 4835TIP3    H214512   1.120   5.627   4.954  0.7959 -0.1977  0.1201
 4836TIP3   OH214513   1.287   4.335   1.505  0.7255 -0.1984  0.3642
 4836TIP3    H114514   1.332   4.416   1.528  0.8404 -0.0085 -0.5002
 4836TIP3    H214515   1.196   4.350   1.529  0.7726  0.1314  0.3326
 4837TIP3   OH214516   4.548   1.575   1.996 -0.4144  0.0658  0.3596
 4837TIP3    H114517   4.477   1.519   2.027 -0.8650 -1.3531 -2.7934
 4837TIP3    H214518   4.504   1.650   1.956 -0.1423 -0.3737 -0.8027
 4838TIP3   OH214519   6.361   2.473   2.147  0.0212  0.1196 -0.7469
 4838TIP3    H114520   6.368   2.521   2.230  0.8965 -1.8609  0.4042
 4838TIP3    H214521   6.276   2.500   2.112 -1.8023 -1.0725  2.2778
 4839TIP3   OH214522   2.914   4.111   4.665  0.2010  0.3687  0.0360
 4839TIP3    H114523   2.989   4.170   4.672  0.5276 -0.0022 -0.3164
 4839TIP3    H214524   2.838   4.170   4.667  0.5513  0.9743 -1.9671
 4840TIP3   OH214525   4.785   2.979   2.153 -0.2600  0.3497  0.4639
 4840TIP3    H114526   4.692   2.955   2.149 -0.0217 -0.5174 -0.0404
 4840TIP3    H214527   4.800   3.001   2.245 -0.7162 -0.5198  0.7525
 4841TIP3   OH214528   2.668   5.770   2.281 -0.5666 -0.3111 -0.0956
 4841TIP3    H114529   2.613   5.840   2.316  0.5534 -0.3330  1.8338
 4841TIP3    H214530   2.608   5.697   2.269 -1.1764  0.0109  0.8734
 4842TIP3   OH214531   3.588   3.676   4.984  0.6344 -0.4584 -0.2706
 4842TIP3    H114532   3.565   3.616   4.913  0.3151 -0.3390 -0.2694
 4842TIP3    H214533   3.680   3.695   4.970  0.4252  0.0318 -1.0042
 4843TIP3   OH214534   3.772   4.308   4.682 -0.6723 -0.5280 -0.6198
 4843TIP3    H114535   3.767   4.403   4.698  1.3111 -0.1618 -1.7847
 4843TIP3    H214536   3.700   4.290   4.621  0.2821  0.7341 -2.2250
 4844TIP3   OH214537   6.115   2.379   1.801 -0.1029 -0.1619 -0.6863
 4844TIP3    H114538   6.057   2.396   1.726  0.9706 -0.2291 -1.5456
 4844TIP3    H214539   6.125   2.465   1.843  1.3160  0.4320 -2.1273
 4845TIP3   OH214540   1.577   1.680   0.791  0.6633 -0.0542 -0.0963
 4845TIP3    H114541   1.642   1.635   0.845  2.4228  2.6439  0.2038
 4845TIP3    H214542   1.549   1.755   0.844 -1.6417 -0.2910 -0.8399
 4846TIP3   OH214543   3.819   5.142   4.414  0.0084  0.2839 -0.3184
 4846TIP3    H114544   3.869   5.141   4.332  1.0574 -0.8852  0.3038
 4846TIP3    H214545   3.810   5.235   4.435 -0.8801  0.6492 -2.0896
 4847TIP3   OH214546   5.512   2.798   3.876  0.1855 -0.1081  0.2160
 4847TIP3    H114547   5.510   2.778   3.970  0.1266 -1.3397 -0.0305
 4847TIP3    H214548   5.422   2.822   3.854 -0.0178 -0.7779  0.2894
 4848TIP3   OH214549   0.989   4.191   4.113 -0.0672 -0.5880 -0.3725
 4848TIP3    H114550   1.020   4.257   4.175 -1.5615  0.7384 -0.9522
 4848TIP3    H214551   0.956   4.120   4.168 -1.0307  0.4079  0.3771
 4849TIP3   OH214552   3.038   4.176   3.641 -0.1287 -0.0272  0.5580
 4849TIP3    H114553   3.076   4.161   3.554  3.8322  2.7458  1.5427
 4849TIP3    H214554   3.004   4.266   3.637  0.1625  0.1520  1.8929
 4850TIP3   OH214555   0.500   3.044   2.621 -0.0120  0.1395  0.0383
 4850TIP3    H114556   0.413   3.004   2.615 -0.0605 -0.1859  2.3452
 4850TIP3    H214557   0.533   3.042   2.531 -2.1740 -0.1865 -0.8023
 4851TIP3   OH214558   3.735   1.223   2.092 -0.2680 -0.6399 -0.1205
 4851TIP3    H114559   3.795   1.155   2.063  1.8227  1.3028 -0.6153
 4851TIP3    H214560   3.769   1.251   2.177 -0.4319  0.4957 -0.4078
 4852TIP3   OH214561   3.871   2.851   2.624 -0.3970  0.1575  0.0433
 4852TIP3    H114562   3.944   2.872   2.682 -0.6239  1.2668 -0.0588
 4852TIP3    H214563   3.797   2.835   2.683 -0.3419  0.1369  0.1063
 4853TIP3   OH214564   0.801   5.207   4.262 -0.2921  0.1567 -0.4091
 4853TIP3    H114565   0.786   5.270   4.332  2.3629  0.0819  0.3557
 4853TIP3    H214566   0.821   5.261   4.185 -0.1460  0.2448 -0.3092
 4854TIP3   OH214567   3.126   5.957   3.225  0.0492 -0.2443  0.1189
 4854TIP3    H114568   3.100   5.866   3.210 -0.0346 -0.2233  0.1341
 4854TIP3    H214569   3.176   5.955   3.306  0.3362 -0.3296 -0.0592
 4855TIP3   OH214570   0.787   2.710   0.527  0.4915  0.1709  0.1331
 4855TIP3    H114571   0.817   2.641   0.468  0.9583 -0.4197  1.0339
 4855TIP3    H214572   0.701   2.735   0.493  0.5524 -0.4772 -0.5206
 4856TIP3   OH214573   0.673   5.082   4.524 -0.1996 -0.0198  0.1313
 4856TIP3    H114574   0.591   5.064   4.570 -0.3756  0.5890  0.0686
 4856TIP3    H214575   0.647   5.094   4.433  0.0129 -0.2043  0.0460
 4857TIP3   OH214576   4.635   0.595   0.356  0.2056  0.3674 -0.0140
 4857TIP3    H114577   4.692   0.523   0.330 -0.6152 -0.1269 -0.4999
 4857TIP3    H214578   4.655   0.609   0.449  0.8395 -0.0409 -0.0796
 4858TIP3   OH214579   0.759   3.391   1.671  0.2420 -0.6517 -0.4013
 4858TIP3    H114580   0.675   3.360   1.638  0.8554 -1.7993 -0.9430
 4858TIP3    H214581   0.775   3.473   1.624 -1.0669  0.1828  0.5212
 4859TIP3   OH214582   5.124   5.186   2.649  0.4704 -0.2280 -0.0427
 4859TIP3    H114583   5.103   5.094   2.668 -0.1293  0.0194  0.5309
 4859TIP3    H214584   5.083   5.203   2.565 -0.7375 -0.0657  0.5592
 4860TIP3   OH214585   4.296   0.539   1.794 -0.2414  0.0347 -0.2789
 4860TIP3    H114586   4.271   0.555   1.703  0.4260  0.4859 -0.3937
 4860TIP3    H214587   4.311   0.627   1.830 -1.4988 -0.0787  0.5605
 4861TIP3   OH214588   1.545   3.694   5.128  0.4834 -0.1795  0.0437
 4861TIP3    H114589   1.629   3.665   5.162  0.0745 -2.2161 -0.4953
 4861TIP3    H214590   1.519   3.625   5.066 -1.4024  0.5654 -0.0851
 4862TIP3   OH214591   5.493   1.646   2.270 -1.0554  0.0463  0.2231
 4862TIP3    H114592   5.482   1.552   2.258 -1.0943 -0.0590  1.0214
 4862TIP3    H214593   5.404   1.681   2.264 -1.1330 -0.0658  0.7098
 4863TIP3   OH214594   4.792   1.522   3.336 -0.5125  0.0576 -0.3838
 4863TIP3    H114595   4.794   1.466   3.414 -1.4996  0.8675  0.2649
 4863TIP3    H214596   4.754   1.604   3.368  0.6656  1.0034 -1.3607
 4864TIP3   OH214597   6.302   5.548   0.245  0.1032 -0.0709 -0.2729
 4864TIP3    H114598   6.309   5.628   0.193  0.2088  0.6468  0.8213
 4864TIP3    H214599   6.242   5.492   0.195  0.3517  0.5163 -1.2504
 4865TIP3   OH214600   5.353   2.513   3.742 -0.2347 -0.2912 -0.1830
 4865TIP3    H114601   5.410   2.502   3.666  1.2940 -0.2994  0.9003
 4865TIP3    H214602   5.323   2.425   3.763  2.7102 -0.9987  1.6307
 4866TIP3   OH214603   5.614   4.298   2.490 -0.5259 -0.0059 -0.0968
 4866TIP3    H114604   5.688   4.346   2.453 -0.4655 -0.7819 -1.0154
 4866TIP3    H214605   5.572   4.361   2.549  0.9691  0.3833  0.6108
 4867TIP3   OH214606   2.801   5.259   4.271  0.1001 -0.2562 -0.2226
 4867TIP3    H114607   2.744   5.293   4.202 -0.7409 -1.7059 -0.2885
 4867TIP3    H214608   2.809   5.332   4.333 -0.4506  0.5277 -1.0437
 4868TIP3   OH214609   5.625   4.643   1.960  0.5581 -0.6288 -0.4632
 4868TIP3    H114610   5.704   4.605   1.999  0.1826 -0.0515  0.9474
 4868TIP3    H214611   5.588   4.696   2.030 -1.8403 -1.9757 -0.6011
 4869TIP3   OH214612   3.020   1.290   2.295 -0.0732 -0.0339 -0.2910
 4869TIP3    H114613   2.962   1.334   2.233 -2.2975 -0.8985  1.0693
 4869TIP3    H214614   3.047   1.358   2.356  0.8950  0.4971 -1.2671
 4870TIP3   OH214615   5.490   1.836   1.584 -0.0887 -0.1840  0.1516
 4870TIP3    H114616   5.432   1.911   1.593  1.3087  0.8475  0.9698
 4870TIP3    H214617   5.433   1.764   1.557 -1.3047  1.4011 -1.7691
 4871TIP3   OH214618   1.174   0.867   1.176 -0.1153 -0.3447  0.3697
 4871TIP3    H114619   1.134   0.865   1.089  2.3958  1.0175 -0.9511
 4871TIP3    H214620   1.182   0.774   1.201 -2.4368 -0.6990 -0.0057
 4872TIP3   OH214621   6.277   0.865   0.904 -0.1819  0.2405  0.0235
 4872TIP3    H114622   6.195   0.860   0.855 -0.8791  1.5174  0.9758
 4872TIP3    H214623   6.293   0.775   0.934 -2.0974  0.2191  1.1278
 4873TIP3   OH214624   2.457   1.538   3.089  0.5527  0.3978 -0.0721
 4873TIP3    H114625   2.372   1.497   3.073  0.7872  0.3645 -1.3101
 4873TIP3    H214626   2.440   1.632   3.077  0.7128  0.3827 -0.4087
 4874TIP3   OH214627   3.956   5.381   0.370  0.4351 -0.0873  0.4121
 4874TIP3    H114628   3.921   5.307   0.320  0.9455 -0.0896  0.0480
 4874TIP3    H214629   4.015   5.425   0.308  0.1823  0.5885  0.6415
 4875TIP3   OH214630   3.392   0.346   2.862 -0.3938  0.4238 -0.0518
 4875TIP3    H114631   3.305   0.333   2.823  0.1752 -2.4845 -0.5472
 4875TIP3    H214632   3.403   0.272   2.921  2.1085  0.2038 -0.7077
 4876TIP3   OH214633   2.484   4.559   0.312 -0.0684 -0.0828 -0.1770
 4876TIP3    H114634   2.403   4.610   0.320  0.1344  0.1699  0.3048
 4876TIP3    H214635   2.456   4.468   0.321 -0.1591  0.0551  1.2162
 4877TIP3   OH214636   2.105   0.879   1.298 -0.1089 -0.7038 -0.3183
 4877TIP3    H114637   2.088   0.785   1.293  1.0611 -0.8893 -1.2907
 4877TIP3    H214638   2.089   0.912   1.210 -0.6006  0.0378  0.0330
 4878TIP3   OH214639   1.701   1.984   2.119 -0.3803  0.2919  0.4571
 4878TIP3    H114640   1.792   1.997   2.145 -0.5038 -0.4214  1.2897
 4878TIP3    H214641   1.659   1.946   2.196 -0.5576 -2.7733 -1.0197
 4879TIP3   OH214642   3.385   3.515   4.463  0.0019 -0.2154  0.2203
 4879TIP3    H114643   3.331   3.444   4.427  0.6865 -0.0897 -1.1084
 4879TIP3    H214644   3.322   3.584   4.484 -0.5284 -0.6992  0.2624
 4880TIP3   OH214645   3.323   5.066   1.954 -0.2762 -0.4000  0.0345
 4880TIP3    H114646   3.367   5.116   2.023 -1.0789  0.5293 -0.1033
 4880TIP3    H214647   3.393   5.026   1.904  0.4236  0.9678 -0.1298
 4881TIP3   OH214648   6.006   4.026   0.302  0.2423  0.6527  0.5085
 4881TIP3    H114649   5.946   4.086   0.258 -1.7566 -0.9597  0.8723
 4881TIP3    H214650   5.997   4.047   0.395 -0.1199  0.1445  0.5975
 4882TIP3   OH214651   5.793   2.835   3.592 -0.3980  0.0451 -0.1944
 4882TIP3    H114652   5.868   2.857   3.536 -1.1827 -0.4604 -1.5067
 4882TIP3    H214653   5.717   2.843   3.534 -1.2862 -0.2141  0.8958
 4883TIP3   OH214654   0.180   5.159   3.711  0.1447 -0.2065 -0.1493
 4883TIP3    H114655   0.223   5.090   3.661  0.2473  0.0657 -0.4314
 4883TIP3    H214656   0.183   5.236   3.655  1.5425  0.4966  0.8301
 4884TIP3   OH214657   0.968   5.252   0.948 -0.2924  0.1293  0.0148
 4884TIP3    H114658   0.973   5.207   0.864 -1.4199 -0.4699  0.2505
 4884TIP3    H214659   0.998   5.187   1.012  0.0502  0.4053  0.1390
 4885TIP3   OH214660   5.138   0.323   4.028  0.0895  0.1580  0.0673
 4885TIP3    H114661   5.151   0.228   4.030  0.9469  0.1462 -2.2355
 4885TIP3    H214662   5.043   0.334   4.026 -0.0156 -0.6749 -0.1112
 4886TIP3   OH214663   4.539   2.707   4.177  0.0719 -0.0954 -0.2913
 4886TIP3    H114664   4.514   2.641   4.112  0.6470 -1.2272  0.6095
 4886TIP3    H214665   4.632   2.722   4.161  0.0766  0.0634 -0.1168
 4887TIP3   OH214666   1.127   4.949   3.224  0.0486  0.2656  0.0057
 4887TIP3    H114667   1.105   4.980   3.312 -0.7562  0.0325 -0.1110
 4887TIP3    H214668   1.144   4.855   3.235  0.8878  0.4100  0.0687
 4888TIP3   OH214669   5.465   2.374   4.612  0.3057  0.6548 -0.5382
 4888TIP3    H114670   5.460   2.397   4.705 -2.1790 -0.6329 -0.2795
 4888TIP3    H214671   5.377   2.392   4.578  0.8816  0.1456 -2.4221
 4889TIP3   OH214672   1.470   5.580   2.374  0.1250  0.4698 -0.6914
 4889TIP3    H114673   1.422   5.662   2.377  0.4106  0.6181 -0.2117
 4889TIP3    H214674   1.497   5.571   2.282 -0.7032  0.4459 -0.9421
 4890TIP3   OH214675   3.950   3.126   4.542 -0.2314 -0.1045  0.0829
 4890TIP3    H114676   3.938   3.161   4.454  2.1810  1.3330  0.2479
 4890TIP3    H214677   3.893   3.049   4.545 -0.3070 -0.2583 -2.7453
 4891TIP3   OH214678   5.482   3.924   2.308  0.0019 -0.0245  0.6341
 4891TIP3    H114679   5.395   3.904   2.275 -0.0806 -1.3417  1.5542
 4891TIP3    H214680   5.490   4.019   2.301 -0.4068 -0.1301 -2.0595
 4892TIP3   OH214681   6.074   2.173   3.593  0.3636  0.2119 -0.0448
 4892TIP3    H114682   6.004   2.174   3.527  0.1524 -2.0910  0.0473
 4892TIP3    H214683   6.033   2.131   3.669  2.1853 -2.7429 -0.5338
 4893TIP3   OH214684   0.317   1.164   2.137  0.3212  0.8272 -0.1586
 4893TIP3    H114685   0.276   1.240   2.096 -1.0404  0.5819  0.6771
 4893TIP3    H214686   0.247   1.124   2.189  1.0509 -0.8892 -0.4184
 4894TIP3   OH214687   3.205   4.982   2.815  0.0769 -0.5527  0.7811
 4894TIP3    H114688   3.247   4.907   2.773 -0.6344 -0.8986  0.6586
 4894TIP3    H214689   3.262   5.056   2.795 -0.9617 -0.4048 -2.1254
 4895TIP3   OH214690   0.391   5.034   4.529 -0.2542 -0.2570  0.2573
 4895TIP3    H114691   0.369   4.983   4.451 -0.2024 -0.1867  0.1967
 4895TIP3    H214692   0.317   5.093   4.541 -1.2195 -1.6612  1.4491
 4896TIP3   OH214693   3.422   0.929   4.943 -0.2169 -0.2224 -0.4675
 4896TIP3    H114694   3.504   0.911   4.990 -0.6494 -1.7847 -0.2618
 4896TIP3    H214695   3.359   0.948   5.013 -0.1322  0.6105 -0.6068
 4897TIP3   OH214696   5.288   3.871   1.689 -0.2939  0.5257  0.2698
 4897TIP3    H114697   5.314   3.815   1.762  1.9816  1.7150  0.4660
 4897TIP3    H214698   5.366   3.876   1.634 -1.0845  1.8545 -0.8023
 4898TIP3   OH214699   1.254   5.637   1.730 -0.1410  0.0762  0.1115
 4898TIP3    H114700   1.282   5.718   1.774 -1.7798  0.9774 -0.4553
 4898TIP3    H214701   1.217   5.666   1.647  0.3876 -1.3885 -0.6765
 4899TIP3   OH214702   0.710   3.672   1.263 -0.0920 -0.4103  0.1393
 4899TIP3    H114703   0.726   3.583   1.234 -1.6319 -0.9147  0.7508
 4899TIP3    H214704   0.706   3.724   1.182  0.2836 -0.9840 -0.2478
 4900TIP3   OH214705   0.760   4.799   1.326  0.2538 -0.3183  0.4938
 4900TIP3    H114706   0.730   4.712   1.351  0.5010 -0.0168  1.9572
 4900TIP3    H214707   0.853   4.788   1.307 -0.0755 -0.6803 -1.0965
 4901TIP3   OH214708   0.380   4.469   3.628 -0.2774  0.5491  0.2890
 4901TIP3    H114709   0.299   4.461   3.577  0.9891 -0.5755 -1.6711
 4901TIP3    H214710   0.384   4.387   3.678  1.2019 -0.9846 -2.1461
 4902TIP3   OH214711   1.753   1.519   0.348  0.6516  0.3381 -0.5585
 4902TIP3    H114712   1.794   1.511   0.434 -0.0311 -0.4501 -0.2876
 4902TIP3    H214713   1.819   1.485   0.288  1.8903  2.6631 -0.6069
 4903TIP3   OH214714   2.231   3.736   2.674  0.4110 -0.2361  0.0421
 4903TIP3    H114715   2.248   3.774   2.587  1.7455 -1.0157 -0.0550
 4903TIP3    H214716   2.156   3.678   2.660  0.5067 -0.2276 -0.5417
 4904TIP3   OH214717   4.387   3.083   0.330 -0.6253  0.3338 -0.0890
 4904TIP3    H114718   4.332   3.158   0.309 -0.5862  1.0375  2.0237
 4904TIP3    H214719   4.473   3.121   0.348 -0.4168 -0.3074  0.2933
 4905TIP3   OH214720   0.707   0.090   0.304 -0.6965 -0.0468  0.0937
 4905TIP3    H114721   0.682   0.046   0.223  1.8316 -0.6008 -0.4868
 4905TIP3    H214722   0.742   0.020   0.359  1.0025  0.8065  0.1650
 4906TIP3   OH214723   2.197   4.623   0.383 -0.4428  0.5813 -0.6317
 4906TIP3    H114724   2.137   4.697   0.373 -0.9292  0.3754  0.6599
 4906TIP3    H214725   2.217   4.619   0.476  0.6838 -0.0718 -0.8712
 4907TIP3   OH214726   4.472   5.630   4.654 -0.3637 -0.4890  0.1416
 4907TIP3    H114727   4.499   5.722   4.647 -0.4381 -0.5412 -1.1098
 4907TIP3    H214728   4.551   5.580   4.632  0.3174 -0.8303  2.9220
 4908TIP3   OH214729   2.052   2.116   3.378 -0.1611 -0.1792  0.0705
 4908TIP3    H114730   1.965   2.080   3.397 -0.6762  1.7912  1.7698
 4908TIP3    H214731   2.052   2.202   3.421  1.7769  0.9158 -1.9449
 4909TIP3   OH214732   1.508   3.909   2.884  0.0844 -0.0093 -0.7714
 4909TIP3    H114733   1.572   3.969   2.846 -0.9550  4.0633  3.0563
 4909TIP3    H214734   1.424   3.937   2.847 -0.2759 -0.1767 -0.0873
 4910TIP3   OH214735   1.763   2.897   2.150  0.1342 -0.1574  0.6284
 4910TIP3    H114736   1.843   2.942   2.123  0.4902  0.2286  2.1869
 4910TIP3    H214737   1.693   2.960   2.132  0.4053  0.2508  0.9985
 4911TIP3   OH214738   4.870   0.645   1.043  0.2014 -0.3064  0.2040
 4911TIP3    H114739   4.884   0.605   0.957  2.6618  1.4761 -0.3581
 4911TIP3    H214740   4.913   0.730   1.037 -0.0598  0.1393  3.0189
 4912TIP3   OH214741   5.632   3.504   1.510  0.0324 -0.6137 -0.3444
 4912TIP3    H114742   5.602   3.423   1.551  0.6979 -1.2264 -1.0370
 4912TIP3    H214743   5.673   3.553   1.581 -0.7243 -0.6935  0.1632
 4913TIP3   OH214744   5.352   5.300   3.637  0.3914  0.4220  0.6375
 4913TIP3    H114745   5.262   5.300   3.668 -0.2966  1.6825 -1.1514
 4913TIP3    H214746   5.359   5.221   3.584  0.4310  0.1759  1.0075
 4914TIP3   OH214747   4.245   4.704   2.257  0.1017 -0.2949 -0.3994
 4914TIP3    H114748   4.219   4.796   2.259  0.8248 -0.0010  3.3595
 4914TIP3    H214749   4.340   4.707   2.268  0.2907 -1.4935 -1.6219
 4915TIP3   OH214750   0.792   2.285   1.485  0.1396  0.0112  0.3288
 4915TIP3    H114751   0.810   2.378   1.475  0.8107 -0.2226 -0.9723
 4915TIP3    H214752   0.849   2.256   1.555 -0.1292  0.5849  0.7912
 4916TIP3   OH214753   3.318   4.730   2.325 -0.2103 -0.2699 -0.3428
 4916TIP3    H114754   3.272   4.811   2.348 -2.2483 -1.7729  1.2578
 4916TIP3    H214755   3.402   4.737   2.370  0.3564  1.5948 -1.5507
 4917TIP3   OH214756   2.704   2.500   4.652  0.2792 -0.1500 -0.1863
 4917TIP3    H114757   2.790   2.535   4.673  0.9530 -0.9041 -1.5465
 4917TIP3    H214758   2.681   2.539   4.568 -1.7709  1.8141  1.1597
 4918TIP3   OH214759   4.437   4.140   4.031 -0.4872 -0.7395  0.1103
 4918TIP3    H114760   4.408   4.231   4.038 -0.3639 -0.5847 -1.2066
 4918TIP3    H214761   4.466   4.118   4.120  0.8494  0.9746  0.1598
 4919TIP3   OH214762   0.361   3.305   4.570 -0.5755  0.5346 -0.5177
 4919TIP3    H114763   0.289   3.296   4.508 -0.7417 -1.9019 -0.0792
 4919TIP3    H214764   0.426   3.241   4.541 -1.1015 -1.4787  2.2660
 4920TIP3   OH214765   6.031   4.136   0.532  0.3466 -0.0499  0.2144
 4920TIP3    H114766   6.104   4.188   0.565  0.5168 -0.5722  0.6709
 4920TIP3    H214767   5.953   4.181   0.564  0.3852  1.3029 -1.4078
 4921TIP3   OH214768   0.923   1.806   3.635  0.3112 -0.3271 -0.3244
 4921TIP3    H114769   0.889   1.894   3.619  2.4472  0.8153  0.8469
 4921TIP3    H214770   1.017   1.819   3.648  0.5368 -2.6520  0.9583
 4922TIP3   OH214771   2.565   0.653   0.051  0.8605 -0.5191 -0.1793
 4922TIP3    H114772   2.595   0.657   0.142 -1.2475  0.5629  0.5324
 4922TIP3    H214773   2.475   0.622   0.057  0.4894  0.1215 -1.8572
 4923TIP3   OH214774   0.295   2.396   0.777 -0.5780  0.4192 -0.0317
 4923TIP3    H114775   0.223   2.392   0.714 -0.3962  1.5157 -0.3244
 4923TIP3    H214776   0.253   2.377   0.861 -1.1537  0.7409 -0.2383
 4924TIP3   OH214777   0.660   0.962   1.538  0.0234  0.2662 -0.2879
 4924TIP3    H114778   0.580   0.995   1.580 -0.1533  0.7493 -0.9988
 4924TIP3    H214779   0.685   1.030   1.476 -0.2578 -0.8504 -1.6837
 4925TIP3   OH214780   1.862   0.367   4.991  0.4330 -0.2113  0.6769
 4925TIP3    H114781   1.788   0.417   4.956  0.2626 -2.1080 -1.9095
 4925TIP3    H214782   1.936   0.428   4.989 -0.3926  0.8189  0.5289
 4926TIP3   OH214783   0.425   4.562   0.099 -0.2835 -0.5266  0.4465
 4926TIP3    H114784   0.346   4.525   0.138 -1.2492 -0.1824 -1.0926
 4926TIP3    H214785   0.461   4.491   0.045 -0.8148 -0.0119 -0.6220
 4927TIP3   OH214786   0.404   2.809   2.904 -0.1338 -0.3684 -0.2878
 4927TIP3    H114787   0.466   2.879   2.923  0.8451 -0.6317 -2.2656
 4927TIP3    H214788   0.446   2.730   2.938  0.4764 -0.4870 -1.2678
 4928TIP3   OH214789   3.588   1.724   4.317  0.3759 -0.4316 -0.2361
 4928TIP3    H114790   3.518   1.721   4.251  0.3350 -0.4213 -0.1931
 4928TIP3    H214791   3.664   1.688   4.272  0.3625 -0.3737 -0.3071
 4929TIP3   OH214792   4.592   3.984   3.756 -0.0096 -0.9189 -1.4138
 4929TIP3    H114793   4.598   4.036   3.836  0.3408 -0.6146 -1.6321
 4929TIP3    H214794   4.663   3.920   3.764 -1.1069 -2.0797 -0.6511
 4930TIP3   OH214795   3.169   3.285   0.310 -0.3288  0.1170 -0.1577
 4930TIP3    H114796   3.133   3.222   0.248  0.1071  1.6147 -2.0276
 4930TIP3    H214797   3.097   3.344   0.329 -0.7359 -0.8659  1.5909
 4931TIP3   OH214798   0.022   5.132   1.684 -0.2568 -0.1770  0.3300
 4931TIP3    H114799   0.076   5.203   1.717  0.4827  0.0061 -1.1894
 4931TIP3    H214800   0.074   5.053   1.699  0.1559 -0.0738 -0.5486
 4932TIP3   OH214801   3.240   3.427   2.350  0.5083  0.0664  0.1452
 4932TIP3    H114802   3.194   3.363   2.295 -0.8615  1.0465  0.0945
 4932TIP3    H214803   3.170   3.471   2.399  1.5697  0.3709  1.4316
 4933TIP3   OH214804   2.060   4.940   3.367 -0.1168 -0.0239  0.1073
 4933TIP3    H114805   1.988   4.999   3.346  0.2941  0.1828 -0.7636
 4933TIP3    H214806   2.066   4.943   3.463 -1.4347 -0.2737  0.2109
 4934TIP3   OH214807   1.573   1.647   4.950 -0.2996  1.0432  0.6963
 4934TIP3    H114808   1.569   1.561   4.992 -1.0124 -0.6527 -2.5724
 4934TIP3    H214809   1.664   1.675   4.959  0.4736 -1.0981 -0.0757
 4935TIP3   OH214810   0.032   0.028   1.719  0.0497  0.4550 -0.3143
 4935TIP3    H114811   0.009  -0.035   1.787 -0.7863  1.6279  0.5470
 4935TIP3    H214812  -0.027   0.007   1.646 -3.0283  2.5150  1.3410
 4936TIP3   OH214813   1.306   2.223   2.748 -0.0502  0.1738  0.5249
 4936TIP3    H114814   1.358   2.298   2.776  0.0707  0.9605 -1.6276
 4936TIP3    H214815   1.324   2.214   2.654 -0.5435 -2.1796  0.5788
 4937TIP3   OH214816   5.643   4.324   2.943 -0.2761  0.1099 -0.5736
 4937TIP3    H114817   5.569   4.304   3.001  1.5716 -1.4905  1.4049
 4937TIP3    H214818   5.639   4.258   2.874  0.8720 -1.8662  1.1526
 4938TIP3   OH214819   3.660   0.892   5.080  0.5071 -0.2653 -0.0185
 4938TIP3    H114820   3.690   0.811   5.121 -0.7310 -0.1329  1.2220
 4938TIP3    H214821   3.696   0.961   5.135 -1.0229 -0.0805  0.8000
 4939TIP3   OH214822   2.961   5.306   0.566 -0.3343  0.0552 -0.0424
 4939TIP3    H114823   3.048   5.270   0.584 -0.6382 -1.4986 -1.4930
 4939TIP3    H214824   2.979   5.393   0.529  0.7742 -1.1482 -2.5457
 4940TIP3   OH214825   0.122   3.733   3.153 -0.0445 -0.5634 -0.3613
 4940TIP3    H114826   0.154   3.785   3.079 -0.1521 -0.6725 -0.4848
 4940TIP3    H214827   0.040   3.695   3.122 -0.7932  0.4780  0.2714
 4941TIP3   OH214828   0.004   5.083   4.739 -0.2861 -0.0804  0.3665
 4941TIP3    H114829   0.020   4.994   4.706  0.6904 -0.3791  1.5841
 4941TIP3    H214830   0.083   5.105   4.789 -0.4559  1.5389 -0.0219
 4942TIP3   OH214831   6.120   1.131   3.710 -0.0660 -0.0124  0.1695
 4942TIP3    H114832   6.055   1.201   3.720 -0.8549 -0.6367 -0.4238
 4942TIP3    H214833   6.203   1.171   3.736 -0.1194  1.7766 -2.1767
 4943TIP3   OH214834   0.711   0.974   3.147  0.0354 -0.1234  0.0117
 4943TIP3    H114835   0.738   0.990   3.057  1.1162 -0.4079  0.2587
 4943TIP3    H214836   0.689   1.061   3.181  0.7738  0.1540 -0.1899
 4944TIP3   OH214837   3.378   0.864  -0.029 -0.1606 -0.5132  0.0966
 4944TIP3    H114838   3.356   0.834   0.059 -1.2327 -2.5276 -0.7689
 4944TIP3    H214839   3.360   0.958  -0.028  0.7169 -0.3115  2.2392
 4945TIP3   OH214840   4.205   3.095   3.864  0.3931  0.2310 -0.0521
 4945TIP3    H114841   4.263   3.042   3.918  1.6271 -1.6216 -2.9369
 4945TIP3    H214842   4.118   3.079   3.898  1.2547  1.0954  2.8223
 4946TIP3   OH214843   5.568   1.383   4.100  0.2444  0.1531 -1.2270
 4946TIP3    H114844   5.574   1.419   4.188  1.3410  1.1890 -1.6905
 4946TIP3    H214845   5.500   1.316   4.105  0.8843 -0.4081  0.5905
 4947TIP3   OH214846   3.087   1.287   4.357 -0.4935 -0.1053  0.3204
 4947TIP3    H114847   3.017   1.352   4.364  0.8530  1.4382  0.1052
 4947TIP3    H214848   3.149   1.325   4.295 -0.4403 -2.3878 -1.1248
 4948TIP3   OH214849   3.620   3.874   0.988  0.3923  0.0442  0.6172
 4948TIP3    H114850   3.652   3.917   1.067 -1.0920 -0.1936  1.3903
 4948TIP3    H214851   3.585   3.945   0.934 -0.9858 -0.0191  1.3724
 4949TIP3   OH214852   4.295   0.718   2.988 -0.6258  0.3856 -0.2244
 4949TIP3    H114853   4.325   0.794   3.036  0.7008  0.3707 -0.9752
 4949TIP3    H214854   4.228   0.752   2.928 -0.2357  0.9048 -0.3681
 4950TIP3   OH214855   4.682   5.824   2.905  0.3087  0.2241  0.2053
 4950TIP3    H114856   4.602   5.875   2.913  0.8940  1.4305 -1.2142
 4950TIP3    H214857   4.655   5.734   2.924 -1.0722  0.7998  1.1480
 4951TIP3   OH214858   0.513   0.548   1.107  0.4081  0.6334 -0.1499
 4951TIP3    H114859   0.544   0.464   1.071  0.3534  1.0260 -1.1573
 4951TIP3    H214860   0.573   0.613   1.070 -0.2746  1.1591 -0.3441
 4952TIP3   OH214861   6.270   1.807   2.195  0.4359 -0.4385  0.3234
 4952TIP3    H114862   6.289   1.886   2.146 -0.0671 -1.2943 -1.3288
 4952TIP3    H214863   6.174   1.804   2.201  0.3945 -1.4313 -0.5499
 4953TIP3   OH214864   3.656   3.210   4.532 -0.0030  0.4139  0.1939
 4953TIP3    H114865   3.663   3.249   4.445  0.2473 -0.7088 -0.2976
 4953TIP3    H214866   3.662   3.285   4.592 -1.7013  1.3772 -0.7789
 4954TIP3   OH214867   5.835   1.787   1.910  0.1982  0.3228  0.1576
 4954TIP3    H114868   5.844   1.754   1.820 -0.1729  0.5296  0.0429
 4954TIP3    H214869   5.918   1.764   1.952  0.1709 -0.2472 -0.0837
 4955TIP3   OH214870   4.323   2.346   4.379  0.5453  0.2380 -0.6552
 4955TIP3    H114871   4.409   2.386   4.388 -0.4362  2.9241 -2.0889
 4955TIP3    H214872   4.333   2.281   4.310  1.5505  0.0755 -0.3637
 4956TIP3   OH214873   4.016   5.063   2.973 -0.4999 -0.2237 -0.2721
 4956TIP3    H114874   4.086   5.128   2.983 -0.3759 -0.7292  4.0764
 4956TIP3    H214875   4.060   4.984   2.942  0.4622  0.1533  0.0923
 4957TIP3   OH214876   4.899   0.151   5.144  0.1327  0.3681 -0.7576
 4957TIP3    H114877   4.877   0.071   5.191 -0.0985  1.2893  0.7717
 4957TIP3    H214878   4.831   0.159   5.077 -0.1025 -0.4723 -0.6315
 4958TIP3   OH214879   3.495   4.509   2.681  0.1935  0.0710  0.5394
 4958TIP3    H114880   3.497   4.445   2.753  0.0519 -1.3016 -0.6397
 4958TIP3    H214881   3.569   4.486   2.626  1.2840  2.1360  1.0420
 4959TIP3   OH214882   2.769   3.457   4.426 -0.0193 -0.0647 -0.2978
 4959TIP3    H114883   2.827   3.381   4.419 -0.1439 -0.3975  1.8068
 4959TIP3    H214884   2.821   3.522   4.474 -1.8240 -0.9698  3.1900
 4960TIP3   OH214885   1.182   3.181   1.152 -0.5559  0.1272 -0.0079
 4960TIP3    H114886   1.183   3.093   1.113 -0.2714  0.2312 -0.2391
 4960TIP3    H214887   1.240   3.174   1.227  0.8350  0.5468 -0.9959
 4961TIP3   OH214888   6.280   2.350   3.539 -0.1401 -0.3979 -0.4672
 4961TIP3    H114889   6.350   2.287   3.557 -0.4844 -0.6288  0.0645
 4961TIP3    H214890   6.200   2.299   3.546 -0.4086  0.0481 -0.2688
 4962TIP3   OH214891   4.414   5.614   0.418 -0.1628  0.1526  0.7010
 4962TIP3    H114892   4.345   5.583   0.360  0.0461 -0.6456  0.8629
 4962TIP3    H214893   4.491   5.563   0.393  0.9472  2.4224 -0.8641
 4963TIP3   OH214894   4.568   1.783   4.354  0.2674 -0.0650  0.0865
 4963TIP3    H114895   4.520   1.732   4.419 -0.5973 -0.0849 -0.5515
 4963TIP3    H214896   4.658   1.784   4.386 -0.0476 -0.4969  1.0177
 4964TIP3   OH214897   1.728   5.278   4.838  0.2566  0.2806  0.2583
 4964TIP3    H114898   1.673   5.298   4.913 -0.8263 -1.1091 -0.1169
 4964TIP3    H214899   1.756   5.364   4.805 -1.7820  1.0501  0.4054
 4965TIP3   OH214900   6.130   0.466   4.397  0.0138  0.2765  0.2118
 4965TIP3    H114901   6.188   0.511   4.337  0.0281  0.9921  0.7544
 4965TIP3    H214902   6.048   0.514   4.392 -1.3628 -2.0302 -2.2620
 4966TIP3   OH214903   6.066   1.524   3.981  0.5695  0.3358 -0.1833
 4966TIP3    H114904   6.019   1.525   4.065 -0.0417  0.3839 -0.5193
 4966TIP3    H214905   6.103   1.612   3.973  0.1538  0.5091 -0.2216
 4967TIP3   OH214906   5.153   1.253   4.718  0.1063 -0.3687 -0.5180
 4967TIP3    H114907   5.118   1.165   4.705  2.3958 -1.2394 -1.3382
 4967TIP3    H214908   5.207   1.269   4.640 -1.3503  2.3880 -1.1073
 4968TIP3   OH214909   4.521   4.878   1.870 -0.2173 -0.0481 -0.5706
 4968TIP3    H114910   4.613   4.883   1.844  0.1291 -1.3585  0.3327
 4968TIP3    H214911   4.523   4.849   1.961 -1.4745  1.9715  0.1650
 4969TIP3   OH214912   2.158   3.209   0.925  0.2520 -0.2505 -0.5935
 4969TIP3    H114913   2.248   3.191   0.896  0.6804  0.6653  0.0781
 4969TIP3    H214914   2.103   3.156   0.868  1.1195  0.5092 -2.2230
 4970TIP3   OH214915   3.195   5.381   3.923  0.4015  0.2505 -0.2911
 4970TIP3    H114916   3.278   5.422   3.948  0.0093  1.6408 -1.1367
 4970TIP3    H214917   3.220   5.301   3.877  1.2291  0.0544  0.4785
 4971TIP3   OH214918   1.148   0.357   4.220 -0.2686 -0.2710 -0.9459
 4971TIP3    H114919   1.123   0.409   4.296  0.3156 -1.7186  0.2738
 4971TIP3    H214920   1.226   0.400   4.186  0.5022 -0.6048  0.3457
 4972TIP3   OH214921   4.679   0.144   2.635 -0.6833  0.2706  0.0142
 4972TIP3    H114922   4.702   0.075   2.697 -0.1192 -1.3644 -1.9057
 4972TIP3    H214923   4.611   0.195   2.680  0.2336 -0.3528  2.2358
 4973TIP3   OH214924   0.686   2.199   3.159 -0.1887 -0.1788  0.3769
 4973TIP3    H114925   0.779   2.208   3.140 -0.2999 -0.1492 -0.2022
 4973TIP3    H214926   0.647   2.171   3.075 -0.8607  0.9696  0.2739
 4974TIP3   OH214927   2.244   2.818   4.298 -0.1374  0.3407 -0.6459
 4974TIP3    H114928   2.280   2.905   4.279 -0.1635  0.1954 -1.3953
 4974TIP3    H214929   2.305   2.780   4.362  0.7370  0.3102 -1.4757
 4975TIP3   OH214930   2.335   0.895   4.609  0.3767  0.1769 -0.3131
 4975TIP3    H114931   2.357   0.988   4.600  0.6277  0.1195 -0.3034
 4975TIP3    H214932   2.409   0.849   4.567  0.6308 -0.0413  0.3682
 4976TIP3   OH214933   2.414   2.676   1.564  0.1679  0.1423  0.1385
 4976TIP3    H114934   2.433   2.688   1.657  0.7940  1.7998 -0.1743
 4976TIP3    H214935   2.491   2.633   1.528  1.2664  2.2563 -0.1590
 4977TIP3   OH214936   0.258   4.345   4.048  0.1305 -0.2267  0.0284
 4977TIP3    H114937   0.310   4.425   4.057 -1.1638  0.8065 -1.1787
 4977TIP3    H214938   0.168   4.373   4.064 -0.7920 -0.6626 -3.4999
 4978TIP3   OH214939   3.625   0.685   4.585 -0.1328 -0.2402  0.1286
 4978TIP3    H114940   3.695   0.620   4.582 -0.0150 -0.2459  1.7132
 4978TIP3    H214941   3.635   0.727   4.671 -0.1622  1.9366 -0.8569
 4979TIP3   OH214942   0.865   1.418   0.651  0.0849 -0.3139  0.3144
 4979TIP3    H114943   0.908   1.334   0.638  0.6337 -0.0234  0.1820
 4979TIP3    H214944   0.914   1.478   0.594 -0.0021  0.1828  0.7555
 4980TIP3   OH214945   2.752   5.006   4.786 -0.1070 -0.2523  0.3426
 4980TIP3    H114946   2.756   4.984   4.879 -1.5976 -2.6691 -0.0675
 4980TIP3    H214947   2.844   5.021   4.762  0.6332 -2.0279  1.7323
 4981TIP3   OH214948   4.524   5.321   3.612  0.1140  0.5203  0.5064
 4981TIP3    H114949   4.462   5.310   3.684  0.0114  0.7548  0.4548
 4981TIP3    H214950   4.484   5.273   3.539 -0.5913  1.6419  0.1301
 4982TIP3   OH214951   4.534   4.500   4.939  0.1253  0.0349  0.6597
 4982TIP3    H114952   4.566   4.547   4.862 -0.2136 -0.3432  0.2831
 4982TIP3    H214953   4.445   4.533   4.953 -0.3436 -0.9166  0.0266
 4983TIP3   OH214954   1.708   2.221   4.600  0.2428  0.0524 -0.6983
 4983TIP3    H114955   1.782   2.192   4.546  1.6203  0.7334  0.7512
 4983TIP3    H214956   1.680   2.304   4.560  0.5413  0.0157 -0.9923
 4984TIP3   OH214957   6.068   5.431   0.166  0.0362  0.0126  0.6050
 4984TIP3    H114958   6.040   5.503   0.222  1.1872 -0.3951  1.7452
 4984TIP3    H214959   5.987   5.401   0.124 -0.4783  1.8869  0.1605
 4985TIP3   OH214960   5.314   1.494   2.494  0.1454 -0.7502 -0.2276
 4985TIP3    H114961   5.277   1.568   2.447  1.0465  1.1499  1.8245
 4985TIP3    H214962   5.388   1.466   2.440  0.6491  0.7970 -0.3987
 4986TIP3   OH214963   2.512   3.138   0.302  0.2171  0.1233  0.0403
 4986TIP3    H114964   2.471   3.224   0.311  0.5261  0.2753  0.0383
 4986TIP3    H214965   2.591   3.156   0.251 -0.5737 -0.4179 -1.4336
 4987TIP3   OH214966   0.486   0.935   4.663  0.3910  0.5527 -0.3707
 4987TIP3    H114967   0.545   0.907   4.733  1.7351 -0.1140 -1.7125
 4987TIP3    H214968   0.447   0.854   4.631 -1.7596  1.0336  0.8628
 4988TIP3   OH214969   5.534   2.159   3.580  0.1169  0.5214 -0.6266
 4988TIP3    H114970   5.506   2.173   3.489  2.3393 -1.3967 -1.7184
 4988TIP3    H214971   5.516   2.067   3.597 -0.4015  0.8850  0.9701
 4989TIP3   OH214972   6.070   2.677   0.126 -0.1010  0.1226  0.2982
 4989TIP3    H114973   6.009   2.732   0.077  1.2955  1.5029  0.0336
 4989TIP3    H214974   6.025   2.658   0.208 -1.0342  0.7764 -0.0424
 4990TIP3   OH214975   0.148   0.711   4.322 -0.1758  0.1607 -1.1352
 4990TIP3    H114976   0.204   0.785   4.296  0.0298  0.3909 -0.1121
 4990TIP3    H214977   0.192   0.634   4.287  0.9393  0.3207 -0.1460
 4991TIP3   OH214978   1.826   4.741   4.759 -0.0078  0.1599  0.3549
 4991TIP3    H114979   1.781   4.758   4.842  0.4564  1.8566  0.3057
 4991TIP3    H214980   1.779   4.795   4.695  1.0294  0.6495 -0.0214
 4992TIP3   OH214981   1.876   3.125   3.864  0.5707  0.1756  0.8090
 4992TIP3    H114982   1.806   3.190   3.872  1.1661  0.9960 -0.2703
 4992TIP3    H214983   1.900   3.128   3.771 -0.0648 -2.3267  0.4870
 4993TIP3   OH214984   0.106   4.149   5.147 -0.0694 -0.4104 -0.1691
 4993TIP3    H114985   0.131   4.088   5.216 -1.5592 -0.2709  0.5560
 4993TIP3    H214986   0.054   4.097   5.086 -0.5818 -0.0757 -0.0270
 4994TIP3   OH214987   1.729   2.687   4.864  0.5664 -0.1744  0.2982
 4994TIP3    H114988   1.753   2.597   4.841 -1.3498 -1.0924  1.5975
 4994TIP3    H214989   1.797   2.715   4.925  2.2474  0.0336 -1.5647
 4995TIP3   OH214990   2.251   3.467   2.444 -0.2039 -0.3189 -0.1903
 4995TIP3    H114991   2.305   3.528   2.395  1.6234 -0.1199  1.9271
 4995TIP3    H214992   2.194   3.523   2.497  3.0401 -0.1106  3.5142
 4996TIP3   OH214993   5.811   4.013   2.958  1.0177 -0.1041 -0.5261
 4996TIP3    H114994   5.723   3.989   2.927  1.2028 -1.3625 -0.1422
 4996TIP3    H214995   5.795   4.055   3.043  0.5100  3.3620 -2.1659
 4997TIP3   OH214996   1.186   3.258   1.927  0.3793 -0.5829  0.8334
 4997TIP3    H114997   1.177   3.335   1.871  1.7571 -0.0662  1.2895
 4997TIP3    H214998   1.147   3.285   2.010  0.4452 -0.5443  0.8514
 4998TIP3   OH214999   6.234   0.345   0.925  0.6064 -0.3367 -0.0524
 4998TIP3    H115000   6.283   0.270   0.960  0.1868 -0.6652 -0.1621
 4998TIP3    H215001   6.224   0.326   0.832  0.5857 -0.0922 -0.1004
 4999TIP3   OH215002   3.306   5.351   1.743 -0.5273 -0.0370  0.1148
 4999TIP3    H115003   3.400   5.352   1.763 -0.4065  1.7978 -0.3039
 4999TIP3    H215004   3.279   5.261   1.759  0.8100 -0.0934  2.4702
 5000TIP3   OH215005   2.283   0.209   0.312 -0.3993 -0.5924  0.4443
 5000TIP3    H115006   2.326   0.268   0.374  0.1612 -1.0871  0.5427
 5000TIP3    H215007   2.205   0.256   0.283  0.4645  0.5378 -0.1049
 5001TIP3   OH215008   0.929   0.400   1.982  0.6414  0.3026 -0.0267
 5001TIP3    H115009   0.943   0.405   1.887  0.6352  2.1577  0.0269
 5001TIP3    H215010   0.950   0.488   2.013  2.1039 -0.6602  1.9092
 5002TIP3   OH215011   3.610   1.883   1.523  0.3030  0.2674  0.0815
 5002TIP3    H115012   3.642   1.973   1.510 -0.2891  0.4170 -0.4324
 5002TIP3    H215013   3.558   1.888   1.603  1.3326  0.0856  0.7646
 5003TIP3   OH215014   5.292   1.962   0.472 -0.4406  0.5616  0.5675
 5003TIP3    H115015   5.273   1.874   0.440 -0.3455  0.7077  0.0929
 5003TIP3    H215016   5.259   2.020   0.403  0.2819  0.8663  0.4616
 5004TIP3   OH215017   3.212   5.972   4.650 -0.1059  0.7880 -0.5365
 5004TIP3    H115018   3.200   5.894   4.596 -0.9329  1.2701 -1.0701
 5004TIP3    H215019   3.278   5.946   4.715  1.6643  0.4817 -2.3454
 5005TIP3   OH215020   0.828   1.797   2.312  0.0546  0.3077  0.2549
 5005TIP3    H115021   0.857   1.873   2.262  1.1700  1.5093  2.5771
 5005TIP3    H215022   0.870   1.806   2.398 -1.9372 -1.4962  1.5451
 5006TIP3   OH215023   1.696   2.607   0.635 -0.0298 -1.1354 -0.7127
 5006TIP3    H115024   1.753   2.671   0.592 -2.4564  1.1370 -0.7609
 5006TIP3    H215025   1.716   2.615   0.728  0.2924 -0.9750 -0.7937
 5007TIP3   OH215026   2.718   3.686   1.664 -0.0043 -0.1359 -0.7963
 5007TIP3    H115027   2.753   3.711   1.578  1.8352  0.6204  0.1258
 5007TIP3    H215028   2.639   3.739   1.675 -0.7438 -0.8535 -2.3440
 5008TIP3   OH215029   6.132   5.117   0.669  0.4313  0.7106 -0.2921
 5008TIP3    H115030   6.114   5.113   0.575  0.4528  0.2887 -0.2798
 5008TIP3    H215031   6.157   5.208   0.685 -2.2958  1.5549 -0.2195
 5009TIP3   OH215032   5.219   1.535   1.817 -0.1581 -0.1604 -0.2079
 5009TIP3    H115033   5.139   1.484   1.803 -0.5625  0.4796 -0.2757
 5009TIP3    H215034   5.204   1.616   1.768  1.2937 -0.7805 -1.7805
 5010TIP3   OH215035   6.034   1.840   4.225  0.1289  0.4638 -0.4530
 5010TIP3    H115036   6.130   1.848   4.226  0.3338 -1.0963  2.1963
 5010TIP3    H215037   6.014   1.787   4.302 -2.8586  0.2274 -1.2814
 5011TIP3   OH215038   0.854   1.961   4.961  1.3716 -0.2584  0.7106
 5011TIP3    H115039   0.944   1.929   4.975  0.2436 -2.9829  2.6664
 5011TIP3    H215040   0.827   1.994   5.046  0.7437  1.3239 -0.0744
 5012TIP3   OH215041   3.093   3.817   0.683 -0.0529 -0.0014 -0.1609
 5012TIP3    H115042   3.116   3.733   0.641  0.1439  0.5505 -1.1853
 5012TIP3    H215043   3.082   3.795   0.776  1.6643 -0.8659 -0.1173
 5013TIP3   OH215044   1.883   1.494   4.349  0.3189 -0.0460  0.1761
 5013TIP3    H115045   1.805   1.496   4.404 -0.0653  1.1062 -0.3961
 5013TIP3    H215046   1.919   1.406   4.363 -0.3924 -0.1674  1.3797
 5014TIP3   OH215047   1.420   2.139   4.947 -0.0636 -0.4732  0.2916
 5014TIP3    H115048   1.508   2.173   4.932 -0.3136 -0.3188 -0.9648
 5014TIP3    H215049   1.408   2.072   4.878 -0.8839 -0.5652  0.5087
 5015TIP3   OH215050   2.472   4.406   4.663  0.2344  0.0214  0.4155
 5015TIP3    H115051   2.436   4.335   4.716  0.1216  0.2684  0.6720
 5015TIP3    H215052   2.416   4.482   4.682 -0.0366  0.0172 -0.3511
 5016TIP3   OH215053   5.570   0.808   1.812  0.5916 -0.2495 -0.2691
 5016TIP3    H115054   5.500   0.873   1.820  0.3303 -0.3201 -1.8130
 5016TIP3    H215055   5.531   0.736   1.763  1.3488 -0.9103  0.0685
 5017TIP3   OH215056   4.384   1.919   3.772 -0.2056  0.3874 -0.0688
 5017TIP3    H115057   4.299   1.875   3.773 -0.3640  0.5620  2.8029
 5017TIP3    H215058   4.369   2.001   3.818  1.1369  1.3073 -1.1871
 5018TIP3   OH215059   1.726   0.708   1.431  0.7656  0.4302 -0.7418
 5018TIP3    H115060   1.648   0.652   1.435  1.4808 -0.5430 -0.2032
 5018TIP3    H215061   1.788   0.669   1.492  0.1704  3.6026  2.2193
 5019TIP3   OH215062   6.202   5.841   2.134 -0.3152 -0.0729  0.2589
 5019TIP3    H115063   6.125   5.821   2.081 -2.2509  0.2777  2.7731
 5019TIP3    H215064   6.194   5.934   2.154  0.4663 -0.1571  1.0092
 5020TIP3   OH215065   1.758   3.953   4.576 -0.0242 -0.3075 -0.0287
 5020TIP3    H115066   1.846   3.978   4.606  0.3215 -0.8570 -0.5638
 5020TIP3    H215067   1.728   3.888   4.639 -0.4699  0.6160  0.7322
 5021TIP3   OH215068   4.129   1.486   4.985 -0.3835  0.2034  0.3798
 5021TIP3    H115069   4.121   1.397   4.951 -0.8397  0.1738  0.5586
 5021TIP3    H215070   4.039   1.517   4.994 -0.2451  0.4952  0.8058
 5022TIP3   OH215071   0.083   0.571   1.272 -0.1953 -0.9289  0.2012
 5022TIP3    H115072   0.063   0.607   1.358  0.9653  0.2963 -0.0091
 5022TIP3    H215073   0.177   0.553   1.275 -0.0055 -0.2535 -1.0118
 5023TIP3   OH215074   4.277   0.013   4.003 -0.4191  0.4666 -0.0846
 5023TIP3    H115075   4.235  -0.072   4.007 -1.1506  0.8530  1.1072
 5023TIP3    H215076   4.223   0.069   4.059 -0.1111  1.7862 -1.0417
 5024TIP3   OH215077   4.006   4.971   1.896 -0.6123  0.0075 -0.5457
 5024TIP3    H115078   4.008   5.053   1.846 -0.9807  0.4861  0.2050
 5024TIP3    H215079   3.998   4.999   1.987 -2.6372 -0.8704 -0.4070
 5025TIP3   OH215080   6.270   4.377   4.583 -0.2152  0.6681  0.4755
 5025TIP3    H115081   6.293   4.422   4.664 -1.6225  1.8698  0.2561
 5025TIP3    H215082   6.324   4.419   4.516  0.8126 -0.1999  0.7306
 5026TIP3   OH215083   0.722   0.062   0.777 -0.0255  0.0014  1.0106
 5026TIP3    H115084   0.626   0.061   0.772 -0.0420  1.6474  0.4026
 5026TIP3    H215085   0.750   0.026   0.693 -0.1858  3.4407 -0.6517
 5027TIP3   OH215086   1.043   0.119   0.450 -0.0580 -0.2368  0.2860
 5027TIP3    H115087   1.047   0.024   0.456 -2.3957 -0.3542  0.8438
 5027TIP3    H215088   1.035   0.136   0.356  2.4809 -0.4034 -0.0293
 5028TIP3   OH215089   4.273   5.732   3.642 -0.7246 -0.0691 -0.2889
 5028TIP3    H115090   4.253   5.757   3.732 -1.5137  0.9278 -0.7131
 5028TIP3    H215091   4.364   5.704   3.644 -1.6384 -3.3912  1.4872
 5029TIP3   OH215092   0.191   2.433   2.944 -0.4833  0.2816  0.0757
 5029TIP3    H115093   0.147   2.510   2.908  1.2496  0.4701 -1.8463
 5029TIP3    H215094   0.279   2.464   2.968 -0.4409 -0.6526  1.2248
 5030TIP3   OH215095   1.777   3.372   0.305  0.0923 -0.2546 -0.0184
 5030TIP3    H115096   1.796   3.375   0.399  0.6224 -0.3258 -0.1204
 5030TIP3    H215097   1.755   3.463   0.282 -1.1757 -0.4355  0.3954
 5031TIP3   OH215098   1.972   4.412   4.700 -0.1107  0.5867  0.4350
 5031TIP3    H115099   2.065   4.394   4.683  0.2815  1.5388  1.4352
 5031TIP3    H215100   1.973   4.485   4.762 -1.5454  0.9259  0.0941
 5032TIP3   OH215101   5.002   4.024   3.599  0.0144  0.4998 -0.2789
 5032TIP3    H115102   5.034   3.935   3.613  2.7144  1.1196 -1.8602
 5032TIP3    H215103   4.985   4.057   3.687 -0.0360 -1.1937  0.3975
 5033TIP3   OH215104   3.520   0.362   4.482  0.0371 -0.1077  0.2964
 5033TIP3    H115105   3.560   0.435   4.529  0.9661 -1.2789  1.4058
 5033TIP3    H215106   3.426   0.373   4.495  0.1478  1.1000  0.1037
 5034TIP3   OH215107   2.309   1.875   1.741  0.0158  0.2161  0.5059
 5034TIP3    H115108   2.354   1.853   1.822 -0.2286  2.7578  1.4118
 5034TIP3    H215109   2.221   1.837   1.751  0.1322  0.1259  1.2240
 5035TIP3   OH215110   5.393   5.174   2.252 -0.0065 -0.1007 -0.9244
 5035TIP3    H115111   5.415   5.198   2.162  1.5190 -0.5217 -0.6943
 5035TIP3    H215112   5.474   5.186   2.301 -0.8683  0.3544  0.4627
 5036TIP3   OH215113   4.197   3.710   3.999  0.0335  0.6817  0.0434
 5036TIP3    H115114   4.117   3.759   3.984  0.6871  1.7478 -0.0730
 5036TIP3    H215115   4.190   3.634   3.941 -0.9068  0.7336  0.0757
 5037TIP3   OH215116   4.303   1.509   2.153 -0.1598  1.0100 -0.5433
 5037TIP3    H115117   4.251   1.589   2.161 -0.4434  1.1597 -3.0841
 5037TIP3    H215118   4.272   1.453   2.225 -0.8659  2.6584  0.4997
 5038TIP3   OH215119   4.825   2.219   0.711 -0.3053  0.1630  0.1674
 5038TIP3    H115120   4.862   2.281   0.648 -1.2750 -0.0333 -0.6188
 5038TIP3    H215121   4.797   2.144   0.659 -0.5604 -0.2804  0.9112
 5039TIP3   OH215122   0.049   2.732   4.004 -0.8296  0.5897  0.0930
 5039TIP3    H115123   0.128   2.785   3.994 -0.0456 -0.3555  1.1299
 5039TIP3    H215124  -0.009   2.786   4.058 -1.0324  1.4067 -0.9059
 5040TIP3   OH215125   1.648   3.896   3.511 -0.3794 -0.7162 -0.6397
 5040TIP3    H115126   1.676   3.845   3.435  0.5881 -0.6003 -0.3848
 5040TIP3    H215127   1.730   3.933   3.545 -0.8181 -0.6277  0.3453
 5041TIP3   OH215128   0.534   2.659   1.392 -0.0363 -0.0663 -0.0119
 5041TIP3    H115129   0.485   2.581   1.367  1.9215 -1.2483 -0.3247
 5041TIP3    H215130   0.471   2.731   1.381 -1.0583 -1.2206 -2.5463
 5042TIP3   OH215131   1.500   1.705   0.251 -0.2657 -0.3714  0.7567
 5042TIP3    H115132   1.534   1.744   0.170 -2.7457  0.8716  0.2225
 5042TIP3    H215133   1.511   1.774   0.317 -0.9032 -0.2858  0.7786
 5043TIP3   OH215134   5.835   0.798   1.409  0.4356  0.4042  0.0530
 5043TIP3    H115135   5.840   0.738   1.334 -1.3638  0.1033  0.1224
 5043TIP3    H215136   5.921   0.841   1.411 -0.1542  2.2219 -3.6684
 5044TIP3   OH215137   4.638   0.839   3.945 -0.3257 -0.1999 -0.2742
 5044TIP3    H115138   4.613   0.786   4.021  1.6137 -0.7683  0.0260
 5044TIP3    H215139   4.664   0.775   3.879  1.3138  0.3219 -0.1730
 5045TIP3   OH215140   2.126   4.661   1.998 -0.2531  0.6873  0.0940
 5045TIP3    H115141   2.176   4.619   1.928 -0.9736  0.5433 -0.3441
 5045TIP3    H215142   2.125   4.754   1.975  0.5276  0.8185  0.5566
 5046TIP3   OH215143   4.455   0.515   3.090 -0.5222 -0.0230  0.0130
 5046TIP3    H115144   4.419   0.437   3.049 -0.4324 -0.0627  0.0091
 5046TIP3    H215145   4.411   0.588   3.046  0.9522  0.0069 -1.5410
 5047TIP3   OH215146   5.914   5.373   2.238 -0.1118  0.0993  0.3153
 5047TIP3    H115147   5.893   5.365   2.145  3.6224 -3.0151 -0.5497
 5047TIP3    H215148   5.980   5.442   2.242  0.2480 -0.2497  0.5025
 5048TIP3   OH215149   0.907   5.786   1.782 -0.3326 -0.7754  0.4166
 5048TIP3    H115150   0.947   5.860   1.828 -0.0888 -1.5180  1.4141
 5048TIP3    H215151   0.891   5.721   1.850  1.4304 -2.5238 -0.7277
 5049TIP3   OH215152   3.114   3.558   4.944 -0.1325 -0.4523  0.4349
 5049TIP3    H115153   3.104   3.649   4.969  1.3471  0.2630 -1.3429
 5049TIP3    H215154   3.035   3.515   4.978 -1.7585  1.8220 -0.2273
 5050TIP3   OH215155   0.468   1.129   0.437  0.0991 -0.3507  0.1998
 5050TIP3    H115156   0.544   1.185   0.425 -0.5329  0.8304  1.4522
 5050TIP3    H215157   0.499   1.057   0.492  0.1535  0.5158  1.3228
 5051TIP3   OH215158   4.345   2.365   0.333  0.6592  0.2069  0.0759
 5051TIP3    H115159   4.343   2.286   0.388  0.8024 -0.4169 -0.7938
 5051TIP3    H215160   4.261   2.407   0.348 -0.7875 -1.7664 -1.7750
 5052TIP3   OH215161   0.917   0.189   1.663  0.1751  0.2593  0.5121
 5052TIP3    H115162   0.864   0.112   1.640  0.5619 -0.5562  2.1759
 5052TIP3    H215163   0.967   0.161   1.740  2.4476  1.2489 -0.4985
 5053TIP3   OH215164   5.853   2.216   3.389 -0.0115 -0.2018 -0.0072
 5053TIP3    H115165   5.795   2.140   3.383 -0.2546  0.0296 -0.7853
 5053TIP3    H215166   5.801   2.288   3.354 -0.2094  0.5872  1.8453
 5054TIP3   OH215167   3.750   1.417   5.006  0.1605  0.2542 -0.3313
 5054TIP3    H115168   3.706   1.457   4.931  0.6721  0.4245 -0.5483
 5054TIP3    H215169   3.828   1.472   5.019 -0.8049  1.2957  1.4208
 5055TIP3   OH215170   0.497   1.872   0.104  0.3420 -0.7454 -0.3131
 5055TIP3    H115171   0.495   1.784   0.069  2.2100 -0.7257 -0.6077
 5055TIP3    H215172   0.537   1.863   0.191 -2.1467 -0.5154  0.9250
 5056TIP3   OH215173   0.011   5.420   4.462  0.8513 -0.6065 -0.2912
 5056TIP3    H115174   0.052   5.454   4.541 -0.9411  1.4702 -0.1314
 5056TIP3    H215175   0.077   5.430   4.394  1.1905  1.1825  0.2438
 5057TIP3   OH215176   5.706   3.494   1.038 -0.1036 -0.0823  0.3898
 5057TIP3    H115177   5.739   3.516   1.125  2.4315 -1.2628 -0.1746
 5057TIP3    H215178   5.664   3.574   1.006  1.5443  1.3073  1.5474
 5058TIP3   OH215179   0.372   5.671   4.550 -0.8694  0.0666  0.4556
 5058TIP3    H115180   0.410   5.583   4.554 -2.0592 -0.4143  1.7355
 5058TIP3    H215181   0.331   5.684   4.635 -0.3904  2.0380  0.4435
 5059TIP3   OH215182   1.134   1.476   4.049 -0.5080 -0.2185 -0.5624
 5059TIP3    H115183   1.151   1.384   4.028  2.0956  0.5169 -2.1253
 5059TIP3    H215184   1.063   1.501   3.989 -0.7406 -0.9960 -0.6243
 5060TIP3   OH215185   2.259   3.256   0.064  0.8488  0.1820  0.4541
 5060TIP3    H115186   2.267   3.188  -0.003 -0.6182 -0.1335  0.5589
 5060TIP3    H215187   2.343   3.301   0.062  2.0129 -1.8504  0.6216
 5061TIP3   OH215188   5.570   2.109   4.184  0.0867  0.2568  0.1060
 5061TIP3    H115189   5.489   2.115   4.134 -0.1827 -0.3589  0.4485
 5061TIP3    H215190   5.543   2.071   4.268  0.5444  1.1853  0.6868
 5062TIP3   OH215191   4.674   2.409   2.222  0.7532  0.8728  0.4163
 5062TIP3    H115192   4.649   2.345   2.289  1.8045  0.6338  0.6027
 5062TIP3    H215193   4.701   2.486   2.272 -1.6919  1.9791  0.1759
 5063TIP3   OH215194   3.954   4.407   1.294 -0.2959  0.1423 -0.5249
 5063TIP3    H115195   4.014   4.417   1.220  0.7556 -0.2817  0.2373
 5063TIP3    H215196   3.946   4.312   1.306  0.5145  0.1943  0.6351
 5064TIP3   OH215197   0.869   1.328   1.491  0.0944  0.2632 -0.1721
 5064TIP3    H115198   0.850   1.408   1.442  0.5155  0.1360 -0.5511
 5064TIP3    H215199   0.965   1.327   1.497  0.2273 -1.1451 -1.7660
 5065TIP3   OH215200   1.784   4.781   0.346 -0.1216  0.3370 -0.4597
 5065TIP3    H115201   1.840   4.725   0.401 -1.0178  0.0544  0.1801
 5065TIP3    H215202   1.695   4.755   0.368 -0.5264  1.1795 -1.0523
 5066TIP3   OH215203   1.886   1.739   2.935 -0.5006  0.2851 -0.2006
 5066TIP3    H115204   1.881   1.799   2.860 -0.1377 -1.3806 -1.6338
 5066TIP3    H215205   1.931   1.789   3.003 -0.4949  1.7257 -1.2239
 5067TIP3   OH215206   5.552   0.779   2.884  0.8922 -0.0869  0.5093
 5067TIP3    H115207   5.501   0.741   2.812 -1.1393  0.0095  1.8109
 5067TIP3    H215208   5.588   0.860   2.849 -1.5508  0.8744  0.0699
 5068TIP3   OH215209   1.602   2.014   2.381  0.4525  0.2044  0.3795
 5068TIP3    H115210   1.529   2.043   2.327  0.1678  0.5608  0.9586
 5068TIP3    H215211   1.562   1.966   2.453  0.8344 -0.2929  0.2692
 5069TIP3   OH215212   3.864   3.171   1.286 -0.1447  0.2077  0.0439
 5069TIP3    H115213   3.904   3.257   1.274  0.9956 -0.4763 -1.4464
 5069TIP3    H215214   3.843   3.142   1.197 -2.3422 -0.2514  0.6449
 5070TIP3   OH215215   2.050   4.171   3.075  0.0920 -0.2663 -0.8342
 5070TIP3    H115216   2.097   4.088   3.073 -0.0871 -0.3820 -0.4276
 5070TIP3    H215217   1.998   4.173   2.995 -3.2382 -2.4927  1.0442
 5071TIP3   OH215218   2.304   2.002   2.032 -0.7948 -0.0941 -0.5044
 5071TIP3    H115219   2.325   2.021   2.124  1.6784 -0.5003 -0.9141
 5071TIP3    H215220   2.349   2.071   1.982 -2.2687  0.2347 -1.4318
 5072TIP3   OH215221   2.804   1.555   0.189 -0.0159  0.8106 -0.2107
 5072TIP3    H115222   2.823   1.474   0.143 -0.0272  0.9192 -0.4067
 5072TIP3    H215223   2.853   1.548   0.272  0.5988  0.9356 -0.5570
 5073TIP3   OH215224   3.538   5.806   5.129 -0.2239  0.2024 -0.1978
 5073TIP3    H115225   3.571   5.861   5.057 -0.2390  0.7349  0.1968
 5073TIP3    H215226   3.617   5.778   5.176 -0.2744  0.7071  0.1913
 5074TIP3   OH215227   0.984   3.881   1.032 -0.4473  0.7511 -0.4443
 5074TIP3    H115228   1.048   3.940   1.073  0.5324  1.0785 -2.3065
 5074TIP3    H215229   0.905   3.892   1.084  0.6988  1.1260  1.3188
 5075TIP3   OH215230   4.024   3.957   3.162 -0.4844  0.3093  0.0176
 5075TIP3    H115231   4.094   3.985   3.222  0.7407 -0.9387 -0.7559
 5075TIP3    H215232   3.947   4.008   3.189  0.4693  1.0319  1.5185
 5076TIP3   OH215233   1.478   1.593   1.168  0.9157 -0.2696  0.5016
 5076TIP3    H115234   1.510   1.599   1.258  0.1988  0.2932  0.7244
 5076TIP3    H215235   1.407   1.528   1.172  0.1966  0.5045  0.5521
 5077TIP3   OH215236   3.090   5.324   1.232 -0.0862  0.3288  0.7395
 5077TIP3    H115237   3.127   5.322   1.320  3.4388  2.0213 -0.5050
 5077TIP3    H215238   3.076   5.417   1.213  1.4612  0.2313 -1.2213
 5078TIP3   OH215239   6.252   2.173   4.058  0.2265 -0.7002 -0.6836
 5078TIP3    H115240   6.280   2.177   3.966  0.7956  1.5392 -0.4846
 5078TIP3    H215241   6.160   2.203   4.055  0.6743  0.8124 -0.4301
 5079TIP3   OH215242   5.196   4.906   0.135  0.4129 -0.5424 -0.0357
 5079TIP3    H115243   5.133   4.835   0.123 -0.6688  0.3527  0.2034
 5079TIP3    H215244   5.276   4.874   0.092  0.0244 -1.9801  0.2515
 5080TIP3   OH215245   2.135   4.026   4.381  0.8691 -0.4108  0.5484
 5080TIP3    H115246   2.045   4.025   4.350  0.7200 -0.3095  0.9789
 5080TIP3    H215247   2.133   3.980   4.464  1.5625 -2.1857 -0.3617
 5081TIP3   OH215248   5.232   4.826   3.425 -0.4328  0.1156  0.4391
 5081TIP3    H115249   5.251   4.919   3.436 -1.0097  0.1398  1.2753
 5081TIP3    H215250   5.317   4.786   3.411 -0.0474  0.5875  1.3896
 5082TIP3   OH215251   5.203   4.976   4.974  0.0993  0.5500 -0.2925
 5082TIP3    H115252   5.197   5.033   5.051  0.5097 -2.0530  1.8532
 5082TIP3    H215253   5.295   4.953   4.968 -0.1084 -0.1923 -0.8113
 5083TIP3   OH215254   3.808   5.200   2.498  0.2439  0.4091  0.0817
 5083TIP3    H115255   3.890   5.167   2.460  1.3849  2.6045  0.4640
 5083TIP3    H215256   3.827   5.291   2.520 -0.8675 -0.1713  4.3378
 5084TIP3   OH215257   6.194   4.745   0.217  0.3656 -0.2313  0.0669
 5084TIP3    H115258   6.205   4.764   0.124 -0.9144 -1.7077 -0.4249
 5084TIP3    H215259   6.121   4.801   0.245  0.6936  0.1487  0.1645
 5085TIP3   OH215260   5.075   5.916   2.770  0.0434 -0.1530 -0.0076
 5085TIP3    H115261   4.990   5.941   2.805  0.5166  0.9857  0.3972
 5085TIP3    H215262   5.092   5.981   2.701  0.7405 -0.1371  0.1705
 5086TIP3   OH215263   3.501   3.736   2.347 -0.3480  0.3804 -0.3231
 5086TIP3    H115264   3.496   3.826   2.316  0.3963  0.6770  0.3573
 5086TIP3    H215265   3.445   3.734   2.424  0.1045  0.4267  0.0119
 5087TIP3   OH215266   1.311   1.295   2.636 -0.7284  0.4827  0.5398
 5087TIP3    H115267   1.296   1.208   2.675 -0.4256  0.1315 -0.1148
 5087TIP3    H215268   1.402   1.292   2.606  0.4095  2.1658  3.4074
 5088TIP3   OH215269   0.857   5.443   1.105  0.2495 -0.2398 -0.0495
 5088TIP3    H115270   0.870   5.381   1.033 -1.0364 -0.4337 -0.1431
 5088TIP3    H215271   0.770   5.480   1.089 -0.8160 -1.5031  2.2871
 5089TIP3   OH215272   0.666   4.671   0.208 -0.3901 -0.3002  0.3011
 5089TIP3    H115273   0.691   4.746   0.153  0.2360 -0.0101  0.9675
 5089TIP3    H215274   0.598   4.627   0.158  0.3117 -0.1636 -0.8128
 5090TIP3   OH215275   3.964   1.693   1.428  0.3694  0.2026  0.3320
 5090TIP3    H115276   3.912   1.745   1.368  1.6511  1.7391  0.5028
 5090TIP3    H215277   4.054   1.700   1.396  0.6539 -1.5127  0.6496
 5091TIP3   OH215278   4.446   3.975   0.855 -0.5066  0.1875 -0.0943
 5091TIP3    H115279   4.356   3.973   0.822 -0.7618  2.8470  0.2530
 5091TIP3    H215280   4.487   4.048   0.808  0.7420  0.5438  1.4669
 5092TIP3   OH215281   5.630   2.375   2.692 -0.6959 -0.1939  0.3470
 5092TIP3    H115282   5.707   2.318   2.693 -1.4915 -1.3429 -0.8060
 5092TIP3    H215283   5.639   2.426   2.611 -1.6293 -1.0763 -0.3402
 5093TIP3   OH215284   3.747   2.465   3.982  0.1988 -0.2099  0.1845
 5093TIP3    H115285   3.694   2.539   4.012 -0.6382 -0.8337  0.2769
 5093TIP3    H215286   3.830   2.504   3.957 -0.1445  0.7317  0.4684
 5094TIP3   OH215287   5.717   5.317   3.519  0.1242 -0.3621  0.4909
 5094TIP3    H115288   5.734   5.410   3.532 -1.2197 -0.2730  1.8710
 5094TIP3    H215289   5.695   5.309   3.427 -4.4251  1.5603  1.1734
 5095TIP3   OH215290   5.748   2.181   4.653 -1.0425  0.3964 -0.0520
 5095TIP3    H115291   5.714   2.262   4.614 -1.9024 -0.4440 -1.0857
 5095TIP3    H215292   5.800   2.211   4.727 -0.7663  1.9531 -0.8256
 5096TIP3   OH215293   3.076   3.822   5.077  0.4181 -0.3137 -0.7769
 5096TIP3    H115294   3.066   3.779   5.162  0.4273  1.2886  0.0781
 5096TIP3    H215295   2.986   3.834   5.046  0.3815 -0.2636 -0.6531
 5097TIP3   OH215296   1.832   4.696   0.794  0.0623  0.1451  0.5868
 5097TIP3    H115297   1.852   4.790   0.790 -0.4476  0.2499 -3.3196
 5097TIP3    H215298   1.737   4.692   0.797  0.0938 -0.2549  1.0616
 5098TIP3   OH215299   3.144   5.631   4.750 -0.3309  0.1390 -0.0461
 5098TIP3    H115300   3.188   5.693   4.808  2.3232 -0.7330 -0.9907
 5098TIP3    H215301   3.175   5.545   4.779 -1.1354 -0.5083 -1.0217
 5099TIP3   OH215302   3.505   4.089   3.360 -0.4343  0.0346  0.5925
 5099TIP3    H115303   3.444   4.041   3.305  1.2429  1.1266 -2.5229
 5099TIP3    H215304   3.589   4.043   3.348  0.1069  0.6518  1.8327
 5100TIP3   OH215305   6.095   4.345   0.801 -0.1765 -0.4061  0.4323
 5100TIP3    H115306   6.077   4.411   0.867  1.1458 -0.2392  0.6422
 5100TIP3    H215307   6.012   4.336   0.754 -0.2227  1.8546 -0.0267
 5101TIP3   OH215308   3.560   2.992   2.644 -0.3877  0.8631  0.1834
 5101TIP3    H115309   3.500   3.050   2.690 -1.5906 -0.5932  0.5272
 5101TIP3    H215310   3.614   2.953   2.713 -1.4640 -0.4991  0.2937
 5102TIP3   OH215311   5.953   1.475   0.046  0.2918  0.4079  0.5794
 5102TIP3    H115312   5.869   1.433   0.063 -0.1596  1.4361  0.9370
 5102TIP3    H215313   5.995   1.418  -0.019 -1.0422  0.3289 -0.2538
 5103TIP3   OH215314   3.592   5.530   3.685  0.2670  0.0266 -0.3553
 5103TIP3    H115315   3.532   5.595   3.722  0.2666  0.4785 -1.1334
 5103TIP3    H215316   3.642   5.578   3.619  4.5189  0.8595  3.0205
 5104TIP3   OH215317   5.754   2.967   2.489 -0.5321  0.0773 -0.0695
 5104TIP3    H115318   5.704   2.920   2.556 -2.1544  2.8409  0.8379
 5104TIP3    H215319   5.744   2.915   2.410 -0.9623 -1.8139  1.1811
 5105TIP3   OH215320   0.519   5.328   3.743 -0.4864  0.2237  0.3172
 5105TIP3    H115321   0.615   5.327   3.747 -0.4682  0.1371 -0.0340
 5105TIP3    H215322   0.491   5.274   3.816 -0.2601  0.0969  0.3114
 5106TIP3   OH215323   0.610   3.984   5.169  0.4585  0.1862  0.4068
 5106TIP3    H115324   0.646   4.046   5.106  0.6564 -0.0924  0.2423
 5106TIP3    H215325   0.578   3.911   5.115  0.7048 -0.0923  0.6305
 5107TIP3   OH215326   1.781   1.265   1.925  0.3137  0.7621 -0.1716
 5107TIP3    H115327   1.814   1.320   1.854 -0.4491 -0.2643 -1.3634
 5107TIP3    H215328   1.713   1.211   1.884  1.0562 -1.0968  0.9289
 5108TIP3   OH215329   1.290   0.038   0.204  0.6388 -0.2735  0.2761
 5108TIP3    H115330   1.336   0.118   0.180 -1.4515  0.5177 -1.4197
 5108TIP3    H215331   1.281  -0.009   0.121 -1.6441 -0.3271  0.5034
 5109TIP3   OH215332   1.603   0.637   0.254  0.0304  0.3491 -0.1301
 5109TIP3    H115333   1.674   0.629   0.191 -2.3654 -0.2619 -2.9880
 5109TIP3    H215334   1.565   0.724   0.238 -0.6930  0.1445  0.3955
 5110TIP3   OH215335   3.508   2.730   3.989  0.0819 -0.0545 -0.3003
 5110TIP3    H115336   3.529   2.703   3.899 -0.2567 -0.0354 -0.3875
 5110TIP3    H215337   3.568   2.802   4.007  0.2393 -0.1442 -0.4653
 5111TIP3   OH215338   5.987   3.661   1.589 -0.3566 -0.0277 -0.0940
 5111TIP3    H115339   6.022   3.750   1.592 -1.0777  0.3482 -1.4966
 5111TIP3    H215340   6.018   3.626   1.505 -0.0723 -1.1128  0.4517
 5112TIP3   OH215341   3.753   2.432   0.220 -0.7732 -0.3530 -0.9665
 5112TIP3    H115342   3.702   2.444   0.300  0.9092  1.3936 -0.0723
 5112TIP3    H215343   3.778   2.339   0.222  0.5576 -0.0485  1.4620
 5113TIP3   OH215344   1.167   2.263   0.212  0.3282 -0.2012  0.8167
 5113TIP3    H115345   1.084   2.251   0.258  1.0880  0.9084  2.5875
 5113TIP3    H215346   1.223   2.308   0.275  1.9118  0.1154 -0.7379
 5114TIP3   OH215347  -0.005   4.584   2.325 -0.1906 -0.1759  0.0290
 5114TIP3    H115348   0.018   4.642   2.398  0.7993  1.0778 -1.2272
 5114TIP3    H215349   0.077   4.541   2.301 -0.0312  0.8985 -1.5524
 5115TIP3   OH215350   0.006   2.468   3.283 -0.2445 -0.8075  0.0906
 5115TIP3    H115351   0.009   2.472   3.379 -2.1197  0.3238  0.1601
 5115TIP3    H215352   0.077   2.408   3.259 -0.2972 -1.8286  2.2251
 5116TIP3   OH215353   2.625   3.039   3.141  0.4114 -0.4729 -0.4163
 5116TIP3    H115354   2.574   2.992   3.207 -0.6929  0.5909 -0.4666
 5116TIP3    H215355   2.572   3.116   3.121  0.3293 -1.1054 -3.0837
 5117TIP3   OH215356   6.168   4.495   0.347  0.8654  0.3024 -0.2345
 5117TIP3    H115357   6.157   4.423   0.285 -2.2744  1.4705 -1.1952
 5117TIP3    H215358   6.154   4.574   0.296 -0.2861  1.3870  1.6545
 5118TIP3   OH215359   2.684   0.886   4.618  0.0913  0.2770  0.7353
 5118TIP3    H115360   2.769   0.913   4.653  0.1414  1.1049 -0.0179
 5118TIP3    H215361   2.703   0.807   4.567  0.6244  1.1805 -0.4850
 5119TIP3   OH215362   3.494   5.739   2.144  0.2741 -0.1285  0.6735
 5119TIP3    H115363   3.534   5.803   2.085 -1.6801  1.1343  0.6334
 5119TIP3    H215364   3.434   5.689   2.089 -0.3287 -0.0617  1.2503
 5120TIP3   OH215365   0.505   0.030   3.354  0.4428  0.0721 -0.0327
 5120TIP3    H115366   0.476  -0.061   3.348  0.2056  0.2195 -1.2869
 5120TIP3    H215367   0.425   0.079   3.377  0.2770  0.1350 -0.7402
 5121TIP3   OH215368   2.753   0.993   4.282  0.0783  0.0193  0.1931
 5121TIP3    H115369   2.711   0.967   4.200  1.5412  0.5508 -0.7493
 5121TIP3    H215370   2.839   0.951   4.280  0.1440  0.0447  1.4698
 5122TIP3   OH215371   0.593   2.021   2.397 -1.1009 -0.0913 -0.0197
 5122TIP3    H115372   0.687   2.040   2.406 -0.8190 -2.1852  3.3441
 5122TIP3    H215373   0.549   2.093   2.442 -0.9657 -0.0388  0.0294
 5123TIP3   OH215374   3.410   1.086   0.421  0.1528  0.2116 -0.0364
 5123TIP3    H115375   3.419   1.004   0.469 -1.0253 -0.4940 -0.9795
 5123TIP3    H215376   3.497   1.127   0.427  0.8977 -1.3178  0.0376
 5124TIP3   OH215377   3.071   2.095   3.988 -0.2228 -0.3503  0.0679
 5124TIP3    H115378   3.073   2.125   3.897 -2.2955 -1.3614 -0.3820
 5124TIP3    H215379   3.061   2.175   4.039 -1.4813  0.0733 -0.7900
 5125TIP3   OH215380   2.218   1.085   0.852 -0.4462  0.0385  0.2461
 5125TIP3    H115381   2.152   1.143   0.891 -2.2657  0.6234 -3.2439
 5125TIP3    H215382   2.198   0.999   0.887 -1.0045  0.7050  1.6647
 5126TIP3   OH215383   3.217   0.425   4.559 -0.3192 -0.2189  0.1082
 5126TIP3    H115384   3.194   0.440   4.467  0.2115  0.9736  0.1534
 5126TIP3    H215385   3.234   0.513   4.594  0.7673 -0.7708  1.0094
 5127TIP3   OH215386   5.953   4.109   1.867 -1.1960  0.3685 -0.9315
 5127TIP3    H115387   5.876   4.166   1.872 -1.1417  0.3574  0.3958
 5127TIP3    H215388   6.023   4.160   1.908 -1.5542 -1.2597  1.9190
 5128TIP3   OH215389   5.016   4.260   3.048  0.0256 -0.2448 -0.2552
 5128TIP3    H115390   5.040   4.301   3.131  1.8709 -0.7710 -0.4947
 5128TIP3    H215391   4.941   4.310   3.017  0.7347  1.4132  0.6072
 5129TIP3   OH215392   4.811   0.524   1.811 -0.5537 -0.6136  0.0319
 5129TIP3    H115393   4.843   0.436   1.828  0.2149 -0.1747  0.9462
 5129TIP3    H215394   4.885   0.581   1.833 -1.6086  0.3667  1.1826
 5130TIP3   OH215395   5.407   4.335   0.262  1.0132 -0.8132  0.2077
 5130TIP3    H115396   5.499   4.352   0.282  0.6004 -0.1903  1.7092
 5130TIP3    H215397   5.390   4.247   0.296  1.7594 -2.2537 -2.7565
 5131TIP3   OH215398   0.803   2.937   2.360  0.0368  0.3047  0.2558
 5131TIP3    H115399   0.711   2.961   2.374  0.2512  1.6004 -0.4281
 5131TIP3    H215400   0.799   2.844   2.338 -1.2726  0.5915 -0.9414
 5132TIP3   OH215401   0.800   3.361   3.158 -0.0862  0.1767  0.5312
 5132TIP3    H115402   0.893   3.384   3.155  0.5950 -2.2993  0.9893
 5132TIP3    H215403   0.799   3.268   3.179 -2.6226 -0.3258 -1.4047
 5133TIP3   OH215404   2.017   5.493   2.399 -0.6438 -0.1984 -0.0400
 5133TIP3    H115405   2.015   5.401   2.372 -0.5635 -0.7812  1.8295
 5133TIP3    H215406   1.963   5.538   2.333  2.2472 -0.9053 -3.1867
 5134TIP3   OH215407   5.519   3.886   1.535 -0.6292 -0.1641  0.3325
 5134TIP3    H115408   5.583   3.823   1.567 -0.6062  0.4212  1.5140
 5134TIP3    H215409   5.567   3.939   1.471  0.5304  1.1525  2.1870
 5135TIP3   OH215410   0.775   2.372   2.933 -0.2508  0.6876  0.9210
 5135TIP3    H115411   0.686   2.354   2.903 -0.2229 -0.1377  1.3067
 5135TIP3    H215412   0.831   2.315   2.879 -0.0293  0.6075  1.2317
 5136TIP3   OH215413   0.568   5.740   2.214  0.4331  0.1596 -0.7226
 5136TIP3    H115414   0.571   5.703   2.126 -1.5864  0.2152 -0.8710
 5136TIP3    H215415   0.484   5.710   2.250  2.9067 -3.5100  2.8973
 5137TIP3   OH215416   1.568   4.380   0.692  0.3200  0.1163 -0.5121
 5137TIP3    H115417   1.604   4.379   0.603 -0.5194  0.3206 -0.8578
 5137TIP3    H215418   1.484   4.335   0.685 -0.2023  0.9730 -0.0256
 5138TIP3   OH215419   1.943   5.913   3.370 -0.2748  1.1282 -0.1290
 5138TIP3    H115420   1.967   5.964   3.447  0.4645  0.9386 -0.2333
 5138TIP3    H215421   1.968   5.969   3.295 -1.0334  1.3335 -0.2402
 5139TIP3   OH215422   3.059   0.663   3.784  0.0602 -0.6132  0.3344
 5139TIP3    H115423   3.005   0.731   3.824  1.0272  0.4907 -0.1803
 5139TIP3    H215424   3.072   0.692   3.694  0.1059 -1.7272 -0.0378
 5140TIP3   OH215425   3.522   1.448   0.095  0.5198 -0.1140  0.6687
 5140TIP3    H115426   3.549   1.406   0.013 -2.4083  1.6425 -1.3893
 5140TIP3    H215427   3.459   1.387   0.133 -0.9482  0.6531 -0.4193
 5141TIP3   OH215428   4.968   3.184   2.036 -0.1022 -0.6023 -0.1483
 5141TIP3    H115429   4.951   3.164   1.944 -2.1893  0.0924  0.0487
 5141TIP3    H215430   4.930   3.111   2.084  0.2226 -0.5439  0.2050
 5142TIP3   OH215431   4.273   5.524   2.419  0.5606  0.0288 -0.4386
 5142TIP3    H115432   4.256   5.484   2.333 -2.7347 -0.8450  0.4921
 5142TIP3    H215433   4.290   5.450   2.477 -2.2318  0.0897  0.5988
 5143TIP3   OH215434   1.025   1.854   3.202  0.0605 -0.2395 -0.2688
 5143TIP3    H115435   0.941   1.863   3.246 -0.0946 -3.5357  0.3724
 5143TIP3    H215436   1.089   1.846   3.273  0.3099 -1.8291 -0.6294
 5144TIP3   OH215437   5.589   0.242   2.500 -0.7032  0.6647  0.0781
 5144TIP3    H115438   5.610   0.149   2.508 -1.5529  0.4125 -0.5646
 5144TIP3    H215439   5.520   0.257   2.564  0.3523  1.1712  1.1415
 5145TIP3   OH215440   5.009   3.456   1.207 -0.3395 -0.0311 -0.0714
 5145TIP3    H115441   4.923   3.493   1.225  0.0877 -0.0594  2.3508
 5145TIP3    H215442   5.022   3.391   1.277  0.3768 -2.3112 -2.1685
 5146TIP3   OH215443   1.581   5.655   4.561 -0.1129 -0.3075  0.2882
 5146TIP3    H115444   1.522   5.589   4.526 -0.5295  1.8425 -3.5592
 5146TIP3    H215445   1.657   5.654   4.502  0.6145  1.5409  1.0952
 5147TIP3   OH215446   0.707   2.012   1.703 -0.2475 -0.4288 -0.1711
 5147TIP3    H115447   0.641   2.024   1.635  0.7448 -0.5295 -1.1845
 5147TIP3    H215448   0.748   2.098   1.712  1.0778 -0.9053 -1.2811
 5148TIP3   OH215449   3.353   0.583   0.913 -0.4126  0.5543  0.0824
 5148TIP3    H115450   3.376   0.493   0.890  0.3016  0.8205 -0.2438
 5148TIP3    H215451   3.417   0.608   0.980  1.5873  1.9609 -2.1952
 5149TIP3   OH215452   5.897   4.491   5.000  0.1898 -0.4639  0.1779
 5149TIP3    H115453   5.920   4.398   4.998 -0.6007 -0.6913  1.1455
 5149TIP3    H215454   5.979   4.534   5.026  0.1707 -1.0453  1.2680
 5150TIP3   OH215455   4.089   1.261   1.371 -0.0392  0.0633 -0.0582
 5150TIP3    H115456   4.162   1.201   1.358  0.0765  0.4279 -1.1829
 5150TIP3    H215457   4.128   1.337   1.415 -0.4031 -1.1087  2.4923
 5151TIP3   OH215458   4.781   3.771   2.421  0.2302  0.0188  0.0210
 5151TIP3    H115459   4.817   3.699   2.473  1.7963  0.2927 -0.6107
 5151TIP3    H215460   4.718   3.730   2.363 -0.1368 -0.5688  0.8095
 5152TIP3   OH215461   1.214   1.841   0.899 -0.2624 -0.1010 -0.5029
 5152TIP3    H115462   1.267   1.879   0.969 -0.7295 -0.0578 -0.1646
 5152TIP3    H215463   1.125   1.874   0.916 -0.2967  0.3243 -1.4036
 5153TIP3   OH215464   0.885   5.946   0.862 -0.0429  0.5333  0.5479
 5153TIP3    H115465   0.920   5.941   0.773  1.6127 -0.7195  1.2222
 5153TIP3    H215466   0.903   6.035   0.891  1.0441  0.4168  0.2601
 5154TIP3   OH215467   1.488   3.747   0.873  0.2943 -0.1770  0.5766
 5154TIP3    H115468   1.435   3.667   0.867 -0.0762 -0.0678  2.0343
 5154TIP3    H215469   1.509   3.768   0.782 -4.2486  1.2143 -0.4036
 5155TIP3   OH215470   3.085   0.442   1.408  0.4171  0.4285  0.1522
 5155TIP3    H115471   3.114   0.501   1.478  0.6864  1.2376 -0.6138
 5155TIP3    H215472   2.991   0.461   1.399  0.5696  1.0015 -0.3162
 5156TIP3   OH215473   3.782   3.088   3.307 -0.1815 -0.0127 -0.1514
 5156TIP3    H115474   3.742   3.175   3.309  0.8381  0.4653  0.7922
 5156TIP3    H215475   3.815   3.079   3.217  0.8659  1.1531  0.0811
 5157TIP3   OH215476   3.493   4.374   4.680 -1.1869 -0.0496 -0.2503
 5157TIP3    H115477   3.465   4.295   4.727 -0.4881  0.4267  1.0055
 5157TIP3    H215478   3.513   4.344   4.591 -2.4477 -0.9872 -0.2486
 5158TIP3   OH215479   5.423   4.597   5.009  0.1119  0.1574 -0.8246
 5158TIP3    H115480   5.409   4.652   5.086  1.8580 -0.1372 -0.2513
 5158TIP3    H215481   5.335   4.569   4.984 -0.6335  1.5409  0.0956
 5159TIP3   OH215482   2.730   3.016   1.603  0.8009 -0.4252 -0.0316
 5159TIP3    H115483   2.684   3.096   1.628 -1.4685 -2.0716  1.3932
 5159TIP3    H215484   2.668   2.970   1.546  1.2887 -1.9935  0.6595
 5160TIP3   OH215485   3.609   2.006   2.916  0.1799  0.2462  0.3195
 5160TIP3    H115486   3.564   1.998   2.832  0.3049  1.5082  0.1081
 5160TIP3    H215487   3.539   2.011   2.981  0.0858 -0.9409  0.3277
 5161TIP3   OH215488   2.478   0.381   0.759 -0.2334 -0.2428  0.4106
 5161TIP3    H115489   2.545   0.379   0.690  1.0828  1.6940  1.5155
 5161TIP3    H215490   2.411   0.440   0.725 -0.1576 -0.2050  0.3257
 5162TIP3   OH215491   3.683   5.344   3.042 -0.1800  0.4632  0.3534
 5162TIP3    H115492   3.733   5.420   3.070 -0.9491  1.3550 -0.5913
 5162TIP3    H215493   3.728   5.312   2.964  1.1636 -1.1736  1.7215
 5163TIP3   OH215494   3.156   0.271   3.371  0.0202 -0.1610 -0.4915
 5163TIP3    H115495   3.088   0.325   3.411  0.5251 -0.0805  0.2678
 5163TIP3    H215496   3.165   0.306   3.282 -1.3979 -0.6076 -0.8286
 5164TIP3   OH215497   0.880   0.166   3.761 -0.1918  0.5932 -0.6612
 5164TIP3    H115498   0.941   0.117   3.707 -2.0329 -1.5941 -0.8841
 5164TIP3    H215499   0.932   0.195   3.836  1.1267 -1.2311 -0.8068
 5165TIP3   OH215500   2.378   2.199   3.444 -0.5224  0.1644  0.2296
 5165TIP3    H115501   2.420   2.221   3.527  1.0583  0.8955 -0.7288
 5165TIP3    H215502   2.420   2.118   3.416  0.8083  1.2410 -1.0508
 5166TIP3   OH215503   0.461   1.732   1.510 -0.3343  0.4033  0.2328
 5166TIP3    H115504   0.434   1.660   1.452  0.9639 -0.4238  0.6040
 5166TIP3    H215505   0.484   1.803   1.451  3.2728 -1.1921 -0.5684
 5167TIP3   OH215506   1.938   4.707   2.843 -0.5781 -0.1037  0.2384
 5167TIP3    H115507   1.989   4.696   2.924 -0.7472  4.8475  1.3738
 5167TIP3    H215508   2.004   4.726   2.776 -0.6109  0.3706  0.3337
 5168TIP3   OH215509   1.412   0.889   0.193  0.3964  0.1349  0.2080
 5168TIP3    H115510   1.354   0.861   0.122 -0.8663  2.2744  0.3132
 5168TIP3    H215511   1.374   0.851   0.271 -0.1002  0.4132  0.1069
 5169TIP3   OH215512   2.086   0.054   2.578  0.2195  0.3075  0.4369
 5169TIP3    H115513   2.071   0.044   2.672  0.1534 -0.0152  0.3924
 5169TIP3    H215514   1.999   0.046   2.539  0.0132  2.0294  0.4715
 5170TIP3   OH215515   0.014   5.955   1.072  0.3743  0.0824  0.3112
 5170TIP3    H115516   0.074   6.023   1.041  0.6790 -0.9621 -1.5357
 5170TIP3    H215517  -0.000   5.976   1.164  1.3389  1.9853  0.0820
 5171TIP3   OH215518   2.656   5.417   5.093  0.0815  0.3319 -0.1397
 5171TIP3    H115519   2.706   5.346   5.051 -1.4627 -1.2117  0.5246
 5171TIP3    H215520   2.721   5.485   5.111  1.5555 -0.7676 -1.1168
 5172TIP3   OH215521   1.193   1.747   3.699  0.4204  0.4478  0.3531
 5172TIP3    H115522   1.242   1.823   3.668 -1.6488  1.9110  0.4835
 5172TIP3    H215523   1.255   1.674   3.692  1.9653  1.8306 -1.3005
 5173TIP3   OH215524   2.961   4.689   3.571 -0.0495  0.0286  0.4362
 5173TIP3    H115525   3.051   4.658   3.573 -0.4126 -1.0428  0.7494
 5173TIP3    H215526   2.964   4.767   3.515  1.0956  0.1283  0.6100
 5174TIP3   OH215527   5.318   4.906   2.230 -0.2453  0.2122 -0.1378
 5174TIP3    H115528   5.230   4.923   2.198 -0.2753  1.0296  0.3571
 5174TIP3    H215529   5.357   4.993   2.243  0.5675 -0.1333 -0.1764
 5175TIP3   OH215530   1.827   1.700   2.596 -0.0402 -1.0287  0.0218
 5175TIP3    H115531   1.895   1.650   2.550  0.9342  0.0318  0.2754
 5175TIP3    H215532   1.789   1.637   2.657  0.1963 -1.8454 -0.6551
 5176TIP3   OH215533   2.559   5.633   4.922 -0.0411 -0.1689  0.0082
 5176TIP3    H115534   2.640   5.679   4.900 -0.7800 -0.1085 -3.0131
 5176TIP3    H215535   2.580   5.540   4.909 -0.6472 -0.0964 -1.7959
 5177TIP3   OH215536   4.267   0.205   2.272 -0.0835 -0.1534 -0.1109
 5177TIP3    H115537   4.330   0.184   2.203  0.1365 -0.4576  0.1813
 5177TIP3    H215538   4.320   0.237   2.344 -0.1869 -1.2004  0.4440
 5178TIP3   OH215539   0.865   5.435   0.654 -0.4878 -0.0524  0.1658
 5178TIP3    H115540   0.920   5.359   0.674 -0.4084  0.2491  1.1405
 5178TIP3    H215541   0.869   5.489   0.733 -2.4160 -0.1600  0.3772
 5179TIP3   OH215542   1.962   5.984   0.643 -0.4331 -0.0682 -0.0937
 5179TIP3    H115543   1.887   5.924   0.646 -0.6608  0.1606 -0.9417
 5179TIP3    H215544   1.936   6.051   0.580  0.2982  0.2785 -0.0314
 5180TIP3   OH215545   0.164   5.370   2.199  0.3724 -0.1723 -0.1005
 5180TIP3    H115546   0.251   5.331   2.199  0.1762 -0.6208 -0.4742
 5180TIP3    H215547   0.105   5.295   2.187 -0.4528 -0.7358  5.1238
 5181TIP3   OH215548   5.002   3.918   5.109 -0.6602  0.0268  0.1952
 5181TIP3    H115549   5.073   3.874   5.064 -1.3507 -0.7869 -0.1326
 5181TIP3    H215550   5.005   4.008   5.077 -0.0414 -0.1083 -0.1289
 5182TIP3   OH215551   0.026   2.096   2.423  0.0935  0.5233  0.0428
 5182TIP3    H115552   0.032   2.001   2.419 -0.1980  0.5391 -2.2209
 5182TIP3    H215553   0.110   2.127   2.390 -0.2558  1.0286 -0.3957
 5183TIP3   OH215554   3.199   0.282   5.179  0.1313 -0.3386 -0.5449
 5183TIP3    H115555   3.129   0.344   5.159 -0.1891 -0.8028 -0.9005
 5183TIP3    H215556   3.236   0.259   5.093  1.4462  0.7188 -0.2972
 5184TIP3   OH215557   3.338   1.870   1.040  0.2023  0.5344 -0.1517
 5184TIP3    H115558   3.328   1.775   1.042  0.9163  0.4563 -0.0710
 5184TIP3    H215559   3.414   1.887   1.094 -0.4685  1.2386  0.6027
 5185TIP3   OH215560   4.156   0.091   3.564 -0.0858 -0.1048 -0.3364
 5185TIP3    H115561   4.161   0.187   3.567  0.9204 -0.1165 -1.1564
 5185TIP3    H215562   4.192   0.062   3.647  1.4902  0.2031 -0.8748
 5186TIP3   OH215563   5.007   2.904   3.098  0.4193 -0.1016 -0.3002
 5186TIP3    H115564   4.967   2.971   3.154  1.8904 -0.5182  1.3429
 5186TIP3    H215565   5.019   2.828   3.156  1.2692 -0.8393 -1.3981
 5187TIP3   OH215566   1.974   3.721   0.059 -0.2957  0.1345 -0.1215
 5187TIP3    H115567   1.973   3.778  -0.018  0.5192 -1.0527 -1.0509
 5187TIP3    H215568   2.067   3.707   0.077 -0.4777  0.6064  1.2508
 5188TIP3   OH215569   1.199   3.363   0.127 -0.1268 -0.6572 -0.0795
 5188TIP3    H115570   1.294   3.364   0.112  0.0338 -0.4702  0.8969
 5188TIP3    H215571   1.169   3.447   0.093  0.1964 -0.3345  0.4203
 5189TIP3   OH215572   2.312   2.475   3.406  0.3627 -0.1491 -0.4386
 5189TIP3    H115573   2.337   2.388   3.436 -1.2147  0.4533  3.2691
 5189TIP3    H215574   2.252   2.459   3.333  0.0565 -2.2142  0.1958
 5190TIP3   OH215575   5.920   3.771   3.970  0.2129  0.7714  0.8419
 5190TIP3    H115576   5.904   3.731   4.056 -0.3678  0.8519  0.7754
 5190TIP3    H215577   6.012   3.798   3.973 -0.2781  2.5390  2.1892
 5191TIP3   OH215578   5.849   5.849   4.625 -0.1650 -0.1655 -0.2703
 5191TIP3    H115579   5.755   5.863   4.630 -0.0088  0.7984  0.2276
 5191TIP3    H215580   5.874   5.878   4.538 -0.1686  0.7011  0.0042
 5192TIP3   OH215581   1.908   2.520   4.397 -0.2205 -0.1108 -0.5917
 5192TIP3    H115582   1.868   2.606   4.379  0.7967  0.8662  1.4986
 5192TIP3    H215583   2.001   2.532   4.377 -0.1936 -0.9827 -1.0374
 5193TIP3   OH215584   2.642   2.774   5.019  0.2175  0.0053 -0.7038
 5193TIP3    H115585   2.589   2.700   4.988  0.1903  0.7700 -2.6352
 5193TIP3    H215586   2.728   2.736   5.037 -0.0337 -0.6565 -0.8645
 5194TIP3   OH215587   1.465   3.177   3.295 -0.0926  0.4492  0.2014
 5194TIP3    H115588   1.495   3.126   3.220  1.5625 -0.0334  1.1384
 5194TIP3    H215589   1.373   3.197   3.276 -0.4155 -1.7531 -0.7905
 5195TIP3   OH215590   4.466   0.940   0.451 -0.3109 -0.1773 -0.5488
 5195TIP3    H115591   4.517   1.021   0.449  0.4850 -0.5713  1.6187
 5195TIP3    H215592   4.532   0.871   0.462 -1.2071 -0.6981  2.5276
 5196TIP3   OH215593   3.362   2.104   1.645 -0.8130 -0.1104  0.0303
 5196TIP3    H115594   3.315   2.173   1.598 -0.3939 -0.5495 -1.0661
 5196TIP3    H215595   3.453   2.132   1.643 -0.7930 -0.1207  0.6267
 5197TIP3   OH215596   5.828   4.509   2.877  0.0313 -0.0703  0.2737
 5197TIP3    H115597   5.741   4.477   2.900 -0.2459  0.1445 -0.4590
 5197TIP3    H215598   5.884   4.431   2.882  0.1442  0.0828  2.3476
 5198TIP3   OH215599   4.100   3.986   2.225 -0.1944 -0.0368 -0.3122
 5198TIP3    H115600   4.031   3.932   2.187  0.8764 -1.2094 -0.6498
 5198TIP3    H215601   4.147   3.927   2.284  0.4097  0.7947  0.0598
 5199TIP3   OH215602   0.520   3.442   3.151  0.2166  0.1655 -0.1758
 5199TIP3    H115603   0.462   3.481   3.087  1.9080  1.4316 -1.0276
 5199TIP3    H215604   0.607   3.444   3.110  0.9964 -1.0165  1.2896
 5200TIP3   OH215605   2.553   5.073   4.633 -0.1223  0.3954  0.1479
 5200TIP3    H115606   2.620   5.044   4.694 -0.3006 -0.6063 -0.1202
 5200TIP3    H215607   2.558   5.011   4.560 -1.9661 -0.2917  0.5441
 5201TIP3   OH215608   5.430   2.036   4.408 -0.2502  0.1784  0.2836
 5201TIP3    H115609   5.393   1.975   4.472  0.0501 -0.0672  0.2262
 5201TIP3    H215610   5.437   2.119   4.455  0.5190 -0.1448  0.7609
 5202TIP3   OH215611   3.255   1.363   0.199  0.5244 -0.3485  0.0523
 5202TIP3    H115612   3.247   1.459   0.196  1.9160 -0.2219 -0.2453
 5202TIP3    H215613   3.233   1.340   0.289  0.8344  0.3323  0.3111
 5203TIP3   OH215614   2.017   5.642   3.191 -0.8660 -0.3780 -0.3814
 5203TIP3    H115615   2.032   5.713   3.129 -0.6226  0.8740  1.0610
 5203TIP3    H215616   2.002   5.686   3.275  0.4799 -2.0373  0.8002
 5204TIP3   OH215617   5.874   2.763   1.117  0.2975 -0.1506 -0.4315
 5204TIP3    H115618   5.962   2.789   1.142  0.1027  0.1607 -0.0457
 5204TIP3    H215619   5.878   2.668   1.107  0.5933 -0.1752 -0.0851
 5205TIP3   OH215620   4.720   3.512   4.541 -0.0181 -0.3014  0.5509
 5205TIP3    H115621   4.737   3.601   4.511  0.8776 -0.6316  0.0610
 5205TIP3    H215622   4.653   3.522   4.609 -1.2326  0.5610 -0.7213
 5206TIP3   OH215623   0.121   3.999   1.096  0.0691  0.3339  0.2797
 5206TIP3    H115624   0.116   4.047   1.014 -1.0602 -0.7497 -0.3205
 5206TIP3    H215625   0.101   4.063   1.164  0.2648  1.0665 -0.3481
 5207TIP3   OH215626   5.302   5.553   3.093 -0.0650 -0.6432  0.6293
 5207TIP3    H115627   5.317   5.647   3.093 -0.1171 -0.6146  2.0248
 5207TIP3    H215628   5.207   5.543   3.102 -0.4301 -0.8565 -2.4166
 5208TIP3   OH215629   2.766   1.172   4.495 -0.3489 -0.2514 -0.0402
 5208TIP3    H115630   2.768   1.118   4.415 -0.3159  1.8223 -1.5244
 5208TIP3    H215631   2.678   1.160   4.530 -0.1671 -1.6761  0.0121
 5209TIP3   OH215632   2.815   0.495   1.374 -0.1668 -0.0359  0.6173
 5209TIP3    H115633   2.827   0.437   1.298  0.1749  1.6912 -0.7246
 5209TIP3    H215634   2.721   0.509   1.379 -0.0947  1.1072 -0.5525
 5210TIP3   OH215635   4.447   4.449   4.634 -0.3534 -0.2743  0.2729
 5210TIP3    H115636   4.467   4.534   4.671 -1.7039  0.1917 -0.0009
 5210TIP3    H215637   4.352   4.438   4.647 -0.8243 -0.3248 -2.4366
 5211TIP3   OH215638   5.996   3.739   2.548 -0.4007  0.1516  0.4048
 5211TIP3    H115639   6.071   3.722   2.605 -0.8621 -2.5642  0.3259
 5211TIP3    H215640   6.028   3.721   2.460 -0.3617  1.9858  0.0008
 5212TIP3   OH215641   3.440   0.094   0.836  0.0049 -0.0371  0.1835
 5212TIP3    H115642   3.499   0.136   0.773 -1.3413 -0.1290 -1.2088
 5212TIP3    H215643   3.403   0.165   0.887  1.2934  0.0204  1.0820
 5213TIP3   OH215644   2.286   0.505   0.611 -0.3358 -0.5126 -0.5741
 5213TIP3    H115645   2.211   0.476   0.664  0.6925  0.5876  1.6328
 5213TIP3    H215646   2.282   0.601   0.615  1.4940 -0.4181  0.1574
 5214TIP3   OH215647   4.414   1.010   2.997 -0.3564 -0.0740  0.0615
 5214TIP3    H115648   4.490   0.962   2.963 -0.1662 -0.4993  1.0380
 5214TIP3    H215649   4.447   1.053   3.076 -1.6305 -2.1404  1.8524
 5215TIP3   OH215650   5.145   0.209   2.788 -0.1159  0.0353 -0.7307
 5215TIP3    H115651   5.106   0.268   2.852  1.4842  1.1746 -0.7450
 5215TIP3    H215652   5.070   0.176   2.737 -1.0478  2.6428 -1.2194
 5216TIP3   OH215653   2.079   4.305   1.565 -0.1738 -0.3334 -0.5996
 5216TIP3    H115654   2.046   4.390   1.596 -1.6314 -0.9627 -0.3576
 5216TIP3    H215655   2.127   4.326   1.485  1.4417  0.9920  0.6393
 5217TIP3   OH215656   6.050   1.228   3.374  0.0792 -0.0093 -0.1563
 5217TIP3    H115657   5.962   1.203   3.403  0.3495  0.0148  0.7116
 5217TIP3    H215658   6.104   1.152   3.394  0.0719 -0.4765 -1.7308
 5218TIP3   OH215659   2.558   0.732   3.769 -0.1666  0.2789  0.1597
 5218TIP3    H115660   2.476   0.781   3.772 -0.5892  0.0617 -3.5814
 5218TIP3    H215661   2.626   0.799   3.760 -0.6285  0.4599 -3.4976
 5219TIP3   OH215662   5.088   2.085   3.301  0.2075 -0.5056  0.1957
 5219TIP3    H115663   5.042   2.165   3.324  0.1825 -1.0017  1.9794
 5219TIP3    H215664   5.108   2.095   3.207  0.7554  1.8261  0.4969
 5220TIP3   OH215665   3.420   5.867   1.009 -0.3846 -0.0947 -0.1774
 5220TIP3    H115666   3.341   5.835   0.966 -0.7573  0.5112  0.0426
 5220TIP3    H215667   3.461   5.924   0.944 -0.3311 -0.1045 -0.1520
 5221TIP3   OH215668   2.679   2.799   4.644 -0.0180 -0.7330 -0.5977
 5221TIP3    H115669   2.734   2.800   4.723 -2.3292  2.2074  1.2260
 5221TIP3    H215670   2.729   2.849   4.579  1.4562 -2.2739 -0.7099
 5222TIP3   OH215671   2.163   0.157   1.533  0.2999  0.0986  0.3452
 5222TIP3    H115672   2.248   0.198   1.549  0.7816 -0.4009 -0.8411
 5222TIP3    H215673   2.104   0.201   1.594  1.5421 -0.0754  1.7328
 5223TIP3   OH215674   2.458   2.092   4.867 -0.1392  0.1336 -0.4031
 5223TIP3    H115675   2.485   2.139   4.788  0.2116  0.5176 -0.0619
 5223TIP3    H215676   2.471   2.155   4.938  1.2889 -0.7806  0.1983
 5224TIP3   OH215677   5.158   4.573   4.962  0.2125 -0.1317  0.0751
 5224TIP3    H115678   5.109   4.639   5.011 -0.2646 -1.1530  1.0226
 5224TIP3    H215679   5.090   4.519   4.922  0.6000  0.1079 -0.9457
 5225TIP3   OH215680   3.545   0.062   1.136  0.1358 -0.1476 -0.0554
 5225TIP3    H115681   3.599   0.000   1.087 -0.7582 -1.8314  0.9805
 5225TIP3    H215682   3.475   0.086   1.076  1.0005  0.6180 -0.7798
 5226TIP3   OH215683   1.295   4.738   3.276  0.5439 -0.1052 -0.2695
 5226TIP3    H115684   1.338   4.821   3.255 -1.4643  1.2640  0.7332
 5226TIP3    H215685   1.340   4.707   3.355  1.8865 -0.4899 -1.1387
 5227TIP3   OH215686   3.702   2.855   2.836 -0.3146  0.0962 -0.3773
 5227TIP3    H115687   3.736   2.778   2.881 -0.3711 -0.3085 -1.0072
 5227TIP3    H215688   3.641   2.895   2.898 -0.5161 -0.5410 -0.1577
 5228TIP3   OH215689   6.074   3.212   1.940  0.6383 -0.1917  0.3935
 5228TIP3    H115690   6.075   3.147   1.869  1.0717  0.6327 -0.3770
 5228TIP3    H215691   6.016   3.174   2.006 -0.2587 -0.7327 -0.6569
 5229TIP3   OH215692   3.555   4.574   4.422  0.2874  0.1914  0.2958
 5229TIP3    H115693   3.461   4.576   4.401 -0.0423 -1.5011  1.4009
 5229TIP3    H215694   3.562   4.632   4.498 -0.1816 -0.9208  1.2163
 5230TIP3   OH215695   1.455   3.157   5.095  0.2875 -0.9114  0.0750
 5230TIP3    H115696   1.513   3.135   5.168  1.2619  1.1309 -0.0141
 5230TIP3    H215697   1.471   3.088   5.031 -0.3329 -2.5490  1.6034
 5231TIP3   OH215698   0.570   5.120   4.136  0.0721  0.0187  0.2876
 5231TIP3    H115699   0.646   5.159   4.178 -0.1908 -0.8425  1.6138
 5231TIP3    H215700   0.557   5.172   4.056  2.0773  0.1094 -0.0125
 5232TIP3   OH215701   4.193   1.053   1.916 -0.0165  0.0355 -0.2880
 5232TIP3    H115702   4.227   1.088   1.998 -3.3285  0.4589  1.0249
 5232TIP3    H215703   4.191   1.129   1.857  1.2255 -0.0173 -0.4427
 5233TIP3   OH215704   2.482   2.953   1.422 -0.1520  0.2035  0.2284
 5233TIP3    H115705   2.422   2.991   1.486  0.5170  0.5509  0.6574
 5233TIP3    H215706   2.473   2.859   1.433  0.9051  0.2505  1.7446
 5234TIP3   OH215707   5.999   5.795   3.785  0.3053  0.4957 -0.4305
 5234TIP3    H115708   5.933   5.757   3.844 -0.8276 -0.1254 -2.0291
 5234TIP3    H215709   6.000   5.889   3.808  0.4884  0.1588  1.0858
 5235TIP3   OH215710   3.539   5.683   0.037  0.4062 -0.0777  0.0801
 5235TIP3    H115711   3.593   5.675  -0.042  1.5317 -1.1659  0.9244
 5235TIP3    H215712   3.588   5.638   0.105 -0.4000  1.0934  1.5054
 5236TIP3   OH215713   0.300   0.275   2.343  0.0264 -0.3711  0.2495
 5236TIP3    H115714   0.377   0.218   2.334  0.3935 -0.4458  2.9011
 5236TIP3    H215715   0.279   0.270   2.437 -2.5119  0.5790 -0.2101
 5237TIP3   OH215716   6.175   2.193   0.510 -0.0177 -0.4722 -0.7142
 5237TIP3    H115717   6.092   2.159   0.542 -0.6855  2.0634  0.5584
 5237TIP3    H215718   6.235   2.182   0.584  0.3577 -0.8831 -1.0766
 5238TIP3   OH215719   1.276   2.955   0.598 -0.4297 -0.7209 -0.0682
 5238TIP3    H115720   1.317   2.874   0.567  0.0317 -0.2068 -0.8412
 5238TIP3    H215721   1.183   2.942   0.582 -0.1880 -0.3799 -1.9490
 5239TIP3   OH215722   4.101   1.759   1.900 -0.3313 -0.4828 -0.0320
 5239TIP3    H115723   4.047   1.681   1.885 -0.5749 -0.3547  0.1809
 5239TIP3    H215724   4.039   1.827   1.925  0.1546 -0.9729  2.7573
 5240TIP3   OH215725   0.959   4.432   2.782  0.8279 -0.0651 -0.4040
 5240TIP3    H115726   1.003   4.455   2.863 -1.4727  0.7567  0.6950
 5240TIP3    H215727   0.889   4.497   2.773 -2.7438 -3.4827  0.1419
 5241TIP3   OH215728   5.269   2.757   1.756 -0.5864  0.8544  0.6234
 5241TIP3    H115729   5.361   2.753   1.730 -1.0313 -0.1634 -0.9392
 5241TIP3    H215730   5.254   2.674   1.802 -1.1375  0.1690 -0.7288
 5242TIP3   OH215731   2.294   3.939   1.487 -0.1108  0.0110  0.4873
 5242TIP3    H115732   2.216   3.951   1.541  0.7566  1.1350  1.5335
 5242TIP3    H215733   2.353   4.010   1.513  0.7595 -0.0325 -1.2026
 5243TIP3   OH215734   3.166   2.732   0.503 -0.0569 -0.2285  0.3801
 5243TIP3    H115735   3.072   2.744   0.503  0.0134  0.6315  2.2581
 5243TIP3    H215736   3.181   2.656   0.559  0.4332  0.6823  1.5335
 5244TIP3   OH215737   1.539   2.999   4.493 -1.0423 -0.6785  0.3581
 5244TIP3    H115738   1.546   2.917   4.444  0.5984 -0.9997  1.1007
 5244TIP3    H215739   1.600   2.990   4.566 -0.8363  1.1892  0.4723
 5245TIP3   OH215740   3.375   5.896   4.875  0.4919  0.1483 -0.2658
 5245TIP3    H115741   3.470   5.892   4.863  0.5162 -0.8892  0.1937
 5245TIP3    H215742   3.358   5.840   4.950 -0.5723 -0.3308 -0.8379
 5246TIP3   OH215743   1.357   5.360   4.248 -0.2604 -0.7231  0.1382
 5246TIP3    H115744   1.282   5.337   4.303 -1.1233 -0.4250 -0.8893
 5246TIP3    H215745   1.388   5.443   4.283 -0.0045 -1.1475  0.9532
 5247TIP3   OH215746   1.866   3.232   4.544 -0.2817  0.8027 -0.0102
 5247TIP3    H115747   1.801   3.208   4.477 -0.7604  0.2949  0.6180
 5247TIP3    H215748   1.949   3.203   4.508 -0.6015  0.0728 -0.1773
 5248TIP3   OH215749   2.021   0.037   3.114 -0.3129  0.2602  0.0372
 5248TIP3    H115750   2.096   0.070   3.162 -0.7892 -0.0067  1.0087
 5248TIP3    H215751   1.949   0.038   3.178 -0.5198 -1.9665 -0.0502
 5249TIP3   OH215752   4.302   3.649   2.147  0.3790 -0.0783 -0.2448
 5249TIP3    H115753   4.348   3.616   2.070  1.8803 -2.8838  1.6512
 5249TIP3    H215754   4.229   3.588   2.160  0.2272  0.2589  0.5665
 5250TIP3   OH215755   1.006   5.116   2.412 -0.1337 -0.0645  0.7312
 5250TIP3    H115756   0.918   5.101   2.446 -1.8668  1.4878 -2.6497
 5250TIP3    H215757   1.050   5.165   2.482 -1.9853 -0.5963  2.3733
 5251TIP3   OH215758   2.792   3.168   0.748 -0.2838  0.0730  0.8133
 5251TIP3    H115759   2.793   3.203   0.837 -0.6934  0.4352  0.6822
 5251TIP3    H215760   2.717   3.109   0.746 -0.1927 -0.0413  0.7475
 5252TIP3   OH215761   3.774   0.769   3.670 -0.1246 -0.0777 -0.1156
 5252TIP3    H115762   3.737   0.819   3.743 -0.6574  0.8060 -0.9731
 5252TIP3    H215763   3.704   0.710   3.643 -0.5985  0.8714 -1.0652
 5253TIP3   OH215764   3.453   5.595   1.842  0.2829 -0.0699 -0.3142
 5253TIP3    H115765   3.473   5.620   1.752  2.4378  0.6227  0.3201
 5253TIP3    H215766   3.535   5.562   1.877 -0.5079 -0.2903  1.4373
 5254TIP3   OH215767   6.213   2.808   1.574 -0.0748 -0.6089  0.1710
 5254TIP3    H115768   6.121   2.812   1.546  0.4567  0.1344 -1.5429
 5254TIP3    H215769   6.243   2.899   1.574  0.6217 -0.8251  0.9094
 5255TIP3   OH215770   6.103   0.913   0.106 -0.4081  0.2561  0.2766
 5255TIP3    H115771   6.031   0.971   0.082 -0.1470  0.7738  0.7485
 5255TIP3    H215772   6.167   0.923   0.035 -1.3369 -1.1872 -0.8359
 5256TIP3   OH215773   2.724   4.317   4.642  0.1981 -0.0635 -0.2800
 5256TIP3    H115774   2.637   4.356   4.638 -0.4932 -1.4546  0.4062
 5256TIP3    H215775   2.771   4.354   4.568 -1.1916  0.2293 -1.0387
 5257TIP3   OH215776   4.152   4.895   0.450  0.1647 -0.3618  0.7905
 5257TIP3    H115777   4.142   4.845   0.369 -2.4331  1.7759 -0.3421
 5257TIP3    H215778   4.232   4.946   0.437  1.3988 -2.1637  0.8873
 5258TIP3   OH215779   2.054   3.944   4.112 -0.3096 -0.5272  0.3938
 5258TIP3    H115780   2.061   3.849   4.118 -0.4712 -0.5231  0.6596
 5258TIP3    H215781   2.145   3.974   4.104 -0.1879 -0.6531  1.1516
 5259TIP3   OH215782   1.897   2.480   4.084  0.2287  0.5821 -0.1400
 5259TIP3    H115783   1.906   2.555   4.025 -0.0037 -0.7439 -1.9344
 5259TIP3    H215784   1.951   2.502   4.159  1.8747  1.6402 -1.5631
 5260TIP3   OH215785   0.212   4.822   2.217  0.0820 -0.7359  0.1766
 5260TIP3    H115786   0.189   4.815   2.124 -0.3663 -0.9626  0.3024
 5260TIP3    H215787   0.149   4.885   2.252 -0.5063 -1.5439  0.5786
 5261TIP3   OH215788   0.085   5.416   1.147  0.1553  0.3083 -0.0364
 5261TIP3    H115789   0.062   5.478   1.217  1.6725  0.5945  0.2450
 5261TIP3    H215790   0.001   5.378   1.121 -0.8088  2.2603 -0.0084
 5262TIP3   OH215791   1.702   3.420   1.473 -0.0541 -0.0372 -0.2600
 5262TIP3    H115792   1.676   3.351   1.533 -0.6382 -0.0605 -0.5355
 5262TIP3    H215793   1.766   3.378   1.415 -2.1305 -1.0554 -1.9402
 5263TIP3   OH215794   0.937   3.861   3.629 -0.1413 -0.4479  0.1079
 5263TIP3    H115795   0.940   3.781   3.682 -0.1653 -0.2932  0.3421
 5263TIP3    H215796   1.008   3.915   3.663 -1.8869  0.8645  1.9196
 5264TIP3   OH215797   2.885   0.160   1.488 -0.6770 -0.4882  0.3852
 5264TIP3    H115798   2.900   0.235   1.431 -2.9919 -0.2671 -0.0520
 5264TIP3    H215799   2.947   0.172   1.560  1.0927  0.1626 -1.1706
 5265TIP3   OH215800   3.457   5.789   2.407 -0.1723  0.3739 -0.0775
 5265TIP3    H115801   3.478   5.762   2.318  0.0251  0.3226 -0.0172
 5265TIP3    H215802   3.401   5.865   2.397  0.1474  0.5907 -0.2453
 5266TIP3   OH215803   6.287   2.163   1.821  0.0573  0.1848 -0.6375
 5266TIP3    H115804   6.354   2.185   1.757 -0.5617 -0.1701 -1.4146
 5266TIP3    H215805   6.219   2.229   1.809  0.1552  0.4138  0.0014
 5267TIP3   OH215806   2.445   1.436   5.007 -0.3594 -0.2090  0.5858
 5267TIP3    H115807   2.409   1.360   4.961 -1.5385  1.5030 -1.5566
 5267TIP3    H215808   2.437   1.507   4.944  1.0097  1.6433  2.3750
 5268TIP3   OH215809   0.754   2.629   3.960 -0.6440  0.4385  0.1180
 5268TIP3    H115810   0.772   2.544   3.920  0.7217  1.1683 -0.8616
 5268TIP3    H215811   0.684   2.666   3.906 -0.1834  0.5734 -0.3949
 5269TIP3   OH215812   2.584  -0.014   3.611  0.4384  0.0914 -0.1694
 5269TIP3    H115813   2.514  -0.010   3.677  0.0374 -0.8693 -0.5226
 5269TIP3    H215814   2.558   0.051   3.545 -0.5206 -0.7613 -0.6629
 5270TIP3   OH215815   6.306   1.175   5.017  0.2590  0.1787  0.1989
 5270TIP3    H115816   6.283   1.085   4.994 -0.3974  0.5765 -0.7759
 5270TIP3    H215817   6.221   1.219   5.028  0.5651  0.5785  1.1395
 5271TIP3   OH215818   2.772   5.659   1.525 -0.5202 -0.0269 -0.4474
 5271TIP3    H115819   2.720   5.683   1.602 -1.3114  0.7243 -1.1898
 5271TIP3    H215820   2.842   5.724   1.521 -1.3207  0.8234 -1.1539
 5272TIP3   OH215821   5.008   3.856   1.659  0.3494  0.3215  0.3619
 5272TIP3    H115822   5.101   3.853   1.636  0.1185 -0.5290 -0.5538
 5272TIP3    H215823   4.970   3.918   1.598  0.2359  0.2944  0.4049
 5273TIP3   OH215824   5.773   4.953   4.878  0.1182 -0.2104  0.3465
 5273TIP3    H115825   5.730   4.876   4.916  0.2752  0.1196  1.2195
 5273TIP3    H215826   5.731   5.028   4.921 -1.1429  0.3013 -1.6293
 5274TIP3   OH215827   5.223   2.170   4.629  0.1774  0.0991  0.1654
 5274TIP3    H115828   5.223   2.240   4.563 -0.5845 -1.8904 -2.0790
 5274TIP3    H215829   5.144   2.185   4.680 -0.4123  0.4076 -0.8235
 5275TIP3   OH215830   1.989   5.315   4.705  0.3266  0.1059 -0.4595
 5275TIP3    H115831   1.956   5.274   4.625  0.1771 -1.2833  0.2693
 5275TIP3    H215832   2.067   5.362   4.677  1.1887 -1.6498 -1.2164
 5276TIP3   OH215833   3.037   2.414   3.722 -0.1973 -0.2323 -0.3360
 5276TIP3    H115834   3.063   2.403   3.630  1.2364 -1.2852  0.1452
 5276TIP3    H215835   3.066   2.332   3.764 -0.2720  0.4854  1.1615
 5277TIP3   OH215836   2.665   3.072   4.167 -0.3577 -0.3496 -0.0459
 5277TIP3    H115837   2.628   3.143   4.114  0.5595 -0.7404 -1.2740
 5277TIP3    H215838   2.754   3.061   4.133  0.6456  0.0338  2.2660
 5278TIP3   OH215839   2.548   2.984   4.870  0.0686 -0.5470 -0.1543
 5278TIP3    H115840   2.617   2.946   4.924  1.1604 -0.2244 -1.2801
 5278TIP3    H215841   2.571   2.959   4.780 -1.4719 -0.7216 -0.5361
 5279TIP3   OH215842   3.604   1.944   4.840 -0.3372 -0.6759 -0.0366
 5279TIP3    H115843   3.509   1.956   4.832  0.0013  2.6406 -0.2848
 5279TIP3    H215844   3.623   1.959   4.932  0.3076  3.3462 -0.6434
 5280TIP3   OH215845   2.273   0.902   4.878 -0.6313  0.1663  0.2911
 5280TIP3    H115846   2.354   0.857   4.902 -0.0949  0.9805  0.0598
 5280TIP3    H215847   2.274   0.902   4.782 -1.5234 -0.8806  0.2560
 5281TIP3   OH215848   3.609   3.118   0.005 -0.2777 -0.4326  0.5620
 5281TIP3    H115849   3.543   3.137   0.071  0.1077  0.4118  0.7106
 5281TIP3    H215850   3.652   3.039   0.037 -1.6309 -1.3814  0.1341
 5282TIP3   OH215851   5.483   5.726   3.404 -0.0999  0.0760  0.2359
 5282TIP3    H115852   5.545   5.747   3.474 -0.5512  0.7936  0.4322
 5282TIP3    H215853   5.479   5.631   3.403  3.5106 -0.2287 -1.9753
 5283TIP3   OH215854   4.971   4.182   1.615  0.3798  0.2744  0.6101
 5283TIP3    H115855   4.932   4.269   1.619 -2.2718 -0.7777 -0.0193
 5283TIP3    H215856   4.898   4.125   1.589  2.0674 -2.1031  0.8226
 5284TIP3   OH215857   4.508   4.060   1.538 -0.2706  0.1483 -0.0232
 5284TIP3    H115858   4.441   4.128   1.533 -1.4469 -0.9953 -0.8588
 5284TIP3    H215859   4.486   4.010   1.616 -0.0285  0.1235  0.0304
 5285TIP3   OH215860   5.963   2.303   4.394  0.2923  0.0915  0.1068
 5285TIP3    H115861   5.868   2.306   4.398  0.2078 -1.9907  0.9004
 5285TIP3    H215862   5.991   2.299   4.485  0.9857 -1.6291 -0.1463
 5286TIP3   OH215863   5.281   3.073   1.885 -0.1153 -0.3677  0.0287
 5286TIP3    H115864   5.324   3.125   1.953  0.0344 -1.3165  0.6874
 5286TIP3    H215865   5.326   3.097   1.804 -1.3984  2.0449 -0.0795
 5287TIP3   OH215866   2.305   0.335   4.552 -0.2777  0.3474 -0.1499
 5287TIP3    H115867   2.389   0.313   4.593  1.1020  3.8614 -0.7735
 5287TIP3    H215868   2.294   0.428   4.568 -3.4686  0.2728 -1.2450
 5288TIP3   OH215869   6.135   5.592   3.676 -0.4012 -0.1549  0.2896
 5288TIP3    H115870   6.105   5.681   3.695  0.9953  0.1063  1.3731
 5288TIP3    H215871   6.226   5.602   3.649 -0.6392 -1.1361 -0.9838
 5289TIP3   OH215872   4.563   1.077   2.179  0.0578 -0.0109  0.3482
 5289TIP3    H115873   4.609   1.013   2.233  2.1300  0.9581 -0.1999
 5289TIP3    H215874   4.613   1.157   2.188 -1.0296  0.8679 -1.0034
 5290TIP3   OH215875   5.703   1.344   3.231  0.3577 -0.1585  0.5155
 5290TIP3    H115876   5.653   1.263   3.222  0.3680  0.0018 -1.4003
 5290TIP3    H215877   5.663   1.404   3.168  0.5140  1.2618  1.7171
 5291TIP3   OH215878   5.893   1.067   0.051 -0.4762 -0.7677 -0.2734
 5291TIP3    H115879   5.910   1.114  -0.031 -0.0058  1.9400  1.2336
 5291TIP3    H215880   5.800   1.045   0.047 -0.5810 -0.2082 -1.3039
 5292TIP3   OH215881   6.152   3.359   3.117  0.1752 -0.1869 -0.3787
 5292TIP3    H115882   6.172   3.331   3.207 -0.2977  0.3121 -0.1161
 5292TIP3    H215883   6.057   3.353   3.111  0.2823 -1.5759 -1.3025
 5293TIP3   OH215884   4.558   0.917   1.939 -0.1946  0.2905  0.1355
 5293TIP3    H115885   4.572   0.963   2.022 -0.3107 -0.1831  0.4212
 5293TIP3    H215886   4.527   0.984   1.879 -0.8353  0.4884  0.6862
 5294TIP3   OH215887   4.097   3.102   0.944 -0.1010 -0.6342  0.1206
 5294TIP3    H115888   4.172   3.080   0.890 -0.1281 -1.3565  0.3655
 5294TIP3    H215889   4.118   3.189   0.979 -0.4361  0.2000 -1.6383
 5295TIP3   OH215890   0.135   1.829   2.413  0.2929  0.7282 -0.6490
 5295TIP3    H115891   0.050   1.798   2.381  0.4602 -0.3364 -0.1165
 5295TIP3    H215892   0.188   1.840   2.334  0.5208 -1.3155 -0.8318
 5296TIP3   OH215893   2.182   0.046   5.061 -0.4003  0.3085  0.8698
 5296TIP3    H115894   2.156  -0.018   5.128 -0.2199 -0.4997  0.1815
 5296TIP3    H215895   2.100   0.076   5.022 -0.4235 -0.7373  0.0774
 5297TIP3   OH215896   0.904   0.466   3.000 -0.2484 -0.9432 -0.2525
 5297TIP3    H115897   0.833   0.519   2.962 -2.0440 -3.2120 -0.2518
 5297TIP3    H215898   0.860   0.390   3.037  2.1786 -2.2223  0.1920
 5298TIP3   OH215899   5.716   2.246   1.603 -0.0054 -0.5733 -0.0242
 5298TIP3    H115900   5.706   2.157   1.636  0.7606 -0.2262  1.2197
 5298TIP3    H215901   5.639   2.293   1.635  0.9260 -0.1391  1.7035
 5299TIP3   OH215902   2.141   3.441   3.872 -0.2639  0.1916  0.0854
 5299TIP3    H115903   2.167   3.532   3.885  0.8029  0.0181 -0.6942
 5299TIP3    H215904   2.074   3.443   3.804 -1.0798  0.4835  0.8759
 5300TIP3   OH215905   1.991   5.126   5.171  0.1194  0.1716 -0.2009
 5300TIP3    H115906   1.923   5.058   5.162 -0.9722  1.2076 -0.0293
 5300TIP3    H215907   2.038   5.122   5.088  0.3773 -1.0938 -0.0252
 5301TIP3   OH215908   1.688   4.681   0.041 -0.2098 -0.5553  0.2398
 5301TIP3    H115909   1.714   4.600   0.085  1.9658 -0.1875 -0.2582
 5301TIP3    H215910   1.696   4.748   0.108  2.4349 -0.1023 -0.4432
 5302TIP3   OH215911   3.676   5.049   4.823 -0.3538  0.4355 -0.3522
 5302TIP3    H115912   3.732   5.127   4.832  0.0538  0.3062 -1.4992
 5302TIP3    H215913   3.639   5.057   4.735 -2.4629  0.6955  0.5148
 5303TIP3   OH215914   3.049   2.312   4.615  0.1908  0.1558  0.3964
 5303TIP3    H115915   3.001   2.232   4.638 -1.1560  1.0018  0.6510
 5303TIP3    H215916   3.015   2.378   4.675  0.6132  1.1416 -0.4251
 5304TIP3   OH215917   4.791   5.359   3.190  0.1198 -0.9595  0.6936
 5304TIP3    H115918   4.775   5.380   3.282  0.4640  2.3944  0.1131
 5304TIP3    H215919   4.883   5.382   3.176 -0.4171  0.4953 -0.8685
 5305TIP3   OH215920   0.724   4.893   4.955 -0.3681  0.4976  0.1611
 5305TIP3    H115921   0.673   4.843   4.891 -0.9592  2.1313 -0.6973
 5305TIP3    H215922   0.813   4.891   4.922 -0.5069  0.5757 -0.2203
 5306TIP3   OH215923   6.177   0.553   4.637 -0.4710  0.4063 -0.0531
 5306TIP3    H115924   6.172   0.493   4.563 -1.4649  1.3732 -0.7939
 5306TIP3    H215925   6.159   0.640   4.600 -0.6334  0.9589  1.2483
 5307TIP3   OH215926   2.139   5.606   0.012  0.4755 -0.4328 -0.4752
 5307TIP3    H115927   2.178   5.694   0.016 -0.3249 -0.0873 -0.1677
 5307TIP3    H215928   2.145   5.573   0.102 -1.4057  0.2763 -0.0561
 5308TIP3   OH215929   3.420   0.145   3.466  0.1712  0.2129  0.0791
 5308TIP3    H115930   3.415   0.151   3.561 -1.7121 -3.0773  0.3214
 5308TIP3    H215931   3.339   0.185   3.435 -0.0557 -0.3172 -0.0154
 5309TIP3   OH215932   1.884   1.525   3.933 -0.2206 -0.2051  0.3386
 5309TIP3    H115933   1.830   1.515   4.011 -0.5632 -0.5500  0.0604
 5309TIP3    H215934   1.823   1.549   3.863  0.1604  0.6679  0.2920
 5310TIP3   OH215935   0.280   4.381   2.553  0.1531 -0.1063  0.3227
 5310TIP3    H115936   0.356   4.439   2.556  0.4531 -0.4444 -0.3853
 5310TIP3    H215937   0.207   4.435   2.583  0.0823  1.2352 -2.0057
 5311TIP3   OH215938   5.408   5.473   3.338 -0.2395  0.4700  0.2935
 5311TIP3    H115939   5.343   5.433   3.396  0.3438  0.1736  0.7481
 5311TIP3    H215940   5.358   5.499   3.261 -0.8736  0.1036  0.5747
 5312TIP3   OH215941   4.547   2.268   2.941 -0.5086  0.4263  0.2541
 5312TIP3    H115942   4.531   2.250   2.848 -0.2171 -0.3867  0.3610
 5312TIP3    H215943   4.535   2.184   2.985  1.7712  0.2442  0.6440
 5313TIP3   OH215944   3.598   1.791   1.076 -0.1108 -0.3507 -0.3165
 5313TIP3    H115945   3.570   1.734   1.004  1.6968 -1.1046 -0.4585
 5313TIP3    H215946   3.555   1.755   1.154 -2.1733  0.5366 -0.9735
 5314TIP3   OH215947   5.630   0.225   4.748  0.3164  0.1120 -0.0717
 5314TIP3    H115948   5.626   0.131   4.733  2.0333 -0.2406  1.3277
 5314TIP3    H215949   5.674   0.260   4.670 -0.3018 -0.2403 -0.5807
 5315TIP3   OH215950   0.773   1.011   0.477 -0.1416  0.5139 -0.1413
 5315TIP3    H115951   0.728   0.984   0.558 -1.1923  2.3509 -0.0407
 5315TIP3    H215952   0.784   1.106   0.487  1.2564  0.5234 -1.4367
 5316TIP3   OH215953   0.646   2.516   4.226  0.2804 -0.5649 -0.3720
 5316TIP3    H115954   0.570   2.567   4.197  1.9450  3.0121  0.9405
 5316TIP3    H215955   0.693   2.495   4.145  1.1055  2.8701 -0.9593
 5317TIP3   OH215956   1.202   2.840   0.151  0.0278  0.4505  0.1551
 5317TIP3    H115957   1.276   2.820   0.093  0.1495 -1.4251  0.8642
 5317TIP3    H215958   1.194   2.935   0.149  1.2976  0.5622 -1.3603
 5318TIP3   OH215959   4.632   0.737   3.455 -0.5338 -0.1358  0.1744
 5318TIP3    H115960   4.650   0.810   3.396  3.1983  0.0333  1.2368
 5318TIP3    H215961   4.626   0.660   3.398  0.0786  0.4037 -0.6402
 5319TIP3   OH215962   5.853   1.121   0.401 -0.5420  0.3759 -0.1040
 5319TIP3    H115963   5.787   1.120   0.332 -1.7753 -1.4173  1.0139
 5319TIP3    H215964   5.907   1.044   0.383  0.6637  1.2637 -0.4272
 5320TIP3   OH215965   2.409   1.047   1.573 -0.2793 -0.5978  0.6835
 5320TIP3    H115966   2.328   0.997   1.580  0.4421 -2.1881 -1.4864
 5320TIP3    H215967   2.471   0.987   1.532  1.2053  1.4602 -0.2375
 5321TIP3   OH215968   3.454   2.594   4.761  0.4994  0.2697 -0.3182
 5321TIP3    H115969   3.421   2.677   4.793 -1.4831 -0.9402  1.0144
 5321TIP3    H215970   3.548   2.596   4.779  0.1620  1.4412  1.5162
 5322TIP3   OH215971   2.819   0.668   3.477  0.0057  0.3627  0.6903
 5322TIP3    H115972   2.737   0.620   3.467  1.4355 -2.0538 -0.4657
 5322TIP3    H215973   2.795   0.747   3.525 -3.3416  0.7940 -1.3508
 5323TIP3   OH215974   0.338   5.614   1.498 -0.6525  0.5310 -0.3294
 5323TIP3    H115975   0.269   5.680   1.491  0.4336  1.7584  0.0076
 5323TIP3    H215976   0.374   5.628   1.586 -0.6075 -0.7428 -0.1334
 5324TIP3   OH215977   0.433   1.767   0.828  0.7484  0.2061 -0.0988
 5324TIP3    H115978   0.392   1.848   0.858 -0.3886 -0.3402 -0.1109
 5324TIP3    H215979   0.422   1.769   0.733 -0.2302 -0.4236 -0.0199
 5325TIP3   OH215980   3.685   3.791   2.890  0.0694 -0.1793  0.4847
 5325TIP3    H115981   3.757   3.852   2.874  1.6921 -2.3039 -0.9018
 5325TIP3    H215982   3.728   3.710   2.916 -1.7270 -1.7565 -1.1150
 5326TIP3   OH215983   2.551   2.998   2.774 -0.2433 -0.1855  0.3070
 5326TIP3    H115984   2.646   3.014   2.769 -0.4152  1.3092  1.1457
 5326TIP3    H215985   2.513   3.062   2.714 -0.7597 -0.3747  0.4308
 5327TIP3   OH215986   1.452   3.233   1.990 -0.4420  0.5849  0.7250
 5327TIP3    H115987   1.359   3.227   1.965 -0.6917  0.7914  1.5661
 5327TIP3    H215988   1.457   3.311   2.045 -0.2957 -0.8429  2.8525
 5328TIP3   OH215989   1.514   4.155   2.679  0.2252 -0.1607 -0.4116
 5328TIP3    H115990   1.498   4.187   2.591 -1.0677 -1.6242 -0.7707
 5328TIP3    H215991   1.428   4.159   2.721  0.6117 -0.4801  0.4318
 5329TIP3   OH215992   2.147   3.931   2.852  0.4274 -0.0197 -0.0377
 5329TIP3    H115993   2.157   3.848   2.804 -0.1726 -0.1461  0.0551
 5329TIP3    H215994   2.107   3.990   2.789  1.1332  0.3005 -0.2017
 5330TIP3   OH215995   1.630   0.213   0.786 -0.4966 -0.4854 -0.8301
 5330TIP3    H115996   1.555   0.268   0.762 -0.6232 -0.9102 -1.4445
 5330TIP3    H215997   1.707   0.266   0.767 -0.6188  0.8913  2.0554
 5331TIP3   OH215998   1.535   0.862   0.792 -0.3595  0.9190 -0.4581
 5331TIP3    H115999   1.626   0.837   0.809 -0.9489 -0.4374  0.8804
 5331TIP3    H216000   1.483   0.787   0.821 -1.9906  2.1192 -0.0995
 5332TIP3   OH216001   3.369   0.272   1.047 -0.8184  0.0514  0.1983
 5332TIP3    H116002   3.402   0.287   1.135 -0.0052  1.5752 -0.3276
 5332TIP3    H216003   3.274   0.267   1.057 -0.7615  0.6416  1.1137
 5333TIP3   OH216004   4.452   2.951   4.865 -0.4513  0.1536  0.3578
 5333TIP3    H116005   4.519   2.884   4.852 -0.4693  0.4032 -1.3175
 5333TIP3    H216006   4.378   2.920   4.814 -0.5800  1.2651 -0.1541
 5334TIP3   OH216007   4.496   1.604   4.588  0.0487  0.4625 -0.1260
 5334TIP3    H116008   4.542   1.675   4.634 -0.0408 -0.9037  2.2333
 5334TIP3    H216009   4.410   1.601   4.630 -0.3364 -0.3625 -0.9512
 5335TIP3   OH216010   3.728   2.250   0.838  0.2278  0.0100 -0.2892
 5335TIP3    H116011   3.690   2.191   0.904  0.6604 -2.5838 -2.1921
 5335TIP3    H216012   3.815   2.270   0.872 -0.1705  0.1514  0.7084
 5336TIP3   OH216013   1.445   1.722   1.521  0.3338 -0.2060  0.2047
 5336TIP3    H116014   1.447   1.713   1.616 -1.2465 -0.8042  0.2111
 5336TIP3    H216015   1.399   1.644   1.490  2.6762 -1.1480 -1.2582
 5337TIP3   OH216016   3.351   2.740   1.303 -0.0012 -0.2899 -0.1431
 5337TIP3    H116017   3.309   2.654   1.293  0.2350 -0.2305 -1.8147
 5337TIP3    H216018   3.318   2.792   1.230 -0.4881  1.2137  1.1031
 5338TIP3   OH216019   3.988   3.459   2.728 -0.1193  0.0092 -0.4027
 5338TIP3    H116020   3.921   3.497   2.786 -0.2107 -1.0534  0.2194
 5338TIP3    H216021   4.066   3.454   2.783 -0.1021 -0.6615 -0.4884
 5339TIP3   OH216022   3.798   0.709   0.123  0.1953 -0.5617 -0.0492
 5339TIP3    H116023   3.821   0.732   0.213  1.2036 -1.2093 -0.1228
 5339TIP3    H216024   3.875   0.733   0.071  0.0214 -1.1284 -0.5894
 5340TIP3   OH216025   4.253   4.410   1.434  0.3350 -0.3371 -0.2096
 5340TIP3    H116026   4.213   4.388   1.518 -1.2147  2.7047 -0.0093
 5340TIP3    H216027   4.267   4.325   1.391 -1.6978 -1.8382  1.8380
 5341TIP3   OH216028   1.121   2.167   4.790 -0.4784  0.1048 -0.1791
 5341TIP3    H116029   1.121   2.071   4.780 -1.0933  0.2090 -1.4435
 5341TIP3    H216030   1.098   2.200   4.703 -0.1276  1.4168  0.2031
 5342TIP3   OH216031   5.296   3.606   4.256  0.0267  0.0695  0.4122
 5342TIP3    H116032   5.251   3.690   4.250  0.7266  0.3925 -0.4674
 5342TIP3    H216033   5.231   3.546   4.293 -0.8305  0.7328 -0.0118
 5343TIP3   OH216034   1.275   0.501   3.589 -0.6549  0.1171 -0.4632
 5343TIP3    H116035   1.247   0.532   3.675 -0.3888 -0.0149 -0.3257
 5343TIP3    H216036   1.369   0.515   3.588 -0.5398 -0.5968 -0.4300
 5344TIP3   OH216037   3.013   4.210   0.416  0.1178 -0.0187 -0.3024
 5344TIP3    H116038   2.998   4.144   0.484 -1.3993 -1.3117 -1.7795
 5344TIP3    H216039   2.953   4.281   0.438 -0.3772 -0.4382 -0.2729
 5345TIP3   OH216040   0.886   0.139   0.966  0.2265  0.4106  0.5647
 5345TIP3    H116041   0.971   0.119   0.926 -0.0428  1.3382 -0.5136
 5345TIP3    H216042   0.822   0.107   0.903 -0.2135  1.4947  0.4529
 5346TIP3   OH216043   4.632   3.676   1.825 -0.0221  0.1265  0.0100
 5346TIP3    H116044   4.591   3.601   1.869  0.8825  0.1572  0.9754
 5346TIP3    H216045   4.715   3.687   1.872  0.9919  0.1798 -1.7331
 5347TIP3   OH216046   0.790   2.645   2.286 -0.0459 -0.3655  0.0489
 5347TIP3    H116047   0.761   2.672   2.199  0.3012  0.7290  0.2600
 5347TIP3    H216048   0.878   2.609   2.273 -0.3461 -1.0380 -0.1717
 5348TIP3   OH216049   2.273   0.492   4.170  0.4372 -0.2007 -0.1369
 5348TIP3    H116050   2.228   0.489   4.255 -1.2349 -0.1843 -0.9911
 5348TIP3    H216051   2.243   0.414   4.124  0.5194  0.3199 -1.0992
 5349TIP3   OH216052   5.199   5.114   4.559  0.2761  0.6274 -0.4369
 5349TIP3    H116053   5.154   5.059   4.623  0.1507 -0.1219 -1.1430
 5349TIP3    H216054   5.286   5.075   4.550 -0.0205  0.1411 -1.3988
 5350TIP3   OH216055   1.518   3.076   2.657  0.1690  0.1393  0.0039
 5350TIP3    H116056   1.611   3.075   2.634  0.8705 -0.4101  2.5360
 5350TIP3    H216057   1.483   2.996   2.618  0.7678  0.2652 -0.8395
 5351TIP3   OH216058   5.970   3.508   3.858 -0.0518 -0.1877  0.0942
 5351TIP3    H116059   5.967   3.604   3.856  0.0493 -0.1958 -1.0737
 5351TIP3    H216060   6.057   3.486   3.825  0.0312 -0.6824  0.6282
 5352TIP3   OH216061   1.063   5.718   2.428 -0.0652 -0.3695  0.6212
 5352TIP3    H116062   0.970   5.695   2.436  0.1945 -1.6691  0.0636
 5352TIP3    H216063   1.096   5.715   2.517 -0.1336 -1.8052  0.6096
 5353TIP3   OH216064   1.891   1.728   1.170  0.0199 -0.3109  0.0300
 5353TIP3    H116065   1.839   1.671   1.114 -1.7529  0.0972  1.1538
 5353TIP3    H216066   1.830   1.798   1.196  1.2680  0.4552  1.0604
 5354TIP3   OH216067   2.167   4.070   1.254 -0.4824  0.1982  0.6482
 5354TIP3    H116068   2.203   3.988   1.288  0.1987  0.4795  0.6270
 5354TIP3    H216069   2.234   4.136   1.275 -0.9041  0.7016  0.4344
 5355TIP3   OH216070   1.653   1.846   4.180 -0.0805  0.1546  0.0859
 5355TIP3    H116071   1.615   1.862   4.094 -2.2323 -1.8741  0.5573
 5355TIP3    H216072   1.578   1.839   4.238  1.2715  0.2943  1.9384
 5356TIP3   OH216073   5.924   2.213   0.602  0.2140  0.0657  0.6174
 5356TIP3    H116074   5.949   2.234   0.692  1.9611 -1.0540  0.4424
 5356TIP3    H216075   5.914   2.298   0.560 -0.0250  0.5997  1.7113
 5357TIP3   OH216076   3.145   1.719   4.992  0.6132  0.1498 -0.1387
 5357TIP3    H116077   3.212   1.692   5.055 -0.7579 -1.6707  0.6523
 5357TIP3    H216078   3.065   1.725   5.044 -0.7532 -2.2611 -1.7344
 5358TIP3   OH216079   0.313   3.549   0.404 -0.3533 -0.0538 -0.0095
 5358TIP3    H116080   0.359   3.542   0.487  0.9723  2.0713 -0.4737
 5358TIP3    H216081   0.250   3.620   0.417  0.2007  0.6321 -0.9261
 5359TIP3   OH216082   3.245   3.336   0.740 -0.1641 -0.1451  0.1733
 5359TIP3    H116083   3.217   3.365   0.827  0.2566  0.9476 -0.0273
 5359TIP3    H216084   3.166   3.303   0.698 -0.2205 -1.3899  1.2362
 5360TIP3   OH216085   2.720   1.837   2.433 -0.0974  0.1094 -0.1085
 5360TIP3    H116086   2.650   1.771   2.440  0.7122 -0.6550  1.4040
 5360TIP3    H216087   2.684   1.914   2.476 -0.0154 -0.3186  0.7679
 5361TIP3   OH216088   1.973   2.424   1.919  0.1754  0.0555  0.1182
 5361TIP3    H116089   1.880   2.415   1.900 -0.0480 -0.3257  1.3147
 5361TIP3    H216090   1.990   2.360   1.989  1.1405  0.7081  0.5067
 5362TIP3   OH216091   1.373   4.927   1.144 -0.3161  0.4064 -0.2260
 5362TIP3    H116092   1.341   4.975   1.067  2.2347  1.4643 -0.7371
 5362TIP3    H216093   1.446   4.875   1.111 -2.0273 -2.8228  0.6391
 5363TIP3   OH216094   4.943   0.359   2.938  0.1022 -0.2235  0.2196
 5363TIP3    H116095   4.926   0.375   3.030 -1.8831 -2.1190  0.2626
 5363TIP3    H216096   4.874   0.408   2.892 -1.1011 -2.0612 -0.0251
 5364TIP3   OH216097   4.674   4.150   0.778  0.2095 -0.1882 -0.4325
 5364TIP3    H116098   4.682   4.081   0.713 -0.3359  1.0536 -1.8906
 5364TIP3    H216099   4.610   4.211   0.740  1.6777  1.8105  0.1390
 5365TIP3   OH216100   2.364   5.608   0.792  0.3825  0.0489  0.3941
 5365TIP3    H116101   2.268   5.609   0.791  0.3465  2.0123  0.9922
 5365TIP3    H216102   2.387   5.518   0.813 -1.3649 -0.3295  0.8304
 5366TIP3   OH216103   1.171   1.275   1.533  0.1930 -0.1942 -0.0018
 5366TIP3    H116104   1.201   1.248   1.619 -0.2052 -1.1416 -0.1490
 5366TIP3    H216105   1.166   1.194   1.482 -0.2537  0.2553 -0.7013
 5367TIP3   OH216106   3.479   4.341   3.296  0.0302 -0.1829  0.0782
 5367TIP3    H116107   3.397   4.305   3.263 -0.4428 -0.4316  1.4534
 5367TIP3    H216108   3.522   4.268   3.340 -0.5149  0.6437  2.1163
 5368TIP3   OH216109   1.870   1.274   2.925 -0.0844  0.7202  0.5736
 5368TIP3    H116110   1.779   1.272   2.895  0.0847  1.2357 -0.0112
 5368TIP3    H216111   1.866   1.308   3.014 -0.5647 -0.4616  1.0250
 5369TIP3   OH216112   1.003   4.815   1.202 -0.4549 -0.3052  0.3258
 5369TIP3    H116113   1.011   4.779   1.114 -0.7039 -1.7994  0.8786
 5369TIP3    H216114   1.092   4.818   1.236 -0.4686 -0.7973  0.4139
 5370TIP3   OH216115   5.650   5.936   2.418 -0.2465 -0.4010 -0.0926
 5370TIP3    H116116   5.561   5.956   2.446  0.4134  0.5597  1.4338
 5370TIP3    H216117   5.691   5.893   2.493  0.8361 -0.0433 -0.4480
 5371TIP3   OH216118   2.286   1.401   3.934  0.0814 -0.1462  0.0633
 5371TIP3    H116119   2.312   1.492   3.920 -0.5774 -0.0934 -0.9669
 5371TIP3    H216120   2.214   1.387   3.872  2.0243 -2.2003 -1.9068
 5372TIP3   OH216121   5.353   3.437   1.246  0.4043  0.2464 -0.3844
 5372TIP3    H116122   5.267   3.446   1.204 -0.4328 -1.6758  0.7684
 5372TIP3    H216123   5.415   3.426   1.174 -0.9040 -2.4746 -1.2177
 5373TIP3   OH216124   1.324   5.533   5.208 -0.2513 -0.5885 -0.2204
 5373TIP3    H116125   1.353   5.519   5.118  3.4703 -1.9917  0.9965
 5373TIP3    H216126   1.239   5.489   5.213 -0.6316 -0.3435 -3.0484
 5374TIP3   OH216127   4.770   5.531   1.448  0.4412  0.4186 -0.3950
 5374TIP3    H116128   4.803   5.557   1.534  0.3766 -1.3424  0.1958
 5374TIP3    H216129   4.687   5.577   1.439 -0.2186 -0.4220  1.0955
 5375TIP3   OH216130   4.318   0.793   1.880  0.0001  0.0441  0.2748
 5375TIP3    H116131   4.272   0.875   1.861  1.0342  0.0646 -2.7564
 5375TIP3    H216132   4.407   0.821   1.903  0.1437 -0.1909  0.0028
 5376TIP3   OH216133   0.164   4.277   4.885  0.6101  0.8517  0.1984
 5376TIP3    H116134   0.177   4.251   4.977  0.4323 -0.6093 -0.1724
 5376TIP3    H216135   0.107   4.353   4.890  1.1897  1.2469  1.3374
 5377TIP3   OH216136   2.136   0.254   2.042  0.2161  0.0872 -0.4496
 5377TIP3    H116137   2.125   0.325   2.105 -2.4864 -0.1065 -0.5984
 5377TIP3    H216138   2.151   0.299   1.958 -2.6553  0.6340 -0.7626
 5378TIP3   OH216139   4.286   5.899   4.162  0.2080  0.2286  0.2690
 5378TIP3    H116140   4.381   5.913   4.159  0.1449  0.5639 -1.1391
 5378TIP3    H216141   4.249   5.988   4.159 -0.1443  0.0678 -0.4890
 5379TIP3   OH216142   1.562   4.676   0.766  0.1490  0.4238  0.7742
 5379TIP3    H116143   1.474   4.714   0.764  0.0902  0.2650  0.0946
 5379TIP3    H216144   1.553   4.590   0.725  0.7385  0.6832  0.0549
 5380TIP3   OH216145   3.950   1.058   3.281 -0.2878 -0.0993 -0.2284
 5380TIP3    H116146   3.992   1.143   3.265  1.5398 -1.0949 -1.0293
 5380TIP3    H216147   3.927   1.060   3.374 -0.7353  1.4437 -0.3431
 5381TIP3   OH216148   6.053   4.932   4.792 -0.0429  0.2176  0.1718
 5381TIP3    H116149   6.039   5.018   4.751 -0.4497 -0.0418 -0.2483
 5381TIP3    H216150   5.969   4.911   4.832 -0.4000 -0.6240 -0.9607
 5382TIP3   OH216151   0.563   3.952   0.112 -0.1950  0.2331  0.0992
 5382TIP3    H116152   0.528   3.878   0.161 -1.2122  1.5912  1.5495
 5382TIP3    H216153   0.653   3.960   0.142 -0.2159 -0.1555  0.2722
 5383TIP3   OH216154   0.732   2.690   3.548  0.0206  0.6059 -0.7337
 5383TIP3    H116155   0.817   2.648   3.532  0.2761  1.0896 -0.6718
 5383TIP3    H216156   0.754   2.773   3.591 -0.4258  1.1952 -1.6248
 5384TIP3   OH216157   6.314   5.380   1.516 -0.5869 -0.4440 -0.3547
 5384TIP3    H116158   6.250   5.373   1.445 -1.0933 -1.3624  0.1764
 5384TIP3    H216159   6.324   5.291   1.549 -1.4508  0.1359  1.6737
 5385TIP3   OH216160   4.302   4.200   2.962  0.1297 -0.2528 -0.2717
 5385TIP3    H116161   4.273   4.110   2.949 -0.7339 -0.1411  0.7387
 5385TIP3    H216162   4.246   4.233   3.031  1.7778  0.4315  0.7973
 5386TIP3   OH216163   4.527   0.713   4.178  0.3441 -0.0865 -0.5111
 5386TIP3    H116164   4.479   0.635   4.208  1.5001 -0.4140  0.5460
 5386TIP3    H216165   4.566   0.749   4.258  0.8402  0.8804 -1.1769
 5387TIP3   OH216166   6.219   0.100   3.771 -0.0778 -0.0681  0.4556
 5387TIP3    H116167   6.306   0.059   3.767  0.3901  0.8825  0.5114
 5387TIP3    H216168   6.210   0.126   3.862  0.5711  1.8555  0.0225
 5388TIP3   OH216169   4.578   2.478   0.298 -0.3388  0.1628  0.5738
 5388TIP3    H116170   4.581   2.557   0.352  0.2209  0.0690  0.6888
 5388TIP3    H216171   4.486   2.453   0.297 -0.4153  0.4072  1.1365
 5389TIP3   OH216172   2.149   1.801   1.955  0.3574  0.2728 -0.0645
 5389TIP3    H116173   2.190   1.883   1.982 -0.0198  0.6719 -0.7090
 5389TIP3    H216174   2.142   1.751   2.036  1.8032  0.3250  0.1331
 5390TIP3   OH216175   6.030   4.466   3.678 -0.4550  0.3275  0.4665
 5390TIP3    H116176   6.105   4.486   3.735 -1.5951  0.3553  2.0062
 5390TIP3    H216177   6.068   4.413   3.607  1.2062  1.2368  0.6135
 5391TIP3   OH216178   6.302   3.593   4.667 -0.0871 -0.0682 -0.5072
 5391TIP3    H116179   6.353   3.524   4.710  1.0035  0.9632 -0.0950
 5391TIP3    H216180   6.354   3.619   4.592 -0.1749  0.7392 -0.2999
 5392TIP3   OH216181   0.194   4.518   0.236  0.2339  0.3285 -0.3260
 5392TIP3    H116182   0.189   4.611   0.258 -0.3775  0.3222 -0.4320
 5392TIP3    H216183   0.128   4.505   0.168  1.9296  0.2905 -2.0302
 5393TIP3   OH216184   3.833   5.216   2.843 -0.4616  0.2159  0.0611
 5393TIP3    H116185   3.911   5.178   2.884 -1.1005  0.0820  1.1935
 5393TIP3    H216186   3.833   5.181   2.754 -0.9724 -2.4582  1.0147
 5394TIP3   OH216187   4.953   0.647   3.239 -0.3198  0.2241 -0.0694
 5394TIP3    H116188   4.969   0.735   3.272  2.3273 -0.1261 -0.1598
 5394TIP3    H216189   4.980   0.590   3.311 -0.2043 -0.4928 -0.6699
 5395TIP3   OH216190   5.719   2.329   3.024  0.0513 -0.5478  0.1711
 5395TIP3    H116191   5.809   2.299   3.015 -0.0010 -0.3065 -1.4496
 5395TIP3    H216192   5.666   2.251   3.003 -0.1712 -0.9594  2.0371
 5396TIP3   OH216193   0.128   3.395   4.717 -0.1369 -0.3182 -0.1636
 5396TIP3    H116194   0.172   3.388   4.632  0.9126  1.1951  0.2098
 5396TIP3    H216195   0.199   3.383   4.781 -0.8043 -0.7768  0.5006
 5397TIP3   OH216196   0.652   5.911   5.190 -0.2256 -0.3751  0.3140
 5397TIP3    H116197   0.623   5.993   5.229  0.8170  0.8844 -1.3967
 5397TIP3    H216198   0.607   5.908   5.106  3.1873  0.9173 -1.7765
 5398TIP3   OH216199   2.180   2.597   4.153  0.3465 -0.2119 -0.2463
 5398TIP3    H116200   2.159   2.629   4.066  0.4024 -1.9286 -0.9250
 5398TIP3    H216201   2.214   2.674   4.199 -0.0675  0.8137 -1.5934
 5399TIP3   OH216202   2.420   3.937   4.311 -0.4821 -0.4495 -0.6558
 5399TIP3    H116203   2.381   3.851   4.324  0.3453 -0.5277  1.7996
 5399TIP3    H216204   2.349   3.999   4.327 -0.8234 -0.6516 -1.3686
 5400TIP3   OH216205   1.599   4.470   3.262 -0.6336 -0.0545  0.6003
 5400TIP3    H116206   1.601   4.565   3.263  2.4048 -0.0283  2.6587
 5400TIP3    H216207   1.679   4.444   3.216 -0.1171 -1.5499  2.2176
 5401TIP3   OH216208   6.227   3.371   0.947  0.1006 -0.0820  0.2037
 5401TIP3    H116209   6.133   3.351   0.944  0.2030 -1.0624  1.9698
 5401TIP3    H216210   6.232   3.464   0.928 -1.3827  0.2539  1.2304
 5402TIP3   OH216211   0.408   0.693   2.666 -0.3654 -0.2441 -0.3829
 5402TIP3    H116212   0.403   0.601   2.692 -0.0246  0.0397  0.7395
 5402TIP3    H216213   0.428   0.739   2.747 -2.3436  1.0266 -0.5490
 5403TIP3   OH216214   3.296   1.612   0.275 -0.1981  0.3660 -0.2796
 5403TIP3    H116215   3.327   1.703   0.270  0.2267  0.1987 -0.8983
 5403TIP3    H216216   3.242   1.609   0.354 -0.9253  1.3783 -0.6987
 5404TIP3   OH216217   4.904   4.833   0.458  0.1143  0.2885  0.7264
 5404TIP3    H116218   4.838   4.890   0.498  0.4214  2.0471 -1.1298
 5404TIP3    H216219   4.969   4.892   0.422  0.6098 -1.2171 -1.0376
 5405TIP3   OH216220   0.509   1.606   0.199  0.1430  0.1309 -0.5724
 5405TIP3    H116221   0.587   1.635   0.151 -0.4187  3.7057  0.3784
 5405TIP3    H216222   0.519   1.643   0.286 -1.3942 -1.6607  0.4362
 5406TIP3   OH216223   4.321   0.153   4.918 -0.2362  0.4648 -0.2789
 5406TIP3    H116224   4.299   0.066   4.886  2.7538 -0.3540 -0.3846
 5406TIP3    H216225   4.258   0.211   4.875 -1.4017 -1.4800 -1.3130
 5407TIP3   OH216226   5.224   5.579   0.624 -0.2075  0.4321  0.1237
 5407TIP3    H116227   5.198   5.506   0.680 -1.1984  1.8817  1.6538
 5407TIP3    H216228   5.277   5.635   0.680  0.2399  1.0833 -0.9127
 5408TIP3   OH216229   5.309   4.395   4.638  0.2423 -0.1371  0.1968
 5408TIP3    H116230   5.404   4.386   4.633  0.1782 -0.6337 -0.1649
 5408TIP3    H216231   5.281   4.325   4.697  0.2595  1.0945  1.7599
 5409TIP3   OH216232   1.183   3.562   0.700 -0.1568 -0.2078  0.3910
 5409TIP3    H116233   1.149   3.559   0.789 -0.7906 -1.3850  0.1313
 5409TIP3    H216234   1.200   3.655   0.684  0.7205 -0.0585  2.0047
 5410TIP3   OH216235   3.693   5.613   3.937  0.2345  0.6090 -0.1939
 5410TIP3    H116236   3.785   5.588   3.932 -0.2728 -1.3195 -0.5286
 5410TIP3    H216237   3.658   5.596   3.850 -0.4070  1.5349 -0.1359
 5411TIP3   OH216238   1.133   1.143   3.310  0.1836  0.3070 -0.0216
 5411TIP3    H116239   1.178   1.228   3.305 -0.3274  0.5768 -0.0679
 5411TIP3    H216240   1.067   1.155   3.377 -0.1752  0.0821 -0.3320
 5412TIP3   OH216241   5.480   0.751   0.946  0.0177 -0.3399  0.4962
 5412TIP3    H116242   5.436   0.758   0.861 -0.5265 -1.3943  0.6753
 5412TIP3    H216243   5.408   0.757   1.010  0.0629 -2.2508  0.7895
 5413TIP3   OH216244   2.385   5.399   5.045  0.1230  0.4052  0.2310
 5413TIP3    H116245   2.349   5.311   5.034 -0.8216  0.6482  1.2399
 5413TIP3    H216246   2.479   5.384   5.056 -0.1827 -0.6142  1.7122
 5414TIP3   OH216247   4.171   1.903   4.835  0.2432 -0.4665  0.0221
 5414TIP3    H116248   4.264   1.884   4.846  0.3497 -0.8062 -1.2338
 5414TIP3    H216249   4.154   1.885   4.742 -0.6237  1.4338 -0.2457
 5415TIP3   OH216250   5.514   5.759   0.350 -0.4480 -0.5166  0.1215
 5415TIP3    H116251   5.606   5.786   0.348 -1.0080  1.5371 -0.0661
 5415TIP3    H216252   5.484   5.769   0.260 -1.0244 -0.4968  0.3132
 5416TIP3   OH216253   4.105   3.107   2.210  0.5048  0.0296  0.1530
 5416TIP3    H116254   4.181   3.134   2.158  0.4594 -0.6682 -0.2970
 5416TIP3    H216255   4.044   3.180   2.205  0.1562 -0.3405 -1.4609
 5417TIP3   OH216256   4.349   3.255   1.933 -0.6382  0.0509 -0.2823
 5417TIP3    H116257   4.335   3.225   2.023 -0.9797  2.2748  0.4903
 5417TIP3    H216258   4.268   3.300   1.910 -0.8261 -1.1100 -2.0115
 5418TIP3   OH216259   0.068   3.738   2.363  0.2935 -0.4509 -0.0111
 5418TIP3    H116260   0.047   3.814   2.308 -0.1572  0.4602  1.3722
 5418TIP3    H216261   0.064   3.664   2.302  3.8585  0.8544 -2.1527
 5419TIP3   OH216262   5.755   1.444   0.328  0.2434  0.2702  0.0856
 5419TIP3    H116263   5.835   1.496   0.315 -0.0739  0.5957 -0.6660
 5419TIP3    H216264   5.720   1.432   0.239 -0.3568 -0.1670  0.3733
 5420TIP3   OH216265   2.438   4.292   4.214 -0.6014  0.6301  0.1883
 5420TIP3    H116266   2.394   4.290   4.299 -1.9869 -0.8545 -0.5185
 5420TIP3    H216267   2.531   4.288   4.235 -0.8057  2.5067  1.6881
 5421TIP3   OH216268   4.220   1.423   4.309 -0.4099 -0.2534 -0.4627
 5421TIP3    H116269   4.303   1.405   4.353  0.1342 -0.4331 -1.5174
 5421TIP3    H216270   4.173   1.340   4.313 -0.5554 -0.1417  0.1708
 5422TIP3   OH216271   5.200   0.234   3.141 -0.2168  0.2424 -0.0958
 5422TIP3    H116272   5.276   0.287   3.166 -0.7256 -0.1702  2.6480
 5422TIP3    H216273   5.207   0.155   3.195 -2.9098  0.5101  0.7833
 5423TIP3   OH216274   2.853   4.664   0.082 -0.7279 -0.1513  0.0679
 5423TIP3    H116275   2.933   4.709   0.106 -1.4591  1.3965 -0.2686
 5423TIP3    H216276   2.797   4.670   0.159 -0.4688 -1.4286  0.3855
 5424TIP3   OH216277   3.194   4.245   1.591 -0.5174  0.1047  0.1232
 5424TIP3    H116278   3.268   4.304   1.582 -0.6951  0.3433  0.2171
 5424TIP3    H216279   3.122   4.290   1.547 -0.8622  0.3335  0.9012
 5425TIP3   OH216280   5.615   0.071   0.313  0.6788  0.0942  0.5798
 5425TIP3    H116281   5.667   0.018   0.373  1.2718  0.0465  0.0346
 5425TIP3    H216282   5.674   0.089   0.239 -0.5099 -1.2151 -0.7510
 5426TIP3   OH216283   0.050   1.058   1.443  0.0821 -0.4849  0.3167
 5426TIP3    H116284   0.059   1.008   1.362  1.9281 -0.0273  0.1812
 5426TIP3    H216285   0.078   0.998   1.512  0.8015 -0.1647  0.3217
 5427TIP3   OH216286   6.040   4.016   4.066 -0.2163  0.1420 -0.6480
 5427TIP3    H116287   6.092   3.992   4.143  1.7571 -1.5979 -2.3904
 5427TIP3    H216288   6.101   4.067   4.012 -0.8371 -0.5010 -1.9977
 5428TIP3   OH216289   4.944   3.474   1.952  0.2448 -0.3731  0.3273
 5428TIP3    H116290   4.944   3.379   1.960 -0.2307 -0.2503  2.3425
 5428TIP3    H216291   4.999   3.492   1.875 -0.3408 -2.2761 -0.6067
 5429TIP3   OH216292   5.455   5.279   4.286  0.0900 -0.4629 -0.3336
 5429TIP3    H116293   5.477   5.372   4.284  1.7846 -0.8016  0.6752
 5429TIP3    H216294   5.531   5.237   4.327 -2.1202 -1.8572  2.7218
 5430TIP3   OH216295   3.466   2.616   0.197 -0.4540  0.0674 -0.0687
 5430TIP3    H116296   3.559   2.612   0.177 -0.7802 -0.7990 -1.6245
 5430TIP3    H216297   3.449   2.708   0.217  0.3197  0.7204 -2.1386
 5431TIP3   OH216298   5.431   1.907   3.566 -0.1522 -0.0728  0.4676
 5431TIP3    H116299   5.364   1.942   3.626 -0.3897 -1.1507  0.8466
 5431TIP3    H216300   5.385   1.897   3.483 -0.1655  0.2136  0.4381
 5432TIP3   OH216301   4.541   4.311   2.981 -0.4520 -0.0389  0.1037
 5432TIP3    H116302   4.465   4.253   2.972 -0.9623  0.0002  3.0986
 5432TIP3    H216303   4.520   4.366   3.057  1.5532  1.6645 -0.4839
 5433TIP3   OH216304   2.237   1.317   1.508 -0.2687 -0.5658 -0.0119
 5433TIP3    H116305   2.307   1.280   1.561 -0.7043 -0.2103  0.8205
 5433TIP3    H216306   2.199   1.386   1.562 -0.5381 -0.0023 -0.8955
 5434TIP3   OH216307   4.611   1.650   3.147  0.1593 -0.4749  0.1549
 5434TIP3    H116308   4.682   1.595   3.179  0.3741 -0.2360  0.0955
 5434TIP3    H216309   4.575   1.603   3.072  0.3431 -0.5328  0.1025
 5435TIP3   OH216310   1.797   5.307   2.564  0.2142  0.0336  0.2848
 5435TIP3    H116311   1.810   5.402   2.566  1.1706 -0.0639 -0.4293
 5435TIP3    H216312   1.762   5.286   2.651  0.1710  1.0126  0.5216
 5436TIP3   OH216313   1.416   3.295   0.537 -0.2212  0.2077  0.1417
 5436TIP3    H116314   1.377   3.364   0.484  0.8093  1.5767  1.1067
 5436TIP3    H216315   1.410   3.216   0.482 -2.2878  0.8276 -0.5915
 5437TIP3   OH216316   5.649   2.956   4.243 -0.3622 -0.3052  0.1211
 5437TIP3    H116317   5.713   3.001   4.298 -2.1198  1.0699  1.1929
 5437TIP3    H216318   5.584   3.023   4.223 -0.6215 -1.2071 -2.3497
 5438TIP3   OH216319   4.584   0.272   1.632 -0.0418  0.1737 -0.0475
 5438TIP3    H116320   4.676   0.290   1.652 -0.3930  0.8937  1.0176
 5438TIP3    H216321   4.581   0.268   1.536  1.0402  0.4315 -0.1105
 5439TIP3   OH216322   2.068   2.360   1.028 -0.0566  0.4449 -1.0503
 5439TIP3    H116323   2.071   2.294   1.098  1.7408  0.3681 -1.1376
 5439TIP3    H216324   1.997   2.419   1.053  0.6852  0.5545  0.9913
 5440TIP3   OH216325   3.935   1.524   1.786  0.7646  0.0354 -0.0787
 5440TIP3    H116326   3.858   1.575   1.761  1.2453  0.1175 -1.4495
 5440TIP3    H216327   3.901   1.436   1.801  0.3581  0.1343 -0.3991
 5441TIP3   OH216328   5.871   0.607   0.700 -0.6034 -0.0608 -0.1410
 5441TIP3    H116329   5.915   0.643   0.623 -0.8598  1.0380  0.2122
 5441TIP3    H216330   5.782   0.589   0.670 -0.3668 -0.8422 -0.4296
 5442TIP3   OH216331   1.042   1.684   1.808  0.0848  0.0941  0.2368
 5442TIP3    H116332   0.947   1.670   1.808  0.1196 -0.1515  0.2443
 5442TIP3    H216333   1.062   1.711   1.718 -0.0781  0.7669  0.3962
 5443TIP3   OH216334   1.789   0.143   3.554 -0.3976 -0.1125 -0.0656
 5443TIP3    H116335   1.788   0.143   3.649  1.9677  2.6862  0.0912
 5443TIP3    H216336   1.869   0.095   3.531 -0.5290 -0.0736 -0.6155
 5444TIP3   OH216337   1.733   1.368   0.769 -0.3056  0.2707  0.6335
 5444TIP3    H116338   1.753   1.376   0.863 -0.4660 -0.4522  0.7338
 5444TIP3    H216339   1.638   1.357   0.767 -0.1852 -0.7835  0.4588
 5445TIP3   OH216340   0.344   0.852   3.668  0.0168  0.1664 -0.3250
 5445TIP3    H116341   0.378   0.939   3.645  1.7696 -0.8970 -2.0436
 5445TIP3    H216342   0.259   0.847   3.625 -0.3924  1.2356  0.3128
 5446TIP3   OH216343   3.927   1.305   2.273 -0.5334  0.2173  0.4119
 5446TIP3    H116344   3.961   1.345   2.193  0.0060 -2.1808 -0.6557
 5446TIP3    H216345   3.992   1.238   2.295 -2.2357 -1.3266  0.9972
 5447TIP3   OH216346   5.552   5.243   1.262 -0.3882 -0.3217  0.2447
 5447TIP3    H116347   5.548   5.254   1.167  0.4816  2.1292  0.4196
 5447TIP3    H216348   5.622   5.179   1.275 -0.8520 -1.0750 -0.7426
 5448TIP3   OH216349   3.411   2.400   4.556  0.4459 -0.0667  0.1794
 5448TIP3    H116350   3.449   2.473   4.507 -0.3920  1.4864  1.7026
 5448TIP3    H216351   3.416   2.428   4.647 -1.7585 -1.0124  0.6562
 5449TIP3   OH216352   4.414   4.408   4.065 -0.1854 -0.5513  0.1049
 5449TIP3    H116353   4.348   4.474   4.044 -1.6506 -2.1527 -0.5595
 5449TIP3    H216354   4.482   4.457   4.113 -1.0183  1.4780 -0.6537
 5450TIP3   OH216355   4.919   2.944   1.002  0.0309  0.4102  0.0906
 5450TIP3    H116356   4.830   2.912   0.990 -0.9698  2.9732  0.0792
 5450TIP3    H216357   4.970   2.865   1.022 -1.9210 -1.3233 -1.3305
 5451TIP3   OH216358   3.071   3.886   4.052  0.3064  0.1071  0.3768
 5451TIP3    H116359   3.002   3.893   3.986 -1.0693  0.1206  1.7523
 5451TIP3    H216360   3.114   3.802   4.035  1.3658  1.0049 -1.7622
 5452TIP3   OH216361   1.088   1.327   4.565  0.4922 -0.1017 -0.0779
 5452TIP3    H116362   1.008   1.315   4.513  1.6704 -0.1597 -1.9725
 5452TIP3    H216363   1.088   1.253   4.625  0.0109 -1.1557 -1.3070
 5453TIP3   OH216364   2.016   1.346   1.741  0.8266 -0.1905 -0.4455
 5453TIP3    H116365   1.944   1.369   1.682 -0.5776 -0.8478  0.9579
 5453TIP3    H216366   2.067   1.426   1.749 -0.7659  0.8174 -0.0716
 5454TIP3   OH216367   0.259   1.951   0.912  0.0663 -0.2972  0.0143
 5454TIP3    H116368   0.213   1.871   0.940 -1.0588  0.2301 -0.2648
 5454TIP3    H216369   0.281   1.995   0.994 -3.9938  1.6748  0.3135
 5455TIP3   OH216370   3.946   3.687   4.351 -0.1223  0.0088  0.3730
 5455TIP3    H116371   3.895   3.649   4.279  0.5246  0.9240 -0.5957
 5455TIP3    H216372   3.892   3.758   4.384 -0.8419 -1.0088  1.4514
 5456TIP3   OH216373   4.929   1.208   1.927  0.1953  0.1559  0.1549
 5456TIP3    H116374   5.020   1.189   1.949  0.2161  1.2402  1.0991
 5456TIP3    H216375   4.895   1.254   2.004 -1.0418  0.0964 -0.3357
 5457TIP3   OH216376   0.415   2.930   1.322 -0.1124 -0.2169 -0.7519
 5457TIP3    H116377   0.477   2.946   1.394 -2.3997 -3.1659  2.1615
 5457TIP3    H216378   0.359   3.008   1.322 -0.7133 -0.5813  1.4898
 5458TIP3   OH216379   2.030   0.755   4.739 -0.0452  0.0026  0.1656
 5458TIP3    H116380   2.011   0.773   4.831  0.6911 -0.5950  0.4474
 5458TIP3    H216381   1.947   0.772   4.693 -0.8745 -1.1712  1.1548
 5459TIP3   OH216382   2.419   0.338   3.883 -0.0525 -0.7068 -0.3325
 5459TIP3    H116383   2.462   0.404   3.938 -2.4250 -0.0437  0.8820
 5459TIP3    H216384   2.439   0.255   3.926  1.2582 -0.6194 -0.7072
 5460TIP3   OH216385   4.056   1.900   2.504  0.5522  0.2747 -0.1864
 5460TIP3    H116386   4.043   1.817   2.458  4.1326 -0.7159  0.2582
 5460TIP3    H216387   3.994   1.897   2.577  0.8486 -2.2370  0.0443
 5461TIP3   OH216388   3.132   3.771   2.633  0.0411 -0.9857 -0.2049
 5461TIP3    H116389   3.125   3.828   2.557 -1.7185  0.5956  1.0578
 5461TIP3    H216390   3.103   3.685   2.602  1.9644 -1.0956 -1.9334
 5462TIP3   OH216391   3.109   0.143   4.235 -0.2712 -0.4655  0.2012
 5462TIP3    H116392   3.140   0.082   4.168 -0.6191  0.3506 -0.7162
 5462TIP3    H216393   3.167   0.127   4.310 -0.1394 -1.6716 -0.1321
 5463TIP3   OH216394   0.169   1.225   3.525  0.1082 -0.0456 -0.3467
 5463TIP3    H116395   0.193   1.317   3.514 -1.3968  0.3899 -0.2300
 5463TIP3    H216396   0.166   1.190   3.436  1.7208 -0.2857 -0.3307
 5464TIP3   OH216397   6.079   0.981   2.303  0.6029  0.0546 -0.1438
 5464TIP3    H116398   6.141   0.964   2.232  1.8330  1.8276  0.4216
 5464TIP3    H216399   6.025   1.053   2.271 -0.2845 -0.5828 -0.1032
 5465TIP3   OH216400   4.755   0.565   2.316  0.0053 -0.9499  0.0865
 5465TIP3    H116401   4.800   0.563   2.400 -1.0476  1.7010  0.8344
 5465TIP3    H216402   4.663   0.580   2.340 -0.1444  1.0447 -1.5014
 5466TIP3   OH216403   5.504   5.775   1.539  0.4035  0.3724 -0.3243
 5466TIP3    H116404   5.414   5.769   1.507  0.2906 -0.3705  0.1188
 5466TIP3    H216405   5.522   5.689   1.577 -0.0914  1.6742  3.2357
 5467TIP3   OH216406   3.745   0.936   1.059  0.2622 -0.2834 -0.0538
 5467TIP3    H116407   3.787   0.920   1.144  1.1600  0.4443 -0.3436
 5467TIP3    H216408   3.755   1.030   1.045  0.3376 -0.4427 -1.0858
 5468TIP3   OH216409   0.139   5.725   2.438 -0.4212  0.8948 -1.2555
 5468TIP3    H116410   0.149   5.663   2.510  0.1529  1.9586 -0.4038
 5468TIP3    H216411   0.089   5.676   2.372 -0.8406 -0.1370 -0.2109
 5469TIP3   OH216412   3.029   3.336   4.207 -0.3554  0.3003  0.6488
 5469TIP3    H116413   3.101   3.277   4.231 -0.3842 -1.3824 -2.8082
 5469TIP3    H216414   2.962   3.279   4.171 -0.9658  2.2766 -1.5819
 5470TIP3   OH216415   4.491   1.023   4.597  0.1985 -0.1791  0.4582
 5470TIP3    H116416   4.546   1.051   4.670 -1.5560  0.9270  1.4232
 5470TIP3    H216417   4.409   0.996   4.638 -0.5860 -0.2078 -1.0513
 5471TIP3   OH216418   6.234   4.852   3.556 -0.4713 -0.6522  0.2841
 5471TIP3    H116419   6.310   4.902   3.528  0.1892 -1.7793 -0.0046
 5471TIP3    H216420   6.251   4.763   3.526 -1.0802 -1.3052  1.7646
 5472TIP3   OH216421   0.138   2.641   2.332 -0.4279  0.0321  0.5602
 5472TIP3    H116422   0.121   2.601   2.417 -1.5265  0.0153  0.3539
 5472TIP3    H216423   0.134   2.736   2.349  0.3965  0.0398  0.7188
 5473TIP3   OH216424   0.190   3.053   0.774 -0.2642 -0.3338 -0.0759
 5473TIP3    H116425   0.110   3.005   0.757 -0.4984  0.3077 -0.8721
 5473TIP3    H216426   0.202   3.048   0.869 -1.7081  0.2634  0.1705
 5474TIP3   OH216427   1.904   3.877   3.257  0.3076  0.0962  0.2587
 5474TIP3    H116428   1.957   3.883   3.177 -0.1918  1.4803 -0.0068
 5474TIP3    H216429   1.876   3.967   3.273 -2.3921 -0.6323  0.1017
 5475TIP3   OH216430   5.902   1.665   4.718 -0.5523 -0.4611  0.0962
 5475TIP3    H116431   5.937   1.639   4.803  1.8942  1.8055 -0.0669
 5475TIP3    H216432   5.871   1.755   4.731 -1.1473 -0.4522 -1.1757
 5476TIP3   OH216433   0.016   3.543   5.211 -0.0039 -0.1480  0.0728
 5476TIP3    H116434   0.073   3.505   5.143 -0.8192 -0.5816 -0.3837
 5476TIP3    H216435  -0.059   3.576   5.163  0.0681  0.8420  0.6240
 5477TIP3   OH216436   5.161   0.395   2.032 -0.0461  0.2514  0.0826
 5477TIP3    H116437   5.232   0.333   2.021 -1.4426 -1.2882 -0.6221
 5477TIP3    H216438   5.082   0.347   2.007 -1.1279  2.4719 -1.0642
 5478TIP3   OH216439   0.333   5.309   1.512 -0.1103  0.1861 -0.3424
 5478TIP3    H116440   0.343   5.396   1.474  0.2920  0.0164 -0.6450
 5478TIP3    H216441   0.304   5.254   1.439 -2.1047  0.4034  0.2447
 5479TIP3   OH216442   3.133  -0.015   3.437 -0.2007  0.1034  0.0606
 5479TIP3    H116443   3.201  -0.018   3.505  1.2567  0.3002 -1.3241
 5479TIP3    H216444   3.103   0.075   3.436 -2.9262 -0.5887  2.8755
 5480TIP3   OH216445   0.023   4.991   3.911 -0.2184  0.6539  0.1813
 5480TIP3    H116446  -0.022   5.039   3.841 -0.8105  1.6983  1.2583
 5480TIP3    H216447   0.032   5.054   3.982  2.2408  0.2639  0.3271
 5481TIP3   OH216448   3.775   2.941   4.448 -0.3431  0.1667  0.2798
 5481TIP3    H116449   3.721   2.907   4.377 -0.8209  0.5178  0.4708
 5481TIP3    H216450   3.715   2.993   4.501 -0.2195 -0.9068  1.5122
 5482TIP3   OH216451   4.694   1.518   4.165  0.6978 -0.5067  0.3217
 5482TIP3    H116452   4.620   1.572   4.191 -0.3076 -0.5058 -2.2230
 5482TIP3    H216453   4.720   1.472   4.245 -1.3892  0.2576  1.5197
 5483TIP3   OH216454   3.809   3.876   0.338 -0.5037 -0.4060  0.2935
 5483TIP3    H116455   3.879   3.878   0.272 -0.6356 -1.3730  0.1100
 5483TIP3    H216456   3.803   3.784   0.363 -1.2133 -0.2124  0.8521
 5484TIP3   OH216457   4.366   3.760   4.793  0.4367  0.3903  0.2261
 5484TIP3    H116458   4.373   3.854   4.775  3.0883 -0.1560 -2.5324
 5484TIP3    H216459   4.272   3.741   4.786 -0.1367  2.7432  0.5974
 5485TIP3   OH216460   2.740   2.727   3.642 -0.3061 -0.4073  0.3321
 5485TIP3    H116461   2.695   2.736   3.726  1.7235  0.5962  1.3780
 5485TIP3    H216462   2.833   2.741   3.663  0.3274 -0.8157 -1.9704
 5486TIP3   OH216463   0.665   0.783   2.498 -0.0416 -0.2365  0.1237
 5486TIP3    H116464   0.581   0.800   2.540 -0.8965  1.2773 -2.0220
 5486TIP3    H216465   0.722   0.854   2.529  0.1824 -0.7072  0.8197
 5487TIP3   OH216466   0.269   3.217   2.157 -0.2346 -0.6089 -0.1785
 5487TIP3    H116467   0.244   3.308   2.143 -0.7732 -0.5615  1.0211
 5487TIP3    H216468   0.211   3.167   2.098 -0.6481 -0.2463 -0.0860
 5488TIP3   OH216469   5.698   2.737   4.486  0.5488  0.6784 -0.7089
 5488TIP3    H116470   5.696   2.820   4.533  0.1571  0.1910  0.1699
 5488TIP3    H216471   5.613   2.697   4.505  1.6513 -1.0204  0.9527
 5489TIP3   OH216472   0.271   2.913   2.678 -0.5666 -0.2819 -0.2760
 5489TIP3    H116473   0.196   2.960   2.713 -1.4631 -1.3400 -0.7130
 5489TIP3    H216474   0.315   2.877   2.755  0.2797  1.4227  0.0868
 5490TIP3   OH216475   5.416   0.246   3.597 -0.0659  0.0103  0.3756
 5490TIP3    H116476   5.480   0.219   3.663 -0.1560  1.8319  1.2634
 5490TIP3    H216477   5.467   0.297   3.534 -0.1058 -1.1716 -0.6609
 5491TIP3   OH216478   5.537   2.269   4.930 -0.1002 -0.7850 -0.1234
 5491TIP3    H116479   5.511   2.230   5.014 -0.2748  0.5206  0.4528
 5491TIP3    H216480   5.624   2.232   4.912  0.3618 -0.3688  1.1286
 5492TIP3   OH216481   1.960   2.056   1.431  0.1110  0.2638 -0.0476
 5492TIP3    H116482   1.902   1.998   1.480 -0.4775 -0.5922 -1.6926
 5492TIP3    H216483   2.037   2.066   1.487  0.5251 -2.6595  0.0442
 5493TIP3   OH216484   1.978   1.261   3.900 -0.1762 -0.4867 -0.3743
 5493TIP3    H116485   1.984   1.230   3.990 -0.0537 -0.8573 -0.5108
 5493TIP3    H216486   1.945   1.351   3.908  1.8879  0.2895  0.1855
 5494TIP3   OH216487   1.868   3.435   2.431 -0.0376 -0.1574 -0.6300
 5494TIP3    H116488   1.904   3.435   2.343  0.6689  2.6040 -0.4352
 5494TIP3    H216489   1.775   3.456   2.420 -0.1865 -0.8903 -0.7737
 5495TIP3   OH216490   5.847   4.966   3.086  0.1237 -0.2407  0.1259
 5495TIP3    H116491   5.845   4.896   3.151  0.5512  0.0556  0.4666
 5495TIP3    H216492   5.906   5.032   3.123  1.6886 -0.7707 -1.2562
 5496TIP3   OH216493   4.587   1.350   0.072 -0.3508  0.5411  0.0400
 5496TIP3    H116494   4.527   1.329   0.144 -0.5935  1.1408  0.0155
 5496TIP3    H216495   4.593   1.268   0.023  0.4514 -0.1216  1.1876
 5497TIP3   OH216496   5.117   1.717   2.055  0.3234 -0.3547 -0.0421
 5497TIP3    H116497   5.171   1.728   1.977 -0.4627 -2.1000 -0.8803
 5497TIP3    H216498   5.031   1.748   2.030  0.4839  0.7526  0.7239
 5498TIP3   OH216499   4.088   2.016   3.126  0.2307  0.0887 -0.0055
 5498TIP3    H116500   4.047   1.930   3.121  0.3136 -0.0731  1.4867
 5498TIP3    H216501   4.044   2.059   3.199  1.8562  0.3665  0.8624
 5499TIP3   OH216502   0.566   3.372   2.485  0.5072  0.0596 -0.6701
 5499TIP3    H116503   0.592   3.280   2.490  1.9581  0.5035  2.4473
 5499TIP3    H216504   0.627   3.411   2.423  3.4433 -0.1874  1.8185
 5500TIP3   OH216505   1.882   0.712   5.209 -0.0612  0.0321  0.0565
 5500TIP3    H116506   1.834   0.715   5.126  1.1645 -0.2805 -0.6830
 5500TIP3    H216507   1.968   0.749   5.189  0.1759  0.1511  1.2413
 5501TIP3   OH216508   3.149   0.973   4.692 -0.2131  0.1170 -0.1724
 5501TIP3    H116509   3.094   0.990   4.615  1.0220 -1.1070 -1.3963
 5501TIP3    H216510   3.211   1.046   4.693 -0.6646  0.5002  0.0796
 5502TIP3   OH216511   2.342   4.370   2.603  0.5358 -0.2659  0.7468
 5502TIP3    H116512   2.249   4.362   2.585  0.8238 -1.4183 -0.4775
 5502TIP3    H216513   2.349   4.436   2.671 -1.3090 -1.4155  2.1279
 5503TIP3   OH216514   1.443   1.357   3.414 -0.1515  0.0772  0.2207
 5503TIP3    H116515   1.366   1.317   3.453 -2.2734  1.2145 -2.4853
 5503TIP3    H216516   1.436   1.335   3.321  2.9507  0.0628 -0.1122
 5504TIP3   OH216517   5.608   4.766   0.820 -0.2373 -0.4237  0.6357
 5504TIP3    H116518   5.686   4.735   0.775  0.2439 -1.0240  1.8478
 5504TIP3    H216519   5.536   4.716   0.780  0.1060 -0.5621  0.1842
 5505TIP3   OH216520   1.575   4.072   3.888  0.2084  0.2153 -0.4635
 5505TIP3    H116521   1.665   4.068   3.920 -0.0093  2.9453  0.7673
 5505TIP3    H216522   1.572   4.149   3.831 -1.3159  0.1724 -0.5005
 5506TIP3   OH216523   5.449   3.812   2.557  0.0786  0.3389  0.2223
 5506TIP3    H116524   5.364   3.854   2.570 -0.1096 -0.3707  1.4975
 5506TIP3    H216525   5.456   3.800   2.462  0.2971  3.4717 -0.2470
 5507TIP3   OH216526   1.067   0.537   3.815 -0.0989 -0.3083  0.1428
 5507TIP3    H116527   1.049   0.453   3.857 -0.7359  0.1898  0.8874
 5507TIP3    H216528   1.110   0.589   3.882 -3.7178  1.5301  1.3048
 5508TIP3   OH216529   2.665   5.005   1.932  0.0819  0.1700 -0.1685
 5508TIP3    H116530   2.745   4.989   1.982  1.8474  0.4917 -2.6741
 5508TIP3    H216531   2.607   4.932   1.955  1.9362 -1.2838  0.1614
 5509TIP3   OH216532   3.187   1.088   2.637  0.0738 -0.2437  0.2083
 5509TIP3    H116533   3.191   1.149   2.710 -0.4257  1.8296 -1.4065
 5509TIP3    H216534   3.275   1.091   2.600 -0.0977 -0.0928 -0.1875
 5510TIP3   OH216535   5.291   1.969   4.988  0.3737  0.2451  0.1626
 5510TIP3    H116536   5.362   1.920   4.946  0.7206  1.4463 -0.7117
 5510TIP3    H216537   5.313   1.969   5.081  0.2035 -1.4786  0.2434
 5511TIP3   OH216538   4.660   1.045   3.745 -0.0462  0.3792 -0.4910
 5511TIP3    H116539   4.572   1.080   3.731 -1.1443 -2.8389 -2.5151
 5511TIP3    H216540   4.648   0.973   3.807  0.7143 -1.4444 -2.3485
 5512TIP3   OH216541   2.594   3.211   1.771  0.2745  0.3222  0.3565
 5512TIP3    H116542   2.628   3.273   1.707 -1.0718 -0.5126 -1.2603
 5512TIP3    H216543   2.545   3.265   1.833  0.7629  1.0615  0.1073
 5513TIP3   OH216544   0.889   2.727   1.744 -0.0449  0.3262  0.1671
 5513TIP3    H116545   0.850   2.813   1.728  0.7675  0.3763 -1.7790
 5513TIP3    H216546   0.956   2.743   1.810 -0.3441  1.0603  0.2996
 5514TIP3   OH216547   4.565   2.505   3.314  0.4708  0.6455  0.1538
 5514TIP3    H116548   4.493   2.491   3.252 -0.0770  1.5391  0.5639
 5514TIP3    H216549   4.644   2.495   3.261  0.0063  2.5429 -1.0101
 5515TIP3   OH216550   4.576   1.362   1.513 -0.1498  0.4891 -0.1291
 5515TIP3    H116551   4.642   1.431   1.500  0.1934  0.2462  0.2818
 5515TIP3    H216552   4.492   1.407   1.505  0.0674  1.1398  1.0309
 5516TIP3   OH216553   4.528   3.386   2.855 -0.0779 -0.1258  0.2572
 5516TIP3    H116554   4.462   3.342   2.802  0.0655  1.2171 -1.0807
 5516TIP3    H216555   4.610   3.371   2.809 -0.0382  1.5945 -0.2878
 5517TIP3   OH216556   6.040   4.711   0.773  0.0949 -0.2919  0.3546
 5517TIP3    H116557   5.978   4.781   0.793 -0.9608 -1.4793  1.4526
 5517TIP3    H216558   6.035   4.701   0.678  2.2196  2.8013 -0.2293
 5518TIP3   OH216559   1.302   3.352   2.238  0.2630 -0.1805 -0.0948
 5518TIP3    H116560   1.308   3.371   2.331  4.0197 -0.6732 -0.1032
 5518TIP3    H216561   1.338   3.430   2.195 -0.1189 -0.5153 -1.0703
 5519TIP3   OH216562   0.758   2.730   2.714  0.3845 -0.1725 -0.1424
 5519TIP3    H116563   0.812   2.696   2.786 -0.0652 -1.7736 -0.5215
 5519TIP3    H216564   0.699   2.658   2.692 -0.3000  0.7125 -1.3280
 5520TIP3   OH216565   3.857   4.554   0.160  0.3084  0.2828 -0.0471
 5520TIP3    H116566   3.843   4.496   0.235 -0.7578  0.4855 -0.0696
 5520TIP3    H216567   3.904   4.500   0.097 -0.8162 -0.6466 -0.1400
 5521TIP3   OH216568   5.925   0.555   3.923 -0.5904 -0.1198  0.6135
 5521TIP3    H116569   5.839   0.533   3.958 -0.3980 -0.4194  0.9056
 5521TIP3    H216570   5.939   0.492   3.853  0.0444 -1.0846  1.5781
 5522TIP3   OH216571   2.258   4.300   3.747 -0.3221  0.6055 -0.1151
 5522TIP3    H116572   2.319   4.327   3.815 -1.1893 -0.6298  1.2228
 5522TIP3    H216573   2.175   4.342   3.770 -1.0489 -1.1292  0.5886
 5523TIP3   OH216574   4.703   0.499   2.879 -0.1981  0.2938  0.1358
 5523TIP3    H116575   4.608   0.499   2.874 -0.3071 -0.5215  1.7547
 5523TIP3    H216576   4.729   0.588   2.856 -1.1308 -0.0979 -2.9979
 5524TIP3   OH216577   0.489   0.513   0.775  0.4155 -0.0636 -0.1054
 5524TIP3    H116578   0.505   0.603   0.746  3.2614  0.1161  1.6073
 5524TIP3    H216579   0.410   0.519   0.827  0.5114  1.4613 -0.0791
 5525TIP3   OH216580   3.682   0.741   0.597  0.3093 -0.0878  0.2839
 5525TIP3    H116581   3.703   0.766   0.687 -0.5020  1.7631 -0.0089
 5525TIP3    H216582   3.642   0.654   0.606  0.6560 -0.1393  1.6502
 5526TIP3   OH216583   0.395   2.345   1.991 -0.1452  0.6411  0.1051
 5526TIP3    H116584   0.336   2.284   2.034 -0.0462  0.9028  0.6196
 5526TIP3    H216585   0.410   2.414   2.056  1.7175 -0.0406  0.4831
 5527TIP3   OH216586   3.593   4.227   0.033  0.0446 -0.2255  0.3640
 5527TIP3    H116587   3.524   4.276   0.076 -0.9723 -1.6077  0.3660
 5527TIP3    H216588   3.603   4.148   0.085  1.2505 -0.3202  0.0369
 5528TIP3   OH216589   3.866  -0.016   4.701  0.2844  0.2890 -0.4265
 5528TIP3    H116590   3.839   0.075   4.685  0.2305  0.7306  1.8558
 5528TIP3    H216591   3.962  -0.012   4.700  0.3402  0.8374  1.5591
 5529TIP3   OH216592   6.135   4.177   1.063  0.1416 -0.1785  0.2391
 5529TIP3    H116593   6.148   4.205   0.973 -1.1364  0.4707  0.2346
 5529TIP3    H216594   6.082   4.097   1.057  1.8068 -1.3492  0.3566
 5530TIP3   OH216595   6.102   5.413   1.266  0.2372 -0.1667  0.5818
 5530TIP3    H116596   6.152   5.377   1.193  0.9819  1.9174  0.0111
 5530TIP3    H216597   6.014   5.377   1.253  0.3567  0.1118 -1.3295
 5531TIP3   OH216598   1.400   2.596   3.545 -0.1305 -0.3110 -0.6908
 5531TIP3    H116599   1.371   2.520   3.596 -0.8716  1.0833  1.1052
 5531TIP3    H216600   1.483   2.621   3.584 -0.0697  0.0029 -1.0210
 5532TIP3   OH216601   5.124   5.423   3.774  0.1412 -0.8482  0.1384
 5532TIP3    H116602   5.041   5.438   3.820 -0.6321  0.3239 -1.5229
 5532TIP3    H216603   5.191   5.432   3.841 -0.8245  2.4756  0.8330
 5533TIP3   OH216604   0.810   0.256   2.367 -0.0580  0.0269 -0.0433
 5533TIP3    H116605   0.878   0.240   2.301  0.2015  1.5671 -0.2001
 5533TIP3    H216606   0.745   0.309   2.321  0.4353  1.6841  1.0619
 5534TIP3   OH216607   4.046   1.631   2.383 -0.0878 -0.3964 -0.7939
 5534TIP3    H116608   4.043   1.566   2.313  0.7759 -1.2599 -0.0678
 5534TIP3    H216609   4.098   1.589   2.452 -0.2320  0.7426  0.0382
 5535TIP3   OH216610   2.514   0.457   3.178  0.1721 -0.0268  0.2404
 5535TIP3    H116611   2.464   0.503   3.110  1.1604  3.0473  1.4340
 5535TIP3    H216612   2.462   0.468   3.257  2.1532  2.4938  1.3303
 5536TIP3   OH216613   0.585   5.359   0.694  0.1655  0.8786  0.4075
 5536TIP3    H116614   0.674   5.370   0.660  0.8659  1.6940  2.3839
 5536TIP3    H216615   0.529   5.390   0.623  1.5336  2.2878 -0.1107
 5537TIP3   OH216616   5.322   0.145   2.136  0.0102  0.1238  0.0589
 5537TIP3    H116617   5.241   0.154   2.187 -1.1688  0.3220 -1.7592
 5537TIP3    H216618   5.369   0.073   2.178 -1.6773 -0.7912  0.4512
 5538TIP3   OH216619   6.152   3.136   1.328  0.1154  0.2295 -0.2780
 5538TIP3    H116620   6.062   3.156   1.301  0.7625  2.2847 -1.1598
 5538TIP3    H216621   6.150   3.043   1.351 -2.7648  0.7113  2.0324
 5539TIP3   OH216622   0.809   5.555   3.649  0.1485  0.3109  0.2502
 5539TIP3    H116623   0.793   5.564   3.555 -0.9374  0.3819  0.4216
 5539TIP3    H216624   0.848   5.638   3.675 -0.7202  0.7887  0.0749
 5540TIP3   OH216625   0.335   3.713   4.069  0.4503 -0.1037 -0.0243
 5540TIP3    H116626   0.368   3.720   3.980  1.0902 -0.2677  0.1920
 5540TIP3    H216627   0.273   3.785   4.078 -1.2989 -1.3860 -1.3081
 5541TIP3   OH216628   5.671   4.100   4.854  0.4017 -0.4722  0.0306
 5541TIP3    H116629   5.754   4.067   4.819  0.4251 -0.5846  0.1885
 5541TIP3    H216630   5.696   4.176   4.907  0.6500 -1.6669  1.7075
 5542TIP3   OH216631   2.411   5.432   1.306  0.3400 -0.0014  0.9931
 5542TIP3    H116632   2.403   5.398   1.216 -1.4651  1.5389  0.5317
 5542TIP3    H216633   2.358   5.372   1.359  0.6769 -0.3815  0.9126
 5543TIP3   OH216634   0.789   1.528   4.860  0.0369  0.4446 -0.2184
 5543TIP3    H116635   0.795   1.623   4.867 -0.5290  0.4989 -0.4613
 5543TIP3    H216636   0.701   1.506   4.890 -0.2581  0.1094 -1.2988
 5544TIP3   OH216637   2.425   1.642   1.938 -0.0554  0.2605  0.0873
 5544TIP3    H116638   2.446   1.602   1.854 -0.0568 -0.2273  0.3161
 5544TIP3    H216639   2.330   1.659   1.934 -0.0532  0.2446 -0.0123
 5545TIP3   OH216640   2.387   0.471   0.358 -0.3217  0.0317 -0.1662
 5545TIP3    H116641   2.479   0.483   0.382 -0.3691  0.7234 -0.2909
 5545TIP3    H216642   2.339   0.494   0.437 -0.3977  0.1062 -0.2328
 5546TIP3   OH216643   6.272   5.959   3.505 -0.9395 -0.2084  0.4172
 5546TIP3    H116644   6.325   5.887   3.540 -0.3362  0.0971  0.1567
 5546TIP3    H216645   6.219   5.920   3.436 -1.0395 -0.5173  0.6688
 5547TIP3   OH216646   4.358   5.847   4.914  0.2720  0.3947 -0.5099
 5547TIP3    H116647   4.403   5.764   4.901  0.4815  0.6291 -1.3262
 5547TIP3    H216648   4.348   5.855   5.009  2.8014  0.7888 -0.2234
 5548TIP3   OH216649   2.919   1.889   0.266 -0.1150 -0.2383  0.3408
 5548TIP3    H116650   2.858   1.918   0.198 -0.3839 -1.3124  0.1050
 5548TIP3    H216651   2.869   1.895   0.347  0.1168  0.7804  0.4161
 5549TIP3   OH216652   0.831   3.612   0.609 -0.3539  0.0448  0.1558
 5549TIP3    H116653   0.767   3.582   0.544 -0.0954 -1.1119  0.4112
 5549TIP3    H216654   0.884   3.676   0.562  0.1556 -1.1484 -0.9449
 5550TIP3   OH216655   3.873   0.878   1.311 -0.0228  0.7865 -0.2010
 5550TIP3    H116656   3.851   0.968   1.334 -0.2190  0.9324 -0.9645
 5550TIP3    H216657   3.855   0.828   1.391  0.7048  1.5148  0.4388
 5551TIP3   OH216658   0.227   3.330   2.857  0.0739  0.2592 -0.0426
 5551TIP3    H116659   0.254   3.419   2.834 -0.1969  0.1129 -0.9716
 5551TIP3    H216660   0.308   3.284   2.874  0.2559  0.5042 -0.2420
 5552TIP3   OH216661   2.863   1.366   2.582  0.0459 -0.7822  0.1874
 5552TIP3    H116662   2.893   1.287   2.537  0.1798 -0.4235 -0.3618
 5552TIP3    H216663   2.850   1.339   2.672  0.7878 -1.2594  0.1556
 5553TIP3   OH216664   3.513   5.840   2.787 -0.2225  0.3438 -0.4883
 5553TIP3    H116665   3.438   5.785   2.808  0.7987 -0.2796  1.8513
 5553TIP3    H216666   3.510   5.911   2.851  0.6412  0.8506 -0.9925
 5554TIP3   OH216667   2.899   4.722   0.916  0.1725  0.4946 -0.2874
 5554TIP3    H116668   2.993   4.708   0.930 -0.2725 -1.3675  1.1844
 5554TIP3    H216669   2.883   4.811   0.948  1.1688  0.2299  1.0345
 5555TIP3   OH216670   0.101   4.501   3.766  0.1848 -0.0360  0.0349
 5555TIP3    H116671   0.189   4.534   3.752 -0.4656  1.1714 -1.4968
 5555TIP3    H216672   0.077   4.459   3.683 -1.7719  2.3641 -0.7201
 5556TIP3   OH216673   0.780   1.064   2.559 -0.7210 -0.1083 -0.4237
 5556TIP3    H116674   0.704   1.098   2.512  0.6508  2.2536 -1.1442
 5556TIP3    H216675   0.843   1.136   2.556  1.6183 -2.0352 -0.0160
 5557TIP3   OH216676   2.610   0.182   3.131  0.5733  0.2305 -0.0578
 5557TIP3    H116677   2.590   0.275   3.132  0.0422  0.2030  2.9489
 5557TIP3    H216678   2.702   0.176   3.156  0.7744 -0.0286 -0.8581
 5558TIP3   OH216679   2.804   5.497   3.401  0.3230 -0.0777  0.1472
 5558TIP3    H116680   2.784   5.449   3.321 -0.5055 -0.3830  0.5232
 5558TIP3    H216681   2.741   5.464   3.465  2.0236 -1.0189  1.3995
 5559TIP3   OH216682   0.170   2.653   1.318  0.2892  0.5298  0.2225
 5559TIP3    H116683   0.204   2.681   1.403  1.1105 -0.6201  0.2846
 5559TIP3    H216684   0.144   2.735   1.275  0.0127  1.1457  1.4968
 5560TIP3   OH216685   2.242   1.628   3.466 -0.2008  0.3150  0.4362
 5560TIP3    H116686   2.225   1.715   3.502  0.9165  0.7357 -0.0145
 5560TIP3    H216687   2.316   1.595   3.517  0.1992  0.1544 -0.2399
 5561TIP3   OH216688   1.921   0.554   1.556 -0.5316  0.1510 -0.7326
 5561TIP3    H116689   2.008   0.531   1.588  0.1770  3.5198  0.0893
 5561TIP3    H216690   1.878   0.469   1.544  1.5122 -1.6075  2.5825
 5562TIP3   OH216691   3.960   4.400   1.915  0.0504  0.2739  0.1934
 5562TIP3    H116692   3.900   4.439   1.979 -0.0808  1.0904 -0.4166
 5562TIP3    H216693   4.047   4.429   1.944  0.2603 -1.4806  1.4858
 5563TIP3   OH216694   0.510   2.381   3.804  0.5370  0.4551 -0.5919
 5563TIP3    H116695   0.574   2.389   3.875 -0.6063  0.9632  0.4122
 5563TIP3    H216696   0.489   2.288   3.801 -0.5258  0.6261  0.7758
 5564TIP3   OH216697   1.981   4.804   3.812 -0.6880  0.1919 -0.0215
 5564TIP3    H116698   2.042   4.842   3.875 -0.2107  0.2377 -0.5022
 5564TIP3    H216699   1.918   4.756   3.866 -0.0140 -0.1634  0.4752
 5565TIP3   OH216700   4.475   2.154   0.522  0.2138 -0.1779 -0.1325
 5565TIP3    H116701   4.542   2.146   0.453  1.2110 -0.0274  0.7922
 5565TIP3    H216702   4.524   2.147   0.604 -1.0550 -1.2554  0.5795
 5566TIP3   OH216703   2.319   4.023   4.964 -0.1068 -0.7041  0.6980
 5566TIP3    H116704   2.319   4.025   4.868  0.2643 -1.7898  0.6595
 5566TIP3    H216705   2.279   4.106   4.990  0.1058 -0.2424 -0.3898
 5567TIP3   OH216706   4.774   3.107   2.416 -0.2183 -0.9882 -0.1173
 5567TIP3    H116707   4.761   3.143   2.503 -0.2388  0.9723 -0.8978
 5567TIP3    H216708   4.751   3.178   2.356 -0.5244 -2.3933 -1.7414
 5568TIP3   OH216709   2.821   5.970   4.450  0.2452 -0.2742 -0.2445
 5568TIP3    H116710   2.816   5.910   4.524  0.4334  1.6670  1.4061
 5568TIP3    H216711   2.910   5.960   4.417  1.0285  0.6989  1.4715
 5569TIP3   OH216712   1.352   1.530   3.686 -0.1280 -0.8612  0.7123
 5569TIP3    H116713   1.331   1.463   3.751 -2.1227 -1.7139 -0.7295
 5569TIP3    H216714   1.387   1.482   3.612  0.6438 -0.0585  0.5408
 5570TIP3   OH216715   1.490   3.477   3.305  0.5254  0.1789  0.5780
 5570TIP3    H116716   1.501   3.382   3.308  2.2906  0.3587  0.7895
 5570TIP3    H216717   1.498   3.505   3.396  0.5225  0.5782  0.4565
 5571TIP3   OH216718   6.126   1.124   4.718  0.5117  0.0458  0.4622
 5571TIP3    H116719   6.081   1.041   4.736  0.4778 -0.0325  0.0338
 5571TIP3    H216720   6.084   1.157   4.639  1.6897 -0.3777 -0.3562
 5572TIP3   OH216721  -0.015   4.332   1.507  0.0676  0.1484 -0.1297
 5572TIP3    H116722   0.026   4.264   1.560 -0.6789 -0.9721 -0.9346
 5572TIP3    H216723   0.013   4.414   1.547  0.8996 -0.6273  0.9413
 5573TIP3   OH216724   1.486   5.103   4.763  0.0767  0.1416  0.0105
 5573TIP3    H116725   1.574   5.127   4.733  0.3316  1.5341  1.7046
 5573TIP3    H216726   1.482   5.135   4.853 -2.3966  0.6804 -0.2343
 5574TIP3   OH216727   2.099   1.543   3.746  0.6579  0.1545  0.3207
 5574TIP3    H116728   2.048   1.597   3.806  0.8275  0.5116  0.1453
 5574TIP3    H216729   2.039   1.523   3.675  0.4262 -0.3515  0.6545
 5575TIP3   OH216730   4.419   3.193   4.508 -0.3049 -0.2774 -0.3605
 5575TIP3    H116731   4.357   3.259   4.478 -0.2212  0.3646  0.8212
 5575TIP3    H216732   4.365   3.128   4.554 -0.1878 -0.0190  0.1574
 5576TIP3   OH216733   5.180   4.986   1.349  0.0405 -0.0538 -0.5666
 5576TIP3    H116734   5.253   4.958   1.294 -0.7160 -0.0499 -1.6054
 5576TIP3    H216735   5.215   5.060   1.399  0.7047  0.0660 -1.1833
 5577TIP3   OH216736   0.643   1.389   0.809 -0.0142  0.4703  0.1761
 5577TIP3    H116737   0.673   1.349   0.890  1.5092  1.3875  0.0973
 5577TIP3    H216738   0.723   1.413   0.762 -0.8176 -0.8278 -2.0370
 5578TIP3   OH216739   3.091   0.482   4.316  0.6042  0.1653 -0.1893
 5578TIP3    H116740   3.042   0.402   4.303  0.7748  0.4535 -3.1964
 5578TIP3    H216741   3.025   0.550   4.329  0.3852 -0.1250  0.2116
 5579TIP3   OH216742   5.562   5.949   2.982  0.2759  0.1137 -0.5054
 5579TIP3    H116743   5.559   6.044   2.998  1.6422  0.5654 -2.5270
 5579TIP3    H216744   5.478   5.929   2.941 -0.3364  0.2833  0.6407
 5580TIP3   OH216745   5.512   1.333   4.793 -0.0637  0.2213  0.2086
 5580TIP3    H116746   5.500   1.422   4.759 -2.1505 -0.5297 -1.1922
 5580TIP3    H216747   5.498   1.277   4.717 -1.8764 -1.4157  1.6581
 5581TIP3   OH216748   5.839   4.481   2.006 -0.1680 -0.3101 -0.1206
 5581TIP3    H116749   5.834   4.421   2.081  1.5208 -1.5626 -0.9353
 5581TIP3    H216750   5.932   4.502   1.998 -0.5690  1.4288 -0.6693
 5582TIP3   OH216751   4.701   1.606   0.960  0.2823 -0.4532  0.4015
 5582TIP3    H116752   4.649   1.622   0.881 -0.2181  0.1646  0.8448
 5582TIP3    H216753   4.642   1.626   1.032  0.4941 -1.7084  0.9671
 5583TIP3   OH216754   2.469   1.861   5.051  0.0307  0.3397  0.3897
 5583TIP3    H116755   2.554   1.840   5.091  0.0322  0.0775  0.2482
 5583TIP3    H216756   2.475   1.954   5.031 -0.1904  0.6185  1.5375
 5584TIP3   OH216757   4.172   0.214   1.815  0.3626  0.3517 -0.2840
 5584TIP3    H116758   4.262   0.246   1.809 -0.0012  1.5824  0.3433
 5584TIP3    H216759   4.169   0.167   1.898  1.1582 -2.3402 -1.6551
 5585TIP3   OH216760   6.262   3.776   1.977  0.4562 -0.4899 -0.5448
 5585TIP3    H116761   6.179   3.730   1.974 -0.1933  0.6695 -1.3015
 5585TIP3    H216762   6.262   3.831   1.898  1.7032 -0.0724 -0.2874
 5586TIP3   OH216763   5.681   2.236   2.407  0.2384 -0.7098  0.5282
 5586TIP3    H116764   5.768   2.202   2.427  0.2975 -0.8949 -0.0232
 5586TIP3    H216765   5.624   2.159   2.407  0.1110 -0.6173  0.6726
 5587TIP3   OH216766   4.769   0.440   4.303 -0.0097 -0.4761  0.1947
 5587TIP3    H116767   4.797   0.453   4.393 -0.4167  3.1128 -0.0683
 5587TIP3    H216768   4.675   0.453   4.305  0.2719  2.3774 -1.0488
 5588TIP3   OH216769   5.603   5.647   2.412 -0.4147  0.5345  0.2620
 5588TIP3    H116770   5.522   5.642   2.461 -0.0793 -0.9945  0.7146
 5588TIP3    H216771   5.580   5.697   2.333 -1.8905 -0.2208  0.1838
 5589TIP3   OH216772   6.317   2.080   0.742 -0.2393  0.0974 -0.2452
 5589TIP3    H116773   6.277   1.998   0.772 -0.9903  0.1215 -1.1501
 5589TIP3    H216774   6.356   2.118   0.821 -1.0795 -0.4558  0.4526
 5590TIP3   OH216775   4.875   0.433   4.043  0.2671  0.4474  0.4302
 5590TIP3    H116776   4.853   0.447   4.134  0.8852 -0.8696  0.8188
 5590TIP3    H216777   4.792   0.415   4.000  0.1311 -0.7767  1.1346
 5591TIP3   OH216778   2.165   5.894   1.319  0.1868 -0.3317  0.3248
 5591TIP3    H116779   2.211   5.811   1.326 -1.1188 -1.1239 -0.1502
 5591TIP3    H216780   2.154   5.923   1.409  0.9458 -0.4831  0.4790
 5592TIP3   OH216781   5.852   3.724   4.821 -0.4332 -0.4400 -0.6473
 5592TIP3    H116782   5.831   3.793   4.883 -2.2515 -0.7467 -0.8609
 5592TIP3    H216783   5.803   3.746   4.742 -0.4897 -1.5953 -0.9606
 5593TIP3   OH216784   4.624   3.696   1.537  0.6123  0.1748  0.8663
 5593TIP3    H116785   4.532   3.671   1.531  1.3567 -3.3013  1.7267
 5593TIP3    H216786   4.641   3.705   1.631  1.0082  1.5174  0.6814
 5594TIP3   OH216787   5.782   5.311   0.450 -0.9312  0.5486  0.8794
 5594TIP3    H116788   5.863   5.265   0.428  1.4349  3.7007  2.1467
 5594TIP3    H216789   5.731   5.311   0.369  0.1551 -1.7908  0.1154
 5595TIP3   OH216790   4.426   5.443   4.321  0.0782  0.5242 -0.0010
 5595TIP3    H116791   4.518   5.452   4.342 -0.4814  2.3028  2.0653
 5595TIP3    H216792   4.405   5.521   4.269 -0.8419  1.7602  2.1117
 5596TIP3   OH216793   0.974   0.966   4.203 -0.5981 -0.3595  0.3503
 5596TIP3    H116794   0.961   0.971   4.109 -0.4887 -0.6242  0.3216
 5596TIP3    H216795   0.886   0.953   4.239 -0.8644  1.3501  0.4029
 5597TIP3   OH216796   5.789   2.262   1.331  0.2187  0.2129  0.7937
 5597TIP3    H116797   5.760   2.250   1.421  1.0351 -0.5002  0.9785
 5597TIP3    H216798   5.740   2.197   1.281 -1.7237  1.9208  0.3603
 5598TIP3   OH216799   4.046   4.588   2.389  0.3008  0.3678 -0.3053
 5598TIP3    H116800   4.087   4.502   2.388 -0.0136  0.1574  1.3079
 5598TIP3    H216801   4.106   4.644   2.341  0.8715 -0.5948 -0.7525
 5599TIP3   OH216802   4.165   4.692   3.779 -0.3645  0.0024  0.3694
 5599TIP3    H116803   4.137   4.743   3.704 -0.0546 -0.3023  0.0416
 5599TIP3    H216804   4.211   4.755   3.835 -0.8118  0.2808  0.4229
 5600TIP3   OH216805   1.704   1.803   0.436 -0.0517  0.1678  1.0011
 5600TIP3    H116806   1.732   1.839   0.352  0.9030  1.6920  1.9182
 5600TIP3    H216807   1.764   1.730   0.452 -0.9823 -0.8867 -0.1420
 5601TIP3   OH216808   2.409   1.337   0.350 -0.7000 -0.7723 -0.1643
 5601TIP3    H116809   2.437   1.414   0.300  1.2420 -1.9683 -1.0011
 5601TIP3    H216810   2.338   1.299   0.298 -0.7624 -0.3038 -0.4236
 5602TIP3   OH216811   6.314   1.615   3.704 -0.5012  0.1150  0.0079
 5602TIP3    H116812   6.257   1.692   3.713 -0.7675  0.1012 -1.3977
 5602TIP3    H216813   6.271   1.561   3.638  0.2120 -0.7784  0.2522
 5603TIP3   OH216814   3.577   0.285   2.232 -0.2528 -0.0294 -0.1721
 5603TIP3    H116815   3.498   0.262   2.182  0.0741  1.6858 -1.5533
 5603TIP3    H216816   3.646   0.229   2.196 -0.8836 -1.9851  1.4573
 5604TIP3   OH216817   5.657   1.422   0.617  0.4498  0.2728 -0.5132
 5604TIP3    H116818   5.631   1.491   0.678  0.6985  0.2019 -0.3254
 5604TIP3    H216819   5.705   1.468   0.548  0.5340  0.3001 -0.4371
 5605TIP3   OH216820   4.097   3.343   1.984  0.1703 -0.1573  0.2031
 5605TIP3    H116821   4.060   3.389   1.908 -0.3785 -0.6090  0.1900
 5605TIP3    H216822   4.072   3.398   2.059 -0.1481 -0.2191  0.1475
 5606TIP3   OH216823   5.808   3.137   4.362  0.8002  0.3778  0.4282
 5606TIP3    H116824   5.791   3.231   4.372  0.0114  0.2205  0.6127
 5606TIP3    H216825   5.901   3.132   4.342  1.0411  1.1371  1.2989
 5607TIP3   OH216826   0.193   4.260   4.412  0.3247 -0.4447 -0.1927
 5607TIP3    H116827   0.236   4.284   4.494  0.8292 -1.3198 -0.1896
 5607TIP3    H216828   0.210   4.166   4.402 -1.4422 -0.8088 -0.2741
 5608TIP3   OH216829   6.317   1.204   2.120 -0.3544  0.2782  0.9154
 5608TIP3    H116830   6.345   1.251   2.041  0.2961  0.4385  1.2313
 5608TIP3    H216831   6.296   1.116   2.088 -2.5511  1.0218  0.1571
 5609TIP3   OH216832   2.729   2.053   0.527 -0.2885  0.5377  0.0607
 5609TIP3    H116833   2.696   2.079   0.613  0.2354 -1.1278  0.8089
 5609TIP3    H216834   2.813   2.011   0.545  0.1872  0.8368 -1.3504
 5610TIP3   OH216835   3.952   1.421   4.167 -0.0433  0.5478 -0.3368
 5610TIP3    H116836   4.041   1.408   4.136 -0.0964  1.8176 -1.0857
 5610TIP3    H216837   3.963   1.464   4.252  0.0625  0.6107 -0.3817
 5611TIP3   OH216838   2.618   1.366   3.336  0.6383 -0.1945 -0.1318
 5611TIP3    H116839   2.536   1.323   3.360  0.8826  0.1030  1.3247
 5611TIP3    H216840   2.590   1.450   3.298  0.2777  0.4638  1.5270
 5612TIP3   OH216841   4.579   0.082   2.890 -0.3896  0.3164 -0.0149
 5612TIP3    H116842   4.487   0.055   2.894 -0.7137  1.1633 -0.9664
 5612TIP3    H216843   4.624   0.027   2.954 -1.2729 -1.2551 -0.6883
 5613TIP3   OH216844   1.888   4.224   2.851 -0.2653 -0.2750  0.1321
 5613TIP3    H116845   1.876   4.242   2.757 -1.3025 -1.6447 -0.0419
 5613TIP3    H216846   1.801   4.238   2.889 -0.2390 -1.2573  0.5950
 5614TIP3   OH216847   1.404   4.466   4.291  0.0355 -0.1248  0.1915
 5614TIP3    H116848   1.456   4.523   4.348 -0.6628  1.9628 -1.1662
 5614TIP3    H216849   1.322   4.513   4.278 -1.1252 -2.0758  0.0416
 5615TIP3   OH216850   4.800   4.639   4.073  0.0119 -0.2999  0.3404
 5615TIP3    H116851   4.737   4.596   4.131  0.7984 -0.9016  0.7748
 5615TIP3    H216852   4.882   4.640   4.123  0.4073  0.2656 -0.2993
 5616TIP3   OH216853   5.975   2.001   0.006 -0.1024 -0.1575  0.0582
 5616TIP3    H116854   5.919   1.987   0.083 -0.3115 -0.5264 -0.1611
 5616TIP3    H216855   5.924   1.967  -0.067  0.4972 -0.6965 -0.1122
 5617TIP3   OH216856   0.721   3.906   1.623  0.1025  0.0209  0.5093
 5617TIP3    H116857   0.703   3.998   1.605  0.1897  0.0318  0.4755
 5617TIP3    H216858   0.672   3.858   1.556  1.0724  0.0922 -0.2749
 5618TIP3   OH216859   3.642   2.937   4.136  0.4226  0.3522  0.4247
 5618TIP3    H116860   3.732   2.918   4.109  1.0812  1.3881  1.7511
 5618TIP3    H216861   3.639   3.033   4.143 -0.9765  0.3770 -0.2146
 5619TIP3   OH216862   1.097   5.608   2.176 -0.1047 -0.0772  0.1766
 5619TIP3    H116863   1.136   5.524   2.196 -1.4269 -0.5252  1.0256
 5619TIP3    H216864   1.078   5.647   2.262 -1.8198 -0.0517 -0.1801
 5620TIP3   OH216865   6.258   3.367   1.425  0.1163 -0.4025 -0.1712
 5620TIP3    H116866   6.328   3.349   1.488 -0.9180 -0.1887  1.0837
 5620TIP3    H216867   6.231   3.281   1.393 -0.3900 -0.6536  0.8754
 5621TIP3   OH216868   0.312   1.849   4.735  0.3415 -0.8807 -0.2129
 5621TIP3    H116869   0.396   1.896   4.735 -0.7882  1.2562 -0.0291
 5621TIP3    H216870   0.273   1.870   4.650 -1.6348  1.4117  1.1272
 5622TIP3   OH216871   5.366   0.888   0.203  0.2881  0.1442  0.4369
 5622TIP3    H116872   5.360   0.795   0.225 -0.2971  0.2176  0.5974
 5622TIP3    H216873   5.317   0.897   0.122  0.1321  0.3543  0.5529
 5623TIP3   OH216874   5.965   4.682   2.719 -0.2544 -0.0271 -0.8518
 5623TIP3    H116875   5.918   4.607   2.756 -0.2691  0.6422  0.5506
 5623TIP3    H216876   5.899   4.752   2.715  0.4557  0.7840  0.7058
 5624TIP3   OH216877   5.224   2.769   3.724 -0.5855  0.1012 -0.4990
 5624TIP3    H116878   5.259   2.817   3.649  2.0067  1.3875  1.3864
 5624TIP3    H216879   5.281   2.692   3.732  0.3764  0.9243  1.1519
 5625TIP3   OH216880   2.822   1.579   1.870  0.0318  0.2289 -0.5696
 5625TIP3    H116881   2.771   1.498   1.878 -1.6785  1.3793  1.0618
 5625TIP3    H216882   2.900   1.563   1.924 -1.3494  0.3674  1.6120
 5626TIP3   OH216883   2.953   3.482   3.957  0.3123 -0.7500 -0.0333
 5626TIP3    H116884   2.929   3.445   4.042  0.6389 -0.1782  0.3208
 5626TIP3    H216885   3.049   3.483   3.957  0.3126 -0.4271 -0.2606
 5627TIP3   OH216886   4.541   1.211   2.570  0.1845  0.4294 -0.5320
 5627TIP3    H116887   4.473   1.153   2.605 -1.3386  2.3642 -0.0885
 5627TIP3    H216888   4.621   1.182   2.612 -0.8761 -0.0861  1.2583
 5628TIP3   OH216889   3.689   1.280   1.801 -0.3175  0.5621  0.0314
 5628TIP3    H116890   3.702   1.249   1.890  1.4757  2.7044  0.6109
 5628TIP3    H216891   3.641   1.363   1.811 -0.6689  0.4998 -1.0335
 5629TIP3   OH216892   1.140   1.258   5.107 -0.0860  0.3569  0.3121
 5629TIP3    H116893   1.200   1.194   5.069 -0.1531 -1.0041  2.3313
 5629TIP3    H216894   1.194   1.309   5.168 -0.2294  1.6666 -0.6026
 5630TIP3   OH216895   2.650   1.015   2.742 -0.3967  0.5350 -0.1446
 5630TIP3    H116896   2.630   0.986   2.831  0.7888  0.4828  0.1170
 5630TIP3    H216897   2.564   1.022   2.700 -0.8777 -1.3183  0.4110
 5631TIP3   OH216898   1.798   2.824   3.850 -0.2518  0.2832 -0.3338
 5631TIP3    H116899   1.763   2.912   3.836 -0.5013  0.1866 -0.3071
 5631TIP3    H216900   1.844   2.830   3.934  2.9062  1.4017 -1.9616
 5632TIP3   OH216901   4.459   2.268   4.986  0.6526  0.1758 -0.0547
 5632TIP3    H116902   4.381   2.214   4.977  1.4913 -1.1309  0.2331
 5632TIP3    H216903   4.470   2.280   5.080  0.6469  0.6136 -0.1045
 5633TIP3   OH216904   2.208   1.238   0.130  0.3065 -0.2985 -0.0612
 5633TIP3    H116905   2.212   1.150   0.168 -0.4432 -0.5626 -0.5635
 5633TIP3    H216906   2.239   1.227   0.040  0.7636  0.0652  0.0496
 5634TIP3   OH216907   5.273   5.715   0.133  0.9315  0.3351 -0.0241
 5634TIP3    H116908   5.242   5.805   0.123 -3.1118 -0.9170 -0.5210
 5634TIP3    H216909   5.250   5.692   0.223  0.4202 -0.6913 -0.4059
 5635TIP3   OH216910   0.381   1.931   2.257 -0.1881  0.0726 -0.9775
 5635TIP3    H116911   0.457   1.933   2.316 -0.7127  2.8098 -0.2738
 5635TIP3    H216912   0.414   1.889   2.178  1.3176 -1.1697  0.2233
 5636TIP3   OH216913   1.488   4.967   3.759  0.4800  0.5719 -0.0639
 5636TIP3    H116914   1.466   4.930   3.674  2.5570 -0.7795 -0.0856
 5636TIP3    H216915   1.583   4.959   3.765  0.4661  1.3163  2.0825
 5637TIP3   OH216916   4.089   0.200   1.349 -0.2845  0.1533 -0.0722
 5637TIP3    H116917   4.126   0.189   1.262  0.1444  2.7834 -0.3145
 5637TIP3    H216918   4.164   0.212   1.406 -0.5792  2.1540 -0.0170
 5638TIP3   OH216919   1.094   3.519   1.450  0.0546 -0.2853  0.2491
 5638TIP3    H116920   1.184   3.486   1.451  0.5616  0.9810 -0.5407
 5638TIP3    H216921   1.044   3.452   1.403  0.8720 -0.3577 -0.5473
 5639TIP3   OH216922   5.945   4.922   4.426 -1.0257  0.0743  0.5563
 5639TIP3    H116923   5.887   4.853   4.395 -2.0300  0.9979  0.3008
 5639TIP3    H216924   5.885   4.988   4.462  0.0050 -0.1340  2.7826
 5640TIP3   OH216925   5.609   2.879   2.730 -0.1454 -0.8954  0.2009
 5640TIP3    H116926   5.606   2.786   2.705 -1.4036 -0.8246  0.0220
 5640TIP3    H216927   5.521   2.897   2.764  0.1199  0.2113  0.3276
 5641TIP3   OH216928   5.204   5.896   1.426  0.4583 -0.0130 -0.4283
 5641TIP3    H116929   5.166   5.973   1.466 -0.3881 -0.9145  0.5328
 5641TIP3    H216930   5.201   5.914   1.332 -0.2866  0.8656 -0.2466
 5642TIP3   OH216931   1.605   3.871   4.935 -0.2273  0.1237 -0.2293
 5642TIP3    H116932   1.627   3.956   4.974 -1.4716  0.4369 -0.1747
 5642TIP3    H216933   1.583   3.816   5.009  1.0488 -0.4142 -0.2264
 5643TIP3   OH216934   0.327   2.215   5.139 -0.1006 -0.2816  0.1630
 5643TIP3    H116935   0.346   2.139   5.085  1.6480  0.0108  0.3051
 5643TIP3    H216936   0.277   2.273   5.082  0.2705 -0.7017 -0.5972
 5644TIP3   OH216937   5.095   0.702   4.350  0.8326  0.4968  0.2167
 5644TIP3    H116938   5.017   0.647   4.358  1.6132 -1.0269 -1.7936
 5644TIP3    H216939   5.066   0.789   4.378 -1.4631 -0.1334 -0.0273
 5645TIP3   OH216940   5.964   1.453   3.191  0.4272  0.7212  0.2984
 5645TIP3    H116941   6.017   1.405   3.254  0.7743  0.0878 -0.4650
 5645TIP3    H216942   5.875   1.421   3.205  0.6586 -0.1951 -0.2198
 5646TIP3   OH216943   2.096   0.349   2.542 -0.1628 -0.2401 -0.4633
 5646TIP3    H116944   2.098   0.254   2.538  1.5834 -0.2961  0.7091
 5646TIP3    H216945   2.143   0.377   2.464  2.4673 -0.4857  0.9169
 5647TIP3   OH216946   6.208   4.717   4.718  0.3238 -0.1925 -0.1125
 5647TIP3    H116947   6.154   4.793   4.742  1.5538  0.8505 -0.5316
 5647TIP3    H216948   6.291   4.755   4.688  1.6934 -1.7805  1.4790
 5648TIP3   OH216949   0.303   1.494   3.707 -0.2116  0.3494  0.5374
 5648TIP3    H116950   0.268   1.429   3.768 -1.4193  0.2526 -0.2130
 5648TIP3    H216951   0.231   1.555   3.693  0.8646  1.7995  1.1167
 5649TIP3   OH216952   4.202   0.357   0.677  0.2534  0.0298  0.1620
 5649TIP3    H116953   4.124   0.301   0.669  0.8297 -0.6977 -0.4427
 5649TIP3    H216954   4.244   0.352   0.591  0.4952  1.1509  0.1932
 5650TIP3   OH216955   5.851   0.396   4.581  0.4774 -0.0240 -0.2324
 5650TIP3    H116956   5.828   0.343   4.504 -2.0883 -1.5532  1.4527
 5650TIP3    H216957   5.785   0.465   4.584 -0.2472 -0.7429  1.2710
 5651TIP3   OH216958   3.221   2.715   3.492 -0.0149 -0.1637 -0.5574
 5651TIP3    H116959   3.267   2.753   3.417  0.7265 -2.2394 -1.2083
 5651TIP3    H216960   3.142   2.677   3.455 -0.7267  0.6404  0.0820
 5652TIP3   OH216961   0.231   5.490   4.313 -0.5514 -0.1346  0.3629
 5652TIP3    H116962   0.325   5.473   4.319 -0.6373 -0.7069  0.1879
 5652TIP3    H216963   0.222   5.585   4.324 -0.0119 -0.1541  1.0313
 5653TIP3   OH216964   4.342   5.148   3.022  0.6198  0.1296  0.4376
 5653TIP3    H116965   4.394   5.222   3.053  0.2743  1.1850 -1.4182
 5653TIP3    H216966   4.407   5.081   3.001  0.9213 -0.2500  2.3668
 5654TIP3   OH216967   6.009   4.741   3.952 -0.0970  0.6952 -0.3969
 5654TIP3    H116968   5.984   4.742   3.859 -2.0027 -1.0121  0.0361
 5654TIP3    H216969   5.947   4.682   3.993  0.1332  2.0982  2.1670
 5655TIP3   OH216970   1.192   4.645   0.455 -0.5773 -0.4156  0.1839
 5655TIP3    H116971   1.206   4.676   0.366 -0.1375 -0.6041  0.1896
 5655TIP3    H216972   1.110   4.596   0.451 -1.3261  0.7857  0.1840
 5656TIP3   OH216973   5.215   4.391   2.904  0.0870 -0.5200  0.1428
 5656TIP3    H116974   5.232   4.314   2.850 -0.3432 -0.3123 -0.2907
 5656TIP3    H216975   5.195   4.354   2.991  1.2371 -0.8283  0.3007
 5657TIP3   OH216976   1.804   5.688   4.332  0.8908  0.7355 -0.1770
 5657TIP3    H116977   1.872   5.755   4.327 -1.0310  2.7847 -0.3031
 5657TIP3    H216978   1.726   5.730   4.294  0.0210 -2.1846 -1.9649
 5658TIP3   OH216979   3.464   1.274   3.582 -0.7783 -0.6503 -0.2818
 5658TIP3    H116980   3.534   1.289   3.519 -0.5334 -1.9044 -0.3271
 5658TIP3    H216981   3.502   1.298   3.666 -0.8800  0.3607 -0.5165
 5659TIP3   OH216982   3.012   2.438   1.525 -0.5548  0.0053 -0.0554
 5659TIP3    H116983   3.063   2.402   1.597  0.1551 -1.8823 -1.4043
 5659TIP3    H216984   3.035   2.531   1.522  1.0644 -0.3417  0.7809
 5660TIP3   OH216985   3.321   3.087   4.529  0.2290 -0.4096  0.3781
 5660TIP3    H116986   3.293   3.000   4.501  0.5854 -0.5270  0.3700
 5660TIP3    H216987   3.358   3.073   4.617  2.1949 -0.6571 -0.4264
 5661TIP3   OH216988   1.764   5.071   4.120  0.0931  0.2013  0.2817
 5661TIP3    H116989   1.754   5.001   4.185 -0.7579 -0.6156 -0.6865
 5661TIP3    H216990   1.681   5.118   4.123 -0.8585 -1.2072 -1.7075
 5662TIP3   OH216991   3.813   2.419   3.596  0.0532 -0.5621  0.0388
 5662TIP3    H116992   3.839   2.362   3.524  1.3168 -0.2039  0.1870
 5662TIP3    H216993   3.850   2.505   3.575  0.2742 -0.3995  1.0033
 5663TIP3   OH216994   1.072   2.626   2.269 -0.0794 -0.5650  0.2174
 5663TIP3    H116995   1.112   2.570   2.336  1.5785  0.0808 -0.1871
 5663TIP3    H216996   1.070   2.713   2.308  1.3903 -0.0733 -0.7077
 5664TIP3   OH216997   1.064   0.795   5.012 -0.1573 -0.3858  0.2543
 5664TIP3    H116998   1.120   0.857   4.966  1.0475 -0.9143  0.9384
 5664TIP3    H216999   1.019   0.848   5.078 -0.9972  0.1592 -0.7287
 5665TIP3   OH217000   4.341   1.075   5.138 -0.1245 -0.7493 -0.4257
 5665TIP3    H117001   4.258   1.099   5.097  0.2024  1.1130 -0.0618
 5665TIP3    H217002   4.383   1.017   5.075 -0.6704  0.1535 -1.6529
 5666TIP3   OH217003   0.455   0.871   0.523  0.0450  0.1838 -0.3336
 5666TIP3    H117004   0.494   0.852   0.608  0.3684 -0.5008 -0.6356
 5666TIP3    H217005   0.417   0.788   0.494 -2.0197  0.8863  0.1379
 5667TIP3   OH217006   2.058   3.689   2.362  0.0042  0.2942  0.1050
 5667TIP3    H117007   2.019   3.674   2.448 -0.7510 -0.2571 -0.3148
 5667TIP3    H217008   2.027   3.777   2.337 -1.1482 -0.2008 -0.2927
 5668TIP3   OH217009   3.072   2.967   0.820  0.2256 -0.6104 -0.2299
 5668TIP3    H117010   3.153   2.925   0.790  0.7011  0.7925 -1.0099
 5668TIP3    H217011   3.064   3.045   0.765 -1.5887 -0.6391 -0.0617
 5669TIP3   OH217012   2.568   3.395   1.370 -0.4676 -0.3330 -0.1198
 5669TIP3    H117013   2.499   3.397   1.436  1.0794 -0.9136  1.5964
 5669TIP3    H217014   2.547   3.319   1.316 -0.7218 -1.0486  0.9411
 5670TIP3   OH217015   2.162   3.847   3.129 -0.4741  0.4256  0.2818
 5670TIP3    H117016   2.187   3.842   3.037  1.1930  0.3814  0.7144
 5670TIP3    H217017   2.175   3.758   3.162  1.8323  1.0696  1.2454
 5671TIP3   OH217018   5.066   2.713   4.601 -0.3344 -0.0098  0.0542
 5671TIP3    H117019   5.102   2.691   4.515  1.8891  1.2596  0.5953
 5671TIP3    H217020   5.064   2.808   4.603 -1.4003 -0.0281  1.0325
 5672TIP3   OH217021   4.892   1.098   4.676  0.0466  0.2168  0.1892
 5672TIP3    H117022   4.840   1.177   4.690  0.2420  0.1384  1.5051
 5672TIP3    H217023   4.881   1.048   4.757  0.7844 -0.6096 -0.2064
 5673TIP3   OH217024   3.987   4.493   0.590  0.1605  0.0322  0.2102
 5673TIP3    H117025   3.915   4.533   0.541 -0.3154 -0.2114  0.7012
 5673TIP3    H217026   4.058   4.486   0.526 -0.0230  0.8912 -0.1033
 5674TIP3   OH217027   2.947   0.623   4.813 -0.2085  0.7089  0.2116
 5674TIP3    H117028   2.964   0.573   4.733  2.7357  0.8683  0.6334
 5674TIP3    H217029   2.856   0.604   4.834  0.0557 -2.4990 -1.0222
 5675TIP3   OH217030   5.936   2.736   3.153  0.0816  0.2201 -0.2850
 5675TIP3    H117031   5.965   2.779   3.233 -1.9945 -0.6564  1.0244
 5675TIP3    H217032   5.861   2.788   3.124 -2.1821 -2.0415  1.0761
 5676TIP3   OH217033   1.687   5.184   2.826  1.1410  0.0739 -0.0071
 5676TIP3    H117034   1.744   5.125   2.875  0.2321 -1.1707 -0.3981
 5676TIP3    H217035   1.630   5.126   2.775  0.4411  1.2988 -0.6694
 5677TIP3   OH217036   3.812   2.854   0.907  0.3051 -0.5231  0.1650
 5677TIP3    H117037   3.790   2.941   0.942  0.4619 -1.2747  2.2404
 5677TIP3    H217038   3.886   2.825   0.960  2.3815 -0.6601 -2.5955
 5678TIP3   OH217039   3.502   1.174   5.181  0.0019 -0.2234  0.2047
 5678TIP3    H117040   3.456   1.250   5.145  0.0585 -0.3041 -0.0424
 5678TIP3    H217041   3.440   1.102   5.170 -0.1029 -0.1924  0.5569
 5679TIP3   OH217042   2.444   4.286   3.327  0.7581 -0.0965 -0.0650
 5679TIP3    H117043   2.514   4.310   3.266  0.6985 -1.2800 -0.6168
 5679TIP3    H217044   2.478   4.209   3.373 -0.1383 -0.6306 -0.2748
 5680TIP3   OH217045   2.273   3.482   3.597 -0.0422 -0.0132 -0.3740
 5680TIP3    H117046   2.259   3.499   3.690 -0.6956 -2.1108 -0.0352
 5680TIP3    H217047   2.191   3.508   3.554 -0.2963 -0.4394 -0.1488
 5681TIP3   OH217048   5.826   1.015   0.657  0.3762 -0.5815  0.0911
 5681TIP3    H117049   5.792   0.944   0.603  2.3201  0.7174 -3.1921
 5681TIP3    H217050   5.826   1.091   0.598  2.3901  1.0647  2.0316
 5682TIP3   OH217051   1.996   0.340   0.300 -0.2723 -0.0106  0.2861
 5682TIP3    H117052   2.020   0.349   0.208 -1.1623 -0.0055  0.0481
 5682TIP3    H217053   2.013   0.427   0.338  0.5579 -0.1493  0.2472
 5683TIP3   OH217054   0.562   0.657  -0.004  0.0108  0.8644 -0.7100
 5683TIP3    H117055   0.634   0.713  -0.033  0.6210  0.7602  0.5554
 5683TIP3    H217056   0.592   0.620   0.078 -1.8857  1.6163  0.3987
 5684TIP3   OH217057   4.719   1.003   2.395  0.0037 -0.3333 -0.1552
 5684TIP3    H117058   4.771   0.923   2.402 -1.5532 -1.3814 -0.0822
 5684TIP3    H217059   4.703   1.029   2.486 -1.3724 -1.2327 -0.1216
 5685TIP3   OH217060   5.220   4.736   4.718  0.1883  0.0431  0.2097
 5685TIP3    H117061   5.222   4.674   4.791 -0.7039  0.4484  0.5930
 5685TIP3    H217062   5.305   4.726   4.675 -0.0800 -1.7401  0.0165
 5686TIP3   OH217063   5.895   1.283   2.606 -0.6009 -0.7752 -0.0024
 5686TIP3    H117064   5.978   1.262   2.563 -0.2872  0.8629 -0.2700
 5686TIP3    H217065   5.835   1.214   2.578  0.0618 -0.7020 -1.7064
 5687TIP3   OH217066   4.093   5.145   0.830 -0.3221 -0.1126 -0.5743
 5687TIP3    H117067   4.061   5.109   0.747 -1.7785  1.9112 -0.9638
 5687TIP3    H217068   4.155   5.212   0.803  0.6334 -0.7206  0.0670
 5688TIP3   OH217069   3.552   3.526   0.462 -0.2401 -0.0969  0.3679
 5688TIP3    H117070   3.540   3.535   0.368 -0.4796  1.4770  0.5154
 5688TIP3    H217071   3.525   3.436   0.482  1.1417 -0.9131 -1.2419
 5689TIP3   OH217072   3.246   3.839   3.435 -0.5644  0.7750 -0.2572
 5689TIP3    H117073   3.218   3.748   3.445 -1.4190  1.0382 -0.1658
 5689TIP3    H217074   3.167   3.890   3.451  0.2425  1.6061  1.3316
 5690TIP3   OH217075   0.865   5.374   4.056  0.1457 -0.3170 -0.0690
 5690TIP3    H117076   0.862   5.469   4.044  1.7685  0.1815  2.6385
 5690TIP3    H217077   0.861   5.338   3.968 -1.7837  2.1701 -1.1206
 5691TIP3   OH217078   3.352   2.739   2.958 -0.9610 -0.1162 -0.0332
 5691TIP3    H117079   3.286   2.747   3.028 -0.5109  1.9008  0.2515
 5691TIP3    H217080   3.423   2.689   2.998 -0.3189  1.7677  1.3585
 5692TIP3   OH217081   6.282   1.214   0.155 -0.2351 -0.0897 -0.3922
 5692TIP3    H117082   6.302   1.299   0.194 -1.8975  0.8311 -1.4441
 5692TIP3    H217083   6.271   1.156   0.230  0.9105  0.6137  0.3460
 5693TIP3   OH217084   1.117   4.786   2.054  0.2887  0.0204 -0.0215
 5693TIP3    H117085   1.178   4.844   2.009 -0.6745 -0.4558 -2.0482
 5693TIP3    H217086   1.122   4.813   2.146  0.6005  2.6459 -0.7296
 5694TIP3   OH217087   5.480   5.135   0.445 -0.1104  0.1032 -0.6935
 5694TIP3    H117088   5.507   5.058   0.396 -0.6093  0.2769 -1.2486
 5694TIP3    H217089   5.470   5.104   0.535 -0.7406 -0.5866 -0.9943
 5695TIP3   OH217090   5.146   4.494   1.287  0.6442  0.3645  0.1916
 5695TIP3    H117091   5.184   4.414   1.251  0.2865  0.0215  0.5727
 5695TIP3    H217092   5.161   4.560   1.219  1.1757  0.0423 -0.0138
 5696TIP3   OH217093   2.072   4.204   0.980 -0.5805 -0.0211  0.2745
 5696TIP3    H117094   2.054   4.268   0.911 -0.3093  0.1548  0.3649
 5696TIP3    H217095   2.009   4.134   0.964 -0.0819 -0.3006 -0.5606
 5697TIP3   OH217096   3.477   0.691   4.846  0.2193  0.5049 -0.3550
 5697TIP3    H117097   3.430   0.773   4.863 -0.7229 -0.0122 -0.3931
 5697TIP3    H217098   3.450   0.667   4.757  0.1681 -0.0493 -0.1940
 5698TIP3   OH217099   2.101   1.213   4.136 -0.3749 -0.2074 -0.2477
 5698TIP3    H117100   2.108   1.210   4.232 -0.5204 -1.3585 -0.2626
 5698TIP3    H217101   2.183   1.254   4.107 -0.2474 -0.0230  0.3623
 5699TIP3   OH217102   0.039   1.202   3.270 -0.0282  0.2323  0.1540
 5699TIP3    H117103  -0.030   1.162   3.217 -0.5226  1.1826  0.0601
 5699TIP3    H217104   0.019   1.296   3.268  1.8117  0.6435 -0.6725
 5700TIP3   OH217105   5.874   5.557   0.591  0.8624 -0.1323 -0.0107
 5700TIP3    H117106   5.942   5.545   0.656  0.4907  0.3610  0.4811
 5700TIP3    H217107   5.858   5.469   0.556  1.9586 -0.2028 -0.3591
 5701TIP3   OH217108   4.211   1.026   1.424 -0.4809  0.0453 -0.1553
 5701TIP3    H117109   4.304   1.018   1.445 -0.2155  0.8353 -0.9760
 5701TIP3    H217110   4.180   0.935   1.418  0.3282 -0.2265 -0.3012
 5702TIP3   OH217111   1.432   4.082   1.768 -0.3786 -0.1844 -0.3191
 5702TIP3    H117112   1.490   4.110   1.697 -0.5340 -1.3571 -0.9319
 5702TIP3    H217113   1.361   4.146   1.767  0.4456  0.7723 -0.1228
 5703TIP3   OH217114   3.065   4.895   3.786 -0.2371 -0.0383 -0.2646
 5703TIP3    H117115   3.018   4.976   3.767  0.5454  1.0718  2.1112
 5703TIP3    H217116   3.132   4.890   3.718  0.0887  1.6802 -0.1142
 5704TIP3   OH217117   1.337   4.165   0.064 -0.6937  0.3046 -0.1551
 5704TIP3    H117118   1.427   4.137   0.082 -0.5776  0.2785 -0.7796
 5704TIP3    H217119   1.287   4.129   0.137 -0.5436 -1.5213 -0.8881
 5705TIP3   OH217120   4.214   5.503   3.474 -0.2239  0.4653  0.2874
 5705TIP3    H117121   4.119   5.487   3.472 -0.3034  0.7957  1.1594
 5705TIP3    H217122   4.224   5.588   3.517  0.3623  1.5149 -1.8047
 5706TIP3   OH217123   1.625   3.586   4.440  0.1330 -0.2063  0.1273
 5706TIP3    H117124   1.619   3.498   4.475 -0.7801  0.1752  0.9936
 5706TIP3    H217125   1.696   3.627   4.489 -1.0071  0.2606  1.4565
 5707TIP3   OH217126   1.377   0.419   3.281  0.6296  0.2257  0.3903
 5707TIP3    H117127   1.421   0.491   3.236 -0.3363  1.1512  0.8559
 5707TIP3    H217128   1.350   0.457   3.365 -0.6274 -0.4237  0.3016
 5708TIP3   OH217129   1.554   2.485   0.429 -0.4540 -0.8632 -0.5572
 5708TIP3    H117130   1.616   2.461   0.360 -0.6641 -0.8342 -0.7584
 5708TIP3    H217131   1.602   2.549   0.483  0.0942 -1.7069 -0.0307
 5709TIP3   OH217132   3.763   1.714   2.453 -0.5575  0.1367  0.5426
 5709TIP3    H117133   3.839   1.658   2.437 -0.6682 -0.0622  0.7037
 5709TIP3    H217134   3.790   1.801   2.422 -0.4148 -0.0219  0.2181
 5710TIP3   OH217135   3.397   4.453   1.623 -0.3003 -0.1298 -0.2955
 5710TIP3    H117136   3.379   4.479   1.533  1.6048  1.1883 -0.3339
 5710TIP3    H217137   3.376   4.530   1.675  1.6451  0.2297  0.0168
 5711TIP3   OH217138   0.461   2.708   4.147  0.2066  0.1523 -0.3329
 5711TIP3    H117139   0.401   2.778   4.120 -0.1012 -0.3484 -0.9819
 5711TIP3    H217140   0.433   2.685   4.235  0.4543  0.9960 -0.0237
 5712TIP3   OH217141   0.454   1.534   0.946 -0.0965  0.0699 -0.2442
 5712TIP3    H117142   0.522   1.477   0.910  1.2673  1.3236  0.2455
 5712TIP3    H217143   0.451   1.609   0.886 -0.6550  0.2859  0.0493
 5713TIP3   OH217144   2.237   0.936   3.449 -0.2179 -0.5352  0.2511
 5713TIP3    H117145   2.184   0.870   3.493 -2.5661 -0.2844 -1.9946
 5713TIP3    H217146   2.270   0.893   3.371  1.5088 -0.1414  0.7234
 5714TIP3   OH217147   3.977   5.783   4.220 -0.4434 -0.6622  0.1048
 5714TIP3    H117148   4.070   5.783   4.244 -0.0359 -1.4981 -1.3167
 5714TIP3    H217149   3.964   5.866   4.174 -1.1711  0.8361  2.8509
 5715TIP3   OH217150   2.237   1.279   2.642 -0.3430 -0.2938  0.4814
 5715TIP3    H117151   2.262   1.217   2.573 -1.1953  0.9186 -0.9758
 5715TIP3    H217152   2.317   1.327   2.662 -0.3969  0.3188 -0.7112
 5716TIP3   OH217153   0.540   2.649   2.442  0.2465 -0.1276  0.1282
 5716TIP3    H117154   0.518   2.607   2.525  3.9950  2.0817  2.5718
 5716TIP3    H217155   0.624   2.610   2.417  1.3695  2.2349 -0.1229
 5717TIP3   OH217156   1.947   0.837   1.691 -0.2633  0.4549 -0.2233
 5717TIP3    H117157   1.851   0.841   1.692 -0.4246 -1.2998 -1.9517
 5717TIP3    H217158   1.967   0.745   1.710  1.0093  0.5633 -0.9658
 5718TIP3   OH217159   0.590   4.123   2.516  0.5028  0.6209 -0.2742
 5718TIP3    H117160   0.592   4.035   2.554 -2.8422  0.8428  0.7518
 5718TIP3    H217161   0.642   4.176   2.576  1.2579 -0.3535 -0.0392
 5719TIP3   OH217162   5.611   1.480   4.372 -0.0506 -0.1077 -0.5027
 5719TIP3    H117163   5.689   1.443   4.413  0.1890  1.4186  0.5182
 5719TIP3    H217164   5.611   1.572   4.400 -1.8238  0.1062 -1.0851
 5720TIP3   OH217165   5.782   1.034   4.372  0.3414 -0.3986 -0.0671
 5720TIP3    H117166   5.808   1.110   4.320 -0.2362 -0.4376 -0.4107
 5720TIP3    H217167   5.697   1.008   4.338 -0.2190 -0.2088  1.1322
 5721TIP3   OH217168   6.185   1.629   3.348  0.2461  0.6592  0.0404
 5721TIP3    H117169   6.209   1.586   3.266 -0.3669 -0.2927  0.3408
 5721TIP3    H217170   6.191   1.559   3.414 -1.2469  0.9089  0.4693
 5722TIP3   OH217171   4.599   5.740   1.377  0.2511  0.4310  0.3428
 5722TIP3    H117172   4.610   5.835   1.369 -0.1677  0.4996  0.5257
 5722TIP3    H217173   4.521   5.721   1.325  0.3267  0.1856  0.3193
 5723TIP3   OH217174   0.243   4.012   0.261 -0.0544  0.2443 -0.1091
 5723TIP3    H117175   0.219   3.968   0.180  0.5542  1.3148 -0.8972
 5723TIP3    H217176   0.160   4.025   0.307 -0.6686  1.2257 -1.4106
 5724TIP3   OH217177   6.288   5.696   4.259  0.5062  0.1231  0.0830
 5724TIP3    H117178   6.330   5.782   4.268 -0.2134  0.3447  1.6188
 5724TIP3    H217179   6.337   5.653   4.188  1.5329  1.4000 -0.0286
 5725TIP3   OH217180   4.186   1.580   3.935 -0.1206  0.2843 -0.0105
 5725TIP3    H117181   4.159   1.650   3.875  2.4038  1.2440 -0.1411
 5725TIP3    H217182   4.212   1.627   4.015 -0.9288 -0.7663  0.8921
 5726TIP3   OH217183   6.167   0.981   1.627 -0.0365 -0.2637 -0.7456
 5726TIP3    H117184   6.087   0.973   1.678  0.0574  1.1863 -0.3376
 5726TIP3    H217185   6.234   1.004   1.690  0.4675 -0.2828 -1.2634
 5727TIP3   OH217186   0.061   5.615   0.631 -0.0045  0.1378 -0.1883
 5727TIP3    H117187   0.006   5.642   0.705  2.5932  1.3659  1.4151
 5727TIP3    H217188   0.106   5.537   0.662  0.2410 -0.0310 -0.9521
 5728TIP3   OH217189   4.838   4.374   2.873  0.3584  0.1936  0.0028
 5728TIP3    H117190   4.792   4.350   2.793  0.8749  0.4157 -0.3670
 5728TIP3    H217191   4.769   4.393   2.936 -0.1037  2.2536 -1.0405
 5729TIP3   OH217192   1.607   3.148   0.234  0.4282  0.4914 -0.2869
 5729TIP3    H117193   1.520   3.155   0.274  0.9040 -0.7900  1.0465
 5729TIP3    H217194   1.658   3.217   0.275  0.7591 -0.4689  0.9837
 5730TIP3   OH217195   0.031   2.029   0.381  0.1082  0.8642  0.3399
 5730TIP3    H117196  -0.041   2.076   0.423  1.2028  1.5283  1.5752
 5730TIP3    H217197   0.110   2.069   0.418  1.1096 -0.9188  0.2425
 5731TIP3   OH217198   4.751   2.870   2.980  0.9173 -0.0841 -0.3325
 5731TIP3    H117199   4.834   2.859   3.025 -0.2667  0.9760  2.3749
 5731TIP3    H217200   4.740   2.965   2.973  0.0451 -0.2102 -0.8990
 5732TIP3   OH217201   2.094   2.980   4.904 -0.4472  0.0993  0.7730
 5732TIP3    H117202   2.141   2.959   4.823 -1.2349  1.6931 -0.1481
 5732TIP3    H217203   2.001   2.978   4.879 -0.7659 -0.4111  1.9172
 5733TIP3   OH217204   5.239   0.517   4.471  0.2104  0.0731 -0.3971
 5733TIP3    H117205   5.201   0.575   4.405  1.2403 -0.5924 -1.6140
 5733TIP3    H217206   5.261   0.437   4.423  1.6832 -0.1506  0.5929
 5734TIP3   OH217207   5.537   4.907   5.173 -0.2998  0.5015 -0.6438
 5734TIP3    H117208   5.523   4.951   5.089 -0.6429  2.3861  0.3415
 5734TIP3    H217209   5.462   4.849   5.183  0.2125 -0.4439 -2.0270
 5735TIP3   OH217210   2.367   0.630   1.603 -0.3901  0.5980 -0.1451
 5735TIP3    H117211   2.306   0.584   1.660 -0.4054 -0.7927 -1.2496
 5735TIP3    H217212   2.324   0.715   1.586 -1.9878 -0.2980 -0.8092
 5736TIP3   OH217213   4.884   2.223   4.886  0.2959  0.1662  0.8459
 5736TIP3    H117214   4.819   2.281   4.926  0.5802  0.2538  1.1813
 5736TIP3    H217215   4.914   2.270   4.808 -0.3384 -0.0539  0.4613
 5737TIP3   OH217216   6.105   0.449   3.640  0.0050  0.2764  0.1253
 5737TIP3    H117217   6.197   0.449   3.614  0.0708  0.2268  0.3543
 5737TIP3    H217218   6.060   0.492   3.568  0.0937 -0.4821 -0.3946
 5738TIP3   OH217219   1.386   2.705   0.710 -0.1550 -0.3112 -0.6051
 5738TIP3    H117220   1.344   2.649   0.645 -1.3003  0.7529 -0.8166
 5738TIP3    H217221   1.439   2.645   0.763 -0.4726 -1.4161 -1.5044
 5739TIP3   OH217222   0.162   2.178   3.528 -0.5612  0.0291 -0.3808
 5739TIP3    H117223   0.126   2.092   3.550  0.3114  0.0488  1.3169
 5739TIP3    H217224   0.228   2.160   3.461 -0.4628 -0.6132 -0.1172
 5740TIP3   OH217225   4.432   5.059   1.090 -0.2027 -0.1506  0.0318
 5740TIP3    H117226   4.400   4.988   1.034 -0.5943  0.4097 -0.4707
 5740TIP3    H217227   4.352   5.100   1.124  0.0368 -1.0071  1.6938
 5741TIP3   OH217228   5.280   0.005   2.910 -0.5450  0.0966 -0.0405
 5741TIP3    H117229   5.246   0.082   2.866 -0.2166 -0.2979 -1.0033
 5741TIP3    H217230   5.247   0.012   3.000 -0.7524  1.1991 -0.1942
 5742TIP3   OH217231   1.445   0.263   3.705 -0.2006  0.0411  0.0481
 5742TIP3    H117232   1.490   0.265   3.621 -0.7454 -1.3713 -0.3053
 5742TIP3    H217233   1.352   0.253   3.682 -0.3670 -0.2453  0.8058
 5743TIP3   OH217234   3.279   4.213   2.710  0.1107 -0.1080  0.0884
 5743TIP3    H117235   3.297   4.223   2.617 -0.3124 -2.9669 -0.3994
 5743TIP3    H217236   3.354   4.253   2.754  0.5328  0.8743 -1.4797
 5744TIP3   OH217237   1.545   5.244   4.086 -0.0657  0.2708 -0.0818
 5744TIP3    H117238   1.488   5.210   4.017 -0.5272  1.5482 -0.3506
 5744TIP3    H217239   1.492   5.307   4.133  0.5386  0.0842  0.8883
 5745TIP3   OH217240   3.479   2.019   3.760  0.3117  0.6120 -0.5893
 5745TIP3    H117241   3.468   2.112   3.743  0.8545  0.7461 -0.2295
 5745TIP3    H217242   3.391   1.983   3.753 -0.3688  1.5704  1.7678
 5746TIP3   OH217243   3.764   0.824   2.037  0.6251  0.1204 -0.1722
 5746TIP3    H117244   3.828   0.763   2.074  1.1569  0.3900 -0.6283
 5746TIP3    H217245   3.752   0.794   1.947 -1.3467 -1.0871  0.4165
 5747TIP3   OH217246   1.707   3.964   0.432  0.1316 -0.4113  0.0360
 5747TIP3    H117247   1.754   3.918   0.502  0.5592  0.9368  0.6790
 5747TIP3    H217248   1.770   3.965   0.360  0.0177 -1.0536 -0.0801
 5748TIP3   OH217249   1.767   5.908   2.768 -0.7343  0.0263 -0.0988
 5748TIP3    H117250   1.741   5.886   2.857  2.3390 -0.1914  0.8457
 5748TIP3    H217251   1.771   6.004   2.766 -1.0255  0.0407 -0.1089
 5749TIP3   OH217252   3.572   5.404   1.501 -0.5379  0.2150 -0.2044
 5749TIP3    H117253   3.550   5.496   1.508 -2.3132 -0.1922  0.0853
 5749TIP3    H217254   3.583   5.374   1.591 -0.5784  0.0027 -0.2689
 5750TIP3   OH217255   1.660   4.218   4.729  0.0238 -0.5584 -0.2232
 5750TIP3    H117256   1.751   4.192   4.714  0.5048  1.7862 -1.8751
 5750TIP3    H217257   1.613   4.183   4.653 -0.5088 -1.7268  0.6036
 5751TIP3   OH217258   3.842   4.448   1.540 -0.2609  0.0703 -0.2464
 5751TIP3    H117259   3.817   4.539   1.524 -0.2464  0.2068  0.4853
 5751TIP3    H217260   3.900   4.426   1.467 -3.1258 -0.5348 -2.5021
 5752TIP3   OH217261   0.729   0.107   4.726  0.0639 -0.4133 -0.6161
 5752TIP3    H117262   0.810   0.061   4.748  1.1690  2.0083  0.6864
 5752TIP3    H217263   0.677   0.104   4.806 -1.0978 -1.7610 -1.3809
 5753TIP3   OH217264   4.642   4.883   2.728  0.0520  0.5227  0.0299
 5753TIP3    H117265   4.708   4.847   2.787 -1.1616  0.1287  1.2077
 5753TIP3    H217266   4.652   4.833   2.647  2.5049  1.8470 -0.5598
 5754TIP3   OH217267   2.454   4.083   0.679 -0.1713 -0.1004 -0.0946
 5754TIP3    H117268   2.411   4.163   0.711  0.2663 -0.2587  0.9260
 5754TIP3    H217269   2.407   4.062   0.598  1.7740  3.0474 -2.2960
 5755TIP3   OH217270   4.395   1.506   1.011 -0.0526  0.2905 -0.1129
 5755TIP3    H117271   4.422   1.415   1.025 -1.3348 -0.1853 -0.5808
 5755TIP3    H217272   4.445   1.556   1.076 -0.1813 -0.8913  0.9353
 5756TIP3   OH217273   4.414   4.248   2.683  0.6079 -0.2133 -0.1768
 5756TIP3    H117274   4.469   4.288   2.751  1.5590  0.8943 -1.5335
 5756TIP3    H217275   4.427   4.154   2.695  1.4990 -0.0157  0.5958
 5757TIP3   OH217276   4.821   0.740   2.531 -0.6483  0.0460  0.1361
 5757TIP3    H117277   4.878   0.688   2.587  0.0663  1.4326  0.7578
 5757TIP3    H217278   4.739   0.748   2.580 -0.8770 -0.7530 -0.1116
 5758TIP3   OH217279   4.857   2.014   0.511 -0.9547  0.4722 -0.5253
 5758TIP3    H117280   4.801   1.938   0.529 -0.6039  0.3861  0.2321
 5758TIP3    H217281   4.943   1.988   0.544 -0.5482  0.7455 -1.3497
 5759TIP3   OH217282   3.108   1.360   1.077 -0.5843  0.0120  0.4148
 5759TIP3    H117283   3.100   1.265   1.063 -2.7431  0.3141 -0.9132
 5759TIP3    H217284   3.044   1.379   1.146 -1.6640  0.7363 -0.7427
 5760TIP3   OH217285   2.068   2.465   5.012 -0.0714 -0.0412 -0.0461
 5760TIP3    H117286   1.997   2.402   5.017 -0.6673  0.5462 -0.8076
 5760TIP3    H217287   2.132   2.425   4.953 -0.5932  0.2032 -0.7808
 5761TIP3   OH217288   5.488   5.033   0.719 -0.2709  0.4167  0.3002
 5761TIP3    H117289   5.553   5.103   0.726  1.0508 -0.6745 -0.5848
 5761TIP3    H217290   5.540   4.953   0.710 -1.7081 -0.3863 -1.4168
 5762TIP3   OH217291   3.243   1.391   2.154  0.3157  0.4024 -0.6404
 5762TIP3    H117292   3.334   1.363   2.147  0.4502  0.8243 -0.5966
 5762TIP3    H217293   3.207   1.338   2.226  0.8680  1.1045  0.1661
 5763TIP3   OH217294   4.417   3.437   0.632  0.0296  0.5220 -0.0838
 5763TIP3    H117295   4.383   3.375   0.697  1.0548  1.6128  1.5927
 5763TIP3    H217296   4.341   3.460   0.579 -0.6732 -1.0394  0.1745
 5764TIP3   OH217297   3.751   5.083   0.624 -0.1241 -0.5265  0.0058
 5764TIP3    H117298   3.691   5.133   0.569  1.7669  2.3474  0.3479
 5764TIP3    H217299   3.835   5.088   0.578  0.8060 -0.6651  1.6261
 5765TIP3   OH217300   4.230   2.578   3.621 -0.1186 -0.2764 -0.3062
 5765TIP3    H117301   4.179   2.654   3.648  1.4035  0.8952 -0.6171
 5765TIP3    H217302   4.221   2.516   3.693 -0.0531  0.8724  0.7137
 5766TIP3   OH217303   0.472   5.559   2.427  0.3352 -0.2844 -0.3124
 5766TIP3    H117304   0.432   5.622   2.487  1.9228  1.5511 -1.0710
 5766TIP3    H217305   0.418   5.561   2.349 -0.8818 -1.5825  0.4344
 5767TIP3   OH217306   0.151   1.603   0.736 -0.5199 -0.4683  0.2478
 5767TIP3    H117307   0.200   1.639   0.810 -2.4764  3.6014 -0.1243
 5767TIP3    H217308   0.063   1.588   0.772 -0.9348 -0.4534 -0.7392
 5768TIP3   OH217309   1.525   1.468   4.008  0.3037 -0.0891  0.1449
 5768TIP3    H117310   1.589   1.509   4.067 -0.4720 -0.8208  1.5491
 5768TIP3    H217311   1.562   1.382   3.989  0.2604 -0.0896  0.0612
 5769TIP3   OH217312   6.094   4.693   4.432 -0.0983  0.3437 -0.1811
 5769TIP3    H117313   6.064   4.781   4.453  0.5838  0.6408 -0.4070
 5769TIP3    H217314   6.190   4.701   4.427 -0.0764 -0.2600 -0.8711
 5770TIP3   OH217315   1.441   4.551   1.506 -0.5682  0.1627 -0.7104
 5770TIP3    H117316   1.488   4.528   1.586 -1.0643 -2.5227 -1.0864
 5770TIP3    H217317   1.392   4.630   1.529 -0.7172 -0.5350  1.6488
 5771TIP3   OH217318   3.186   5.734   4.511 -0.2937  0.7650  0.3462
 5771TIP3    H117319   3.198   5.673   4.438 -1.9679  0.6393  0.1549
 5771TIP3    H217320   3.212   5.685   4.589  0.0634  0.4027  0.0024
 5772TIP3   OH217321   3.149   2.779   2.334 -0.2077 -0.5879  0.3927
 5772TIP3    H117322   3.099   2.744   2.260  1.3484 -1.6162 -0.2453
 5772TIP3    H217323   3.084   2.798   2.400 -1.4631 -1.7430 -0.4409
 5773TIP3   OH217324   4.551   1.914   0.290 -0.2495 -1.0938  0.2628
 5773TIP3    H117325   4.569   2.005   0.316  0.5160 -0.5712 -1.8768
 5773TIP3    H217326   4.486   1.884   0.353 -2.9202  1.9625 -0.7030
 5774TIP3   OH217327   4.207   0.743   1.355  0.1979 -0.1366  0.3009
 5774TIP3    H117328   4.215   0.671   1.292 -0.8047  0.4847 -0.5585
 5774TIP3    H217329   4.169   0.702   1.433 -1.6834 -0.3329 -0.6541
 5775TIP3   OH217330   2.056   4.850   1.144  0.5210 -0.4219 -0.2426
 5775TIP3    H117331   1.971   4.890   1.163  1.4351  1.5286 -0.0075
 5775TIP3    H217332   2.074   4.876   1.053  0.7024 -1.1473 -0.4139
 5776TIP3   OH217333   4.117   2.122   3.709  0.5842 -0.1348  0.8515
 5776TIP3    H117334   4.106   2.030   3.733  0.6825 -0.4228 -0.1567
 5776TIP3    H217335   4.162   2.119   3.624  2.9509  0.8827  1.9803
 5777TIP3   OH217336   3.832   4.431   3.773  0.4448  0.3093  0.4207
 5777TIP3    H117337   3.815   4.377   3.696 -0.1279  0.4117  0.4762
 5777TIP3    H217338   3.838   4.520   3.739  0.0943  0.3664  0.5063
 5778TIP3   OH217339   2.750   4.644   2.374 -0.0080 -0.0732 -0.2403
 5778TIP3    H117340   2.772   4.686   2.457 -1.0391  0.2948 -0.1387
 5778TIP3    H217341   2.819   4.673   2.314 -0.3560  1.2718 -0.0167
 5779TIP3   OH217342   3.501   3.521   3.460  0.6275 -0.3532  0.6437
 5779TIP3    H117343   3.495   3.578   3.536 -0.9223 -0.1652  0.4127
 5779TIP3    H217344   3.410   3.501   3.438  1.0743 -0.9835 -0.7245
 5780TIP3   OH217345   1.160   5.316   4.960 -0.0828  0.1363  0.2871
 5780TIP3    H117346   1.140   5.405   4.930  0.8530  0.3716  0.3552
 5780TIP3    H217347   1.078   5.286   5.000 -1.1446  0.0855 -1.8130
 5781TIP3   OH217348   3.488   1.337   2.087  0.3048  0.1193  0.8858
 5781TIP3    H117349   3.560   1.274   2.085  0.4959  0.3613 -0.0527
 5781TIP3    H217350   3.506   1.397   2.015 -1.0888 -0.0928  0.3201
 5782TIP3   OH217351   0.891   2.500   3.158 -0.9227  0.8753 -0.0410
 5782TIP3    H117352   0.849   2.459   3.083 -0.0063  1.8846 -1.1527
 5782TIP3    H217353   0.977   2.528   3.125 -0.3617  1.0249  1.4849
 5783TIP3   OH217354   2.820   3.961   2.279  0.4137  0.1593 -0.1646
 5783TIP3    H117355   2.832   3.871   2.251  1.4723 -0.1999  1.2698
 5783TIP3    H217356   2.736   3.961   2.324  0.8845 -0.4047  0.7631
 5784TIP3   OH217357   2.784   2.245   0.036  0.0399  0.5749 -0.1089
 5784TIP3    H117358   2.840   2.306  -0.012 -1.1034  2.4340  0.8252
 5784TIP3    H217359   2.754   2.294   0.112  0.8839 -1.9020  1.9716
 5785TIP3   OH217360   0.425   0.931   2.834  0.0423  0.5374 -0.2925
 5785TIP3    H117361   0.357   0.996   2.814  0.1088  0.7747  0.2359
 5785TIP3    H217362   0.505   0.983   2.843 -0.0246  0.4625  0.7802
 5786TIP3   OH217363   4.570   4.046   4.262 -0.0493 -0.5956  0.3589
 5786TIP3    H117364   4.577   4.009   4.350  0.4756 -0.3587  0.4170
 5786TIP3    H217365   4.638   4.000   4.211  0.7372  0.4044  0.4752
 5787TIP3   OH217366   6.127   4.045   3.061  0.2630 -0.6672  0.4335
 5787TIP3    H117367   6.205   4.042   3.116  1.1523 -1.8367 -0.8211
 5787TIP3    H217368   6.157   4.081   2.978 -0.9473  0.5825  0.4953
 5788TIP3   OH217369   2.248   4.567   2.235  0.0244 -0.0722  0.2157
 5788TIP3    H117370   2.198   4.532   2.308  0.0738  1.5871  1.0889
 5788TIP3    H217371   2.183   4.586   2.168 -0.2286 -0.0267  0.4754
 5789TIP3   OH217372   5.838   4.631   3.591  0.4085  0.5599 -0.4101
 5789TIP3    H117373   5.866   4.718   3.617  1.0963  0.5138 -0.9675
 5789TIP3    H217374   5.902   4.572   3.629  1.3811  0.4862 -2.0756
 5790TIP3   OH217375   5.049   2.866   4.186 -0.1845 -0.0028 -0.7043
 5790TIP3    H117376   5.033   2.943   4.241 -4.7795 -0.8151 -0.4814
 5790TIP3    H217377   5.057   2.901   4.097  0.7598  0.8822 -0.2888
 5791TIP3   OH217378   1.875   1.111   3.362 -0.0969  0.3266 -0.1936
 5791TIP3    H117379   1.842   1.181   3.418  0.0344  0.3286 -0.1200
 5791TIP3    H217380   1.812   1.107   3.289  0.1875  0.8727 -0.4731
 5792TIP3   OH217381   1.559   1.232   4.839  0.3715  0.2749 -0.0602
 5792TIP3    H117382   1.595   1.292   4.905 -0.1040 -1.0959  1.5193
 5792TIP3    H217383   1.464   1.240   4.848  0.2996  0.0281 -0.5520
 5793TIP3   OH217384   5.670   0.169   3.717 -0.4066 -0.4732  0.6938
 5793TIP3    H117385   5.735   0.234   3.690 -0.6576 -0.5912 -0.2350
 5793TIP3    H217386   5.683   0.160   3.811  1.4145 -1.0343  0.4348
 5794TIP3   OH217387   4.065   0.851   3.132 -0.1327 -0.0120 -0.1396
 5794TIP3    H117388   4.015   0.903   3.194 -1.4955 -1.8914  0.3983
 5794TIP3    H217389   4.103   0.916   3.072 -0.7952  1.6584  1.1782
 5795TIP3   OH217390   0.853   4.248   0.816 -0.4056  0.2039  0.7454
 5795TIP3    H117391   0.894   4.162   0.823 -0.4462 -0.2959 -3.0352
 5795TIP3    H217392   0.764   4.235   0.848 -0.9637 -1.7348 -1.3206
 5796TIP3   OH217393   4.522   1.986   1.668 -0.0202  0.1814  0.1532
 5796TIP3    H117394   4.427   1.996   1.661  0.0519  2.3836  1.3814
 5796TIP3    H217395   4.553   1.980   1.577 -1.4157 -2.4841 -0.2548
 5797TIP3   OH217396   1.932   1.582   0.016 -0.5022  0.1012 -0.6882
 5797TIP3    H117397   1.966   1.659   0.060 -1.3077  0.1195 -0.0878
 5797TIP3    H217398   2.003   1.518   0.022  0.5390  1.0575 -1.9879
 5798TIP3   OH217399   1.355   1.097   0.456 -0.9262 -0.1683  0.3687
 5798TIP3    H117400   1.412   1.038   0.505 -0.0492  1.3705  1.2817
 5798TIP3    H217401   1.415   1.161   0.416 -1.9159  0.7375  0.2869
 5799TIP3   OH217402   1.842   5.409   4.244 -0.3509  0.0218  0.2642
 5799TIP3    H117403   1.759   5.417   4.197 -0.3383  0.3271  0.2938
 5799TIP3    H217404   1.845   5.485   4.302  0.4803  0.6664 -0.5814
 5800TIP3   OH217405   2.521   1.146   3.153 -0.1318  0.0510 -0.0820
 5800TIP3    H117406   2.431   1.154   3.121 -1.0844  0.0248  2.3713
 5800TIP3    H217407   2.514   1.163   3.247  2.4350 -0.0467  0.1795
 5801TIP3   OH217408   3.316   4.045   4.039 -0.8541 -0.3650  0.0010
 5801TIP3    H117409   3.318   4.096   3.958  0.4593 -1.6668 -0.8045
 5801TIP3    H217410   3.248   3.979   4.024 -2.9997  1.4067  1.2779
 5802TIP3   OH217411   2.801   3.046   2.935  0.7784 -0.5531 -0.3902
 5802TIP3    H117412   2.845   2.964   2.910 -0.7848 -1.2660 -0.9054
 5802TIP3    H217413   2.750   3.024   3.012  1.0674  0.1861  0.0174
 5803TIP3   OH217414   3.284   3.843   2.088 -0.2772  0.0412  0.3769
 5803TIP3    H117415   3.312   3.823   1.998  0.4171 -1.8754  0.9735
 5803TIP3    H217416   3.349   3.904   2.121 -0.2419  0.3451 -0.2428
 5804TIP3   OH217417   3.787   3.571   3.681 -0.1980 -0.4312 -0.4813
 5804TIP3    H117418   3.752   3.658   3.700  0.9639 -0.6592  3.7591
 5804TIP3    H217419   3.717   3.511   3.708 -0.0384 -0.8065 -0.9094
 5805TIP3   OH217420   2.641   0.224   2.275  0.2075  0.2596 -0.1755
 5805TIP3    H117421   2.588   0.178   2.210  1.1528 -0.8184 -0.2276
 5805TIP3    H217422   2.640   0.315   2.246 -0.4887  0.0270 -0.9373
 5806TIP3   OH217423   0.202   1.428   1.007  0.1241  0.0844  0.8069
 5806TIP3    H117424   0.275   1.437   0.946 -0.2404 -1.8142  0.0010
 5806TIP3    H217425   0.225   1.353   1.061 -1.9351 -1.7645 -0.6781
 5807TIP3   OH217426   5.603   0.838   3.282  0.2147 -0.6608 -0.0920
 5807TIP3    H117427   5.510   0.859   3.271  0.3239 -0.9478 -1.7583
 5807TIP3    H217428   5.604   0.765   3.344 -0.7716 -1.4764 -1.0067
 5808TIP3   OH217429   5.595   5.977   4.395 -0.2652  0.1762 -0.0897
 5808TIP3    H117430   5.628   5.890   4.376 -1.4042 -0.2341 -0.2885
 5808TIP3    H217431   5.613   6.028   4.315 -0.3701 -0.1164 -0.3016
 5809TIP3   OH217432   3.356   3.533   2.129 -0.2769 -0.0869  0.5827
 5809TIP3    H117433   3.321   3.517   2.217  0.6597  1.2132  1.2252
 5809TIP3    H217434   3.278   3.554   2.076 -0.9518 -1.7423  0.8493
 5810TIP3   OH217435   2.208   2.406   2.211 -0.1525 -0.3981  0.1467
 5810TIP3    H117436   2.149   2.481   2.206 -0.2759 -0.4692  0.5290
 5810TIP3    H217437   2.156   2.332   2.181 -0.6847 -0.7034  1.7433
 5811TIP3   OH217438   0.420   0.852   0.115 -0.0716  0.7719  0.0819
 5811TIP3    H117439   0.457   0.778   0.067 -0.5149  0.0445  0.8371
 5811TIP3    H217440   0.489   0.877   0.176 -0.8037 -0.6359  1.5461
 5812TIP3   OH217441   0.401   3.400   3.629 -0.0570 -0.8521  0.1919
 5812TIP3    H117442   0.389   3.445   3.546 -1.0026 -2.3729 -0.5441
 5812TIP3    H217443   0.454   3.322   3.607  4.0042  1.1132  1.8735
 5813TIP3   OH217444   2.732   4.927   3.880  0.3526  0.6465 -0.6314
 5813TIP3    H117445   2.818   4.970   3.870  0.4500  0.1605 -2.1172
 5813TIP3    H217446   2.685   4.950   3.801 -0.3543 -0.3156 -0.5017
 5814TIP3   OH217447   2.824   3.489   1.286  0.6709 -0.8614  0.4341
 5814TIP3    H117448   2.739   3.457   1.316 -0.0184  0.1559 -0.3811
 5814TIP3    H217449   2.810   3.582   1.268  1.5568 -1.0032 -1.1700
 5815TIP3   OH217450   0.309   5.211   0.633  0.3522 -0.0915 -0.5552
 5815TIP3    H117451   0.325   5.302   0.608  0.6353 -0.2225 -0.8508
 5815TIP3    H217452   0.233   5.216   0.692  1.0826  0.4710  0.3828
 5816TIP3   OH217453   1.844   4.864   1.524  0.0632  0.2364 -0.1017
 5816TIP3    H117454   1.925   4.819   1.498 -0.3434 -0.8835  0.5299
 5816TIP3    H217455   1.774   4.813   1.483 -0.3660  0.7819 -0.0542
 5817TIP3   OH217456   5.232   0.137   1.309  0.2499 -0.5310  0.1685
 5817TIP3    H117457   5.273   0.164   1.391  1.2309  1.7838 -0.9981
 5817TIP3    H217458   5.303   0.139   1.244 -0.5170 -2.2107 -0.7874
 5818TIP3   OH217459   5.174   2.243  -0.016  0.5556 -0.3131 -0.0156
 5818TIP3    H117460   5.134   2.330  -0.016  0.4193 -0.3753 -0.0324
 5818TIP3    H217461   5.125   2.194   0.050  0.6713 -0.3588  0.0362
 5819TIP3   OH217462   3.788   4.268   1.731 -0.0568  0.2343  0.0427
 5819TIP3    H117463   3.829   4.304   1.810  0.9660  0.7405 -0.6942
 5819TIP3    H217464   3.815   4.327   1.661 -1.1739 -0.0508 -0.6546
 5820TIP3   OH217465   1.663   0.741   2.348  0.2064  0.6551 -0.0764
 5820TIP3    H117466   1.709   0.673   2.300 -1.1934 -0.5427  0.2111
 5820TIP3    H217467   1.716   0.820   2.334  0.6365  0.0447 -2.3254
 5821TIP3   OH217468   0.397   1.430   0.588  0.2032 -0.1802 -0.0182
 5821TIP3    H117469   0.418   1.353   0.535  0.7211 -1.0034  1.3401
 5821TIP3    H217470   0.405   1.400   0.678  0.4234  1.4669  0.5416
 5822TIP3   OH217471   4.680   4.851   3.677 -0.0316  0.2247  0.0982
 5822TIP3    H117472   4.765   4.894   3.670  0.4896 -0.9151 -0.9386
 5822TIP3    H217473   4.623   4.900   3.617 -0.3328  1.4337  1.3247
 5823TIP3   OH217474   1.427   1.731   1.812 -0.4231 -0.3215 -0.2791
 5823TIP3    H117475   1.370   1.789   1.861 -0.4937 -0.4798 -0.1729
 5823TIP3    H217476   1.374   1.653   1.796 -0.5599 -0.0863 -1.0123
 5824TIP3   OH217477   5.355   5.292   2.790  0.2203  0.2707  0.7582
 5824TIP3    H117478   5.276   5.280   2.737  0.8589 -0.3162 -0.0836
 5824TIP3    H217479   5.404   5.210   2.779  1.4025  0.9866  0.5095
 5825TIP3   OH217480   5.225   1.337   0.900  0.2587  0.4645 -0.3591
 5825TIP3    H117481   5.274   1.256   0.885 -0.8278 -0.5398  1.1666
 5825TIP3    H217482   5.174   1.348   0.819  0.1268 -0.6055 -0.4445
 5826TIP3   OH217483   1.791   3.771   0.622  0.0450 -0.0292 -0.1488
 5826TIP3    H117484   1.697   3.761   0.605 -0.4019  1.6930  1.0132
 5826TIP3    H217485   1.798   3.767   0.717  0.9774  0.9664 -0.1566
 5827TIP3   OH217486   1.474   5.084   2.686  0.0947 -0.0352  0.0912
 5827TIP3    H117487   1.469   5.164   2.634 -0.5165 -0.1231  0.0072
 5827TIP3    H217488   1.423   5.020   2.636 -1.8504  0.3012  1.5293
 5828TIP3   OH217489   2.850   2.107   3.517 -0.0215 -0.2672  0.2429
 5828TIP3    H117490   2.772   2.155   3.544 -0.8425 -2.4610  2.1129
 5828TIP3    H217491   2.816   2.028   3.475  1.1601 -1.3585  1.2624
 5829TIP3   OH217492   2.393   2.414   1.404  0.0682 -0.1145  0.8493
 5829TIP3    H117493   2.401   2.346   1.471  1.9939  0.1189  0.9112
 5829TIP3    H217494   2.367   2.492   1.452  3.7210  0.6595  1.8366
 5830TIP3   OH217495   4.760   5.212   3.761 -0.3267 -0.4057 -0.1101
 5830TIP3    H117496   4.667   5.196   3.745  0.0410 -2.0762 -0.8399
 5830TIP3    H217497   4.774   5.181   3.851 -0.4958 -0.0692  0.0315
 5831TIP3   OH217498   6.352   4.511   0.046  0.0274  0.5382 -0.3566
 5831TIP3    H117499   6.291   4.452   0.092  1.6809 -1.5398 -0.6987
 5831TIP3    H217500   6.312   4.525  -0.039 -0.1549 -0.5080 -0.4495
 5832TIP3   OH217501   2.745   5.729   3.955 -0.5963  0.1037 -0.1077
 5832TIP3    H117502   2.827   5.684   3.974 -1.4837 -1.2025  0.7891
 5832TIP3    H217503   2.684   5.659   3.930 -1.2552  1.1254 -1.5169
 5833TIP3   OH217504   4.852   4.446   0.751 -0.5270 -0.2332 -0.5453
 5833TIP3    H117505   4.800   4.422   0.828 -0.8010  1.2342 -0.2377
 5833TIP3    H217506   4.919   4.505   0.785 -0.6914  0.4888 -1.4313
 5834TIP3   OH217507   6.136   5.851   4.870  0.0341 -0.6124 -0.1979
 5834TIP3    H117508   6.145   5.945   4.855  0.3940 -0.8261 -1.4074
 5834TIP3    H217509   6.079   5.845   4.946 -0.2404  0.5785 -0.2843
 5835TIP3   OH217510   0.132   0.428   3.185 -0.5386 -0.2591  0.0283
 5835TIP3    H117511   0.223   0.442   3.212  0.1109 -1.6665 -1.3006
 5835TIP3    H217512   0.096   0.517   3.175  0.2124  0.3242  1.9568
 5836TIP3   OH217513   4.160   0.141   4.588 -0.2156  0.4688 -0.2647
 5836TIP3    H117514   4.240   0.094   4.567  1.7047  2.8692  1.1737
 5836TIP3    H217515   4.145   0.199   4.513 -1.0300 -0.4052 -0.8100
 5837TIP3   OH217516   2.738   3.550   3.759 -0.2058 -0.7849  0.3704
 5837TIP3    H117517   2.741   3.500   3.678 -1.1938 -0.7450  0.2920
 5837TIP3    H217518   2.801   3.507   3.816  3.3964  1.4480 -1.6117
 5838TIP3   OH217519   5.351   2.855   2.053  0.7558  0.1683  0.3265
 5838TIP3    H117520   5.322   2.937   2.014 -0.4002 -0.1570  0.4429
 5838TIP3    H217521   5.336   2.789   1.985  2.0988  0.0958  0.0700
 5839TIP3   OH217522   5.819   5.530   2.513 -0.1485 -0.1894 -0.4815
 5839TIP3    H117523   5.886   5.580   2.466  1.0231  0.1175  1.4010
 5839TIP3    H217524   5.736   5.563   2.478  0.6182  2.0353 -0.3640
 5840TIP3   OH217525   0.608   1.911   1.294 -0.6860 -1.0059  0.7090
 5840TIP3    H117526   0.538   1.974   1.280  0.1572 -0.1369  0.2835
 5840TIP3    H217527   0.623   1.873   1.207  0.6382  0.2019  0.3687
 5841TIP3   OH217528   4.508   4.526   0.151  0.0775 -0.0956 -0.4235
 5841TIP3    H117529   4.498   4.555   0.242 -0.5783 -0.4682 -0.3737
 5841TIP3    H217530   4.598   4.493   0.146  0.3276  0.5199 -0.0813
 5842TIP3   OH217531   3.370   3.338   1.447  0.0465 -0.4580 -0.0239
 5842TIP3    H117532   3.440   3.283   1.482  1.6484  0.8718 -0.9475
 5842TIP3    H217533   3.314   3.357   1.522  0.4480 -1.8520  0.6682
 5843TIP3   OH217534   4.276   5.746   0.953 -0.0624  0.0944  0.4799
 5843TIP3    H117535   4.304   5.706   0.870 -0.9318 -0.2456  0.3331
 5843TIP3    H217536   4.252   5.835   0.929 -0.4565 -0.0478  0.3224
 5844TIP3   OH217537   2.747   1.845   1.854  0.4629 -0.3061  0.2454
 5844TIP3    H117538   2.689   1.828   1.781  0.1208 -0.3644  0.5284
 5844TIP3    H217539   2.781   1.759   1.878  0.5806 -0.2861  0.1504
 5845TIP3   OH217540   2.127   2.631   4.695  0.2176  0.4876 -0.1877
 5845TIP3    H117541   2.053   2.573   4.714  1.2257 -0.5529  0.7690
 5845TIP3    H217542   2.204   2.573   4.698  1.3041  1.9084  1.0636
 5846TIP3   OH217543   2.300   0.935   2.925 -0.0525 -0.1682 -0.2239
 5846TIP3    H117544   2.244   1.010   2.905  0.5148  0.0473 -1.0346
 5846TIP3    H217545   2.256   0.860   2.884  0.5418  0.0971 -1.3775
 5847TIP3   OH217546   3.350   4.437   3.705 -0.3950 -0.4201 -0.0453
 5847TIP3    H117547   3.390   4.358   3.669  2.2742  0.5341  0.5796
 5847TIP3    H217548   3.315   4.483   3.629  0.4158 -0.9639 -0.7682
 5848TIP3   OH217549   5.052   3.139   2.403 -0.4334  0.7931 -0.0096
 5848TIP3    H117550   4.959   3.122   2.387  0.1974 -3.5544 -0.1747
 5848TIP3    H217551   5.098   3.090   2.334  1.9519 -1.0738  2.6665
 5849TIP3   OH217552   1.630   5.855   4.170  0.2384 -0.3216  0.1289
 5849TIP3    H117553   1.665   5.873   4.082 -1.3443 -0.2813 -0.5232
 5849TIP3    H217554   1.610   5.941   4.206 -0.3945 -0.4004 -0.0261
 5850TIP3   OH217555   3.028   5.152   4.757 -1.1500  0.6449  0.2208
 5850TIP3    H117556   3.098   5.214   4.777 -1.1728  0.7901 -0.1594
 5850TIP3    H217557   3.020   5.154   4.662 -0.2858 -0.8754  0.0785
 5851TIP3   OH217558   0.616   5.667   4.813  0.0576 -0.5309 -0.3319
 5851TIP3    H117559   0.533   5.620   4.823  0.3672 -1.3827 -1.6027
 5851TIP3    H217560   0.605   5.746   4.867 -1.5805 -0.6086 -0.4990
 5852TIP3   OH217561   2.700   3.427   3.531 -0.0455  0.2947  0.2455
 5852TIP3    H117562   2.732   3.350   3.484 -1.9784 -0.9089  0.7828
 5852TIP3    H217563   2.662   3.481   3.462  1.5053  0.9234 -0.1630
 5853TIP3   OH217564   2.349   5.073   2.935  0.3174  0.2124  0.1071
 5853TIP3    H117565   2.280   5.025   2.980  2.0920 -0.9193  1.7707
 5853TIP3    H217566   2.303   5.140   2.885 -1.8914  0.6058  2.4697
 5854TIP3   OH217567   1.277   4.264   3.457 -0.0107 -0.5375  0.2113
 5854TIP3    H117568   1.227   4.283   3.536  0.4083  0.5862  0.2305
 5854TIP3    H217569   1.327   4.186   3.478  1.4067  0.7037  1.7083
 5855TIP3   OH217570   0.284   0.197   4.314  0.3589  0.5232 -0.4496
 5855TIP3    H117571   0.228   0.160   4.382 -0.6358  0.2539 -1.3895
 5855TIP3    H217572   0.359   0.137   4.310 -0.0133  0.0321 -0.2196
 5856TIP3   OH217573   2.863   4.285   3.989 -0.3722  0.5223  1.1315
 5856TIP3    H117574   2.808   4.280   3.911  0.3426  2.1470  0.4680
 5856TIP3    H217575   2.949   4.256   3.958 -0.5728 -1.0299  1.9133
 5857TIP3   OH217576   0.064   2.579   1.714 -0.4122  0.3973  0.5544
 5857TIP3    H117577   0.087   2.517   1.783 -1.4737 -0.5901  0.0735
 5857TIP3    H217578   0.055   2.524   1.635  1.0295  1.5287 -0.4484
 5858TIP3   OH217579   4.623   1.952   2.724  0.3430 -0.3245  0.0156
 5858TIP3    H117580   4.605   1.872   2.675  0.9793 -0.6959  0.3732
 5858TIP3    H217581   4.636   1.922   2.814 -0.8767  0.3504  0.4399
 5859TIP3   OH217582   1.359   3.584   0.419  0.1960 -0.0944  0.0791
 5859TIP3    H117583   1.368   3.588   0.324  2.2488 -1.4811  0.1465
 5859TIP3    H217584   1.269   3.557   0.433  0.3640 -1.6993 -1.5818
 5860TIP3   OH217585   6.243   1.310   1.376 -0.1556 -0.3176  0.0355
 5860TIP3    H117586   6.292   1.392   1.370 -0.1509 -0.2770  0.5356
 5860TIP3    H217587   6.303   1.250   1.419 -0.0512 -0.6757 -0.6063
 5861TIP3   OH217588   6.077   1.702   0.127 -0.3509 -0.0323  0.3472
 5861TIP3    H117589   5.994   1.743   0.153 -0.5367  0.0156 -0.2867
 5861TIP3    H217590   6.051   1.617   0.091  0.0499 -0.8244  1.8481
 5862TIP3   OH217591   4.022   1.747   3.008  0.1167 -0.2577  0.2799
 5862TIP3    H117592   3.933   1.781   3.006  0.8041  1.6650  0.8303
 5862TIP3    H217593   4.026   1.697   3.090 -0.5796 -0.7642  0.0173
 5863TIP3   OH217594   0.102   0.756   2.042 -0.4749  0.1953  0.0564
 5863TIP3    H117595   0.080   0.701   2.116  0.1262  1.1033  0.9370
 5863TIP3    H217596   0.185   0.798   2.066 -0.7047  1.1627 -0.7537
 5864TIP3   OH217597   1.740   5.050   3.165 -0.0830  0.2444  0.4430
 5864TIP3    H117598   1.787   5.046   3.081  0.1575 -0.5973  0.6123
 5864TIP3    H217599   1.784   5.120   3.213 -0.3763  0.9034 -0.2205
 5865TIP3   OH217600   2.918   0.552   0.215 -0.2885 -0.8950 -0.7107
 5865TIP3    H117601   2.850   0.538   0.149 -0.7587  1.8085 -0.9178
 5865TIP3    H217602   2.871   0.551   0.299 -0.0903 -1.8717 -0.6019
 5866TIP3   OH217603   3.560   5.217   1.733 -0.0030  0.3012 -0.1848
 5866TIP3    H117604   3.549   5.150   1.666 -0.1171  0.1267  0.0062
 5866TIP3    H217605   3.621   5.178   1.796 -0.7708  0.0151  0.3936
 5867TIP3   OH217606   2.815   2.051   2.014 -0.1057 -0.8199  0.4726
 5867TIP3    H117607   2.788   1.976   1.959  0.1046 -0.9630  0.5621
 5867TIP3    H217608   2.839   2.119   1.951  0.0095 -0.9388  0.3873
 5868TIP3   OH217609   0.511   3.863   2.992 -0.1445 -0.0111 -0.4234
 5868TIP3    H117610   0.566   3.785   3.002 -1.6144 -1.1659 -0.9262
 5868TIP3    H217611   0.572   3.932   2.965  1.1721 -1.0181 -0.1508
 5869TIP3   OH217612   4.934   0.721   2.967  0.3704 -0.1794 -0.0130
 5869TIP3    H117613   4.917   0.694   3.058  1.0225  1.2084  0.5495
 5869TIP3    H217614   4.867   0.787   2.949 -1.1547 -1.9766 -1.3467
 5870TIP3   OH217615   6.001   4.827   3.689  0.4460 -0.2192  0.5552
 5870TIP3    H117616   5.970   4.914   3.666  1.1831 -0.2465 -0.6294
 5870TIP3    H217617   6.090   4.823   3.654 -0.6080 -2.4988 -2.1800
 5871TIP3   OH217618   1.904   3.892   1.607 -0.0608  0.4397 -0.1302
 5871TIP3    H117619   1.871   3.974   1.572  0.7066  0.5391 -0.6490
 5871TIP3    H217620   1.827   3.837   1.620 -0.5470  1.1469 -0.0301
 5872TIP3   OH217621   2.764   4.071   2.016  0.1352 -0.0695  0.1737
 5872TIP3    H117622   2.773   4.012   2.091  0.4114  1.6182  1.5231
 5872TIP3    H217623   2.806   4.024   1.944 -0.7520 -2.0483  0.8602
 5873TIP3   OH217624   0.036   4.981   1.035  0.5373 -0.5155 -0.0474
 5873TIP3    H117625   0.080   4.897   1.050  1.9838  0.0808 -0.7111
 5873TIP3    H217626   0.100   5.046   1.063 -0.4551  0.3857  0.1828
 5874TIP3   OH217627   2.977   0.857   2.566 -0.6823 -0.6394 -0.2616
 5874TIP3    H117628   3.049   0.920   2.563 -1.3112  0.1078  0.2019
 5874TIP3    H217629   2.967   0.837   2.659 -1.8627  0.1929 -0.1932
 5875TIP3   OH217630   5.841   0.758   3.584  0.2608 -0.5486  0.0849
 5875TIP3    H117631   5.871   0.823   3.521  0.0672 -0.1121  0.4388
 5875TIP3    H217632   5.902   0.767   3.658  0.6413 -1.2257 -0.1347
 5876TIP3   OH217633   5.810   4.664   1.093 -0.2690 -0.0021 -0.1938
 5876TIP3    H117634   5.730   4.613   1.106 -1.5072  1.8372 -0.2366
 5876TIP3    H217635   5.794   4.746   1.139  1.9863  0.0843  0.5616
 5877TIP3   OH217636   2.871   4.450   2.686  0.0853 -0.5340  0.3596
 5877TIP3    H117637   2.906   4.515   2.624  2.6314 -1.4097  0.7655
 5877TIP3    H217638   2.826   4.386   2.630 -0.3751  0.2960 -0.2517
 5878TIP3   OH217639   5.185   2.282   3.820  0.4127  0.5289 -0.1431
 5878TIP3    H117640   5.101   2.257   3.858  0.4044  1.1009  0.2374
 5878TIP3    H217641   5.194   2.226   3.743  0.2341 -0.3586  0.4636
 5879TIP3   OH217642   3.873   2.663   0.511  0.0407  0.2303  0.3380
 5879TIP3    H117643   3.950   2.606   0.507 -0.3684 -0.2712 -0.5507
 5879TIP3    H217644   3.798   2.604   0.505 -0.3909  0.8438 -0.5577
 5880TIP3   OH217645   4.880   1.836   3.856  0.1752 -0.4783 -0.1629
 5880TIP3    H117646   4.786   1.838   3.877  0.3416 -0.0061  0.5824
 5880TIP3    H217647   4.907   1.747   3.878 -0.5613 -1.3650 -2.5947
 5881TIP3   OH217648   4.882   5.801   1.470  0.5289 -0.6407 -0.1323
 5881TIP3    H117649   4.913   5.813   1.380 -0.2253 -1.7090 -0.5722
 5881TIP3    H217650   4.805   5.744   1.460 -1.6965  1.9900  0.8545
 5882TIP3   OH217651   3.953   0.387   1.888 -0.3027 -0.3145 -0.3445
 5882TIP3    H117652   3.910   0.304   1.869  0.2532 -0.2300 -2.1681
 5882TIP3    H217653   4.037   0.382   1.842 -0.5441  1.5095 -1.0774
 5883TIP3   OH217654   3.158   1.846   0.835 -0.3640 -0.0002 -0.2947
 5883TIP3    H117655   3.209   1.869   0.913  0.0068 -0.2866 -0.4491
 5883TIP3    H217656   3.201   1.768   0.800 -1.1687 -0.5004 -0.1892
 5884TIP3   OH217657   1.627   3.798   1.211  0.2971 -0.0336  0.2842
 5884TIP3    H117658   1.720   3.777   1.209 -0.1393 -2.1970  0.5775
 5884TIP3    H217659   1.589   3.743   1.143 -0.7570  1.0267 -0.0163
 5885TIP3   OH217660   6.058   4.602   2.312  0.0654  0.3109 -0.0254
 5885TIP3    H117661   6.050   4.620   2.218  0.8695  1.7608  0.1465
 5885TIP3    H217662   6.147   4.568   2.322  0.1689  0.6701  0.2748
 5886TIP3   OH217663   6.366   1.317   1.837  0.4079 -0.4558  0.5073
 5886TIP3    H117664   6.379   1.383   1.769  0.9432 -0.4861  0.5730
 5886TIP3    H217665   6.277   1.332   1.869  1.0040  1.1967  1.5329
 5887TIP3   OH217666   1.866   3.580   4.563  0.2867  0.0040 -0.0756
 5887TIP3    H117667   1.843   3.569   4.655 -0.4421  0.3356 -0.2129
 5887TIP3    H217668   1.874   3.491   4.529 -1.2429 -0.1275 -0.1320
 5888TIP3   OH217669   4.589   4.325   5.126  0.1204  0.6830  0.2276
 5888TIP3    H117670   4.566   4.393   5.063  0.4953  0.9746  0.4058
 5888TIP3    H217671   4.622   4.253   5.072 -1.0593  0.3099 -0.0239
 5889TIP3   OH217672   4.904   0.950   0.801  0.1453 -0.0541  0.4540
 5889TIP3    H117673   4.878   0.942   0.893  3.4863  2.6982  1.8481
 5889TIP3    H217674   4.980   0.893   0.792  0.2473  0.2014 -0.4190
 5890TIP3   OH217675   4.366   3.620   1.607  0.1587 -0.5490  0.6212
 5890TIP3    H117676   4.299   3.616   1.540  0.7137 -0.9381  0.0798
 5890TIP3    H217677   4.342   3.697   1.660  0.2057  0.3126 -0.5588
 5891TIP3   OH217678   3.892   1.200   3.861  0.1943  0.0892  0.4770
 5891TIP3    H117679   3.980   1.223   3.890  0.8086 -1.9004  0.3605
 5891TIP3    H217680   3.868   1.124   3.914 -1.9934  1.3072  1.3808
 5892TIP3   OH217681   3.282   4.156   3.158 -0.2648  0.4550  0.1390
 5892TIP3    H117682   3.312   4.067   3.171  0.7867  0.4532 -1.9126
 5892TIP3    H217683   3.206   4.148   3.100  0.8132  0.9356 -1.4037
 5893TIP3   OH217684   5.257   3.716   3.329 -0.2327 -0.1074  0.1213
 5893TIP3    H117685   5.271   3.774   3.403 -0.7845  0.1884 -0.0017
 5893TIP3    H217686   5.207   3.642   3.365  1.7221 -1.2663  0.6061
 5894TIP3   OH217687   5.342   1.538   4.307 -0.1240 -0.3885  0.1028
 5894TIP3    H117688   5.428   1.551   4.346 -1.4281  1.1347  2.8510
 5894TIP3    H217689   5.316   1.625   4.276  0.2820 -1.3092 -3.1909
 5895TIP3   OH217690   2.979   5.134   4.489  0.1360  0.2923  0.1260
 5895TIP3    H117691   2.913   5.203   4.490 -0.7467 -0.5004  2.2925
 5895TIP3    H217692   2.933   5.056   4.459  1.0868  0.5077 -2.1322
 5896TIP3   OH217693   5.835   3.322   1.797  0.1599  0.0040 -0.7864
 5896TIP3    H117694   5.784   3.319   1.877  0.2185 -0.9860 -0.7706
 5896TIP3    H217695   5.926   3.313   1.826  0.2109  0.0421 -0.9327
 5897TIP3   OH217696   2.331   1.292   1.252  0.1844  0.6197  0.7842
 5897TIP3    H117697   2.379   1.371   1.279  0.5023  0.4781  0.6407
 5897TIP3    H217698   2.297   1.256   1.334  2.7994 -0.9076  1.3306
 5898TIP3   OH217699   4.616   5.946   2.569  0.3920 -0.0678 -0.1332
 5898TIP3    H117700   4.532   5.914   2.603  0.7092  0.3691  1.0920
 5898TIP3    H217701   4.668   5.867   2.555  0.3880 -0.2420  0.7799
 5899TIP3   OH217702   1.034   4.068   1.543 -0.0404  0.6125 -0.0705
 5899TIP3    H117703   0.963   4.131   1.546  0.3798  1.1851 -1.3694
 5899TIP3    H217704   0.996   3.989   1.504 -0.0965  0.7380 -0.2702
 5900TIP3   OH217705   4.846   2.910   3.854  0.5934  0.3690 -0.2841
 5900TIP3    H117706   4.760   2.939   3.823  1.4811  1.5962 -1.7308
 5900TIP3    H217707   4.880   2.857   3.783  1.2022  0.2152  0.1151
 5901TIP3   OH217708   1.038   2.951   4.669 -0.4063  0.6083 -0.4122
 5901TIP3    H117709   0.978   2.886   4.705 -1.4361  0.8571 -1.6385
 5901TIP3    H217710   1.085   2.904   4.600 -2.3328  1.5164 -2.4656
 5902TIP3   OH217711   1.799   2.224   1.274 -0.0608  0.2204  0.2922
 5902TIP3    H117712   1.852   2.194   1.348  0.8230 -0.1390 -0.4692
 5902TIP3    H217713   1.712   2.188   1.291  0.8429 -2.4686 -0.3628
 5903TIP3   OH217714   2.314   5.503   1.980 -0.0820  0.7111 -0.1928
 5903TIP3    H117715   2.367   5.552   1.917  0.7135 -2.4575 -2.1933
 5903TIP3    H217716   2.224   5.521   1.953  0.1856  1.1239 -0.8500
 5904TIP3   OH217717   5.930   0.080   2.629  0.3885  0.1478  0.1029
 5904TIP3    H117718   5.983   0.018   2.579  1.0499 -0.1481  1.1219
 5904TIP3    H217719   5.840   0.062   2.602  0.7445  0.1875 -1.1580
 5905TIP3   OH217720   0.643   0.468   3.221  0.1428  0.2775 -0.1218
 5905TIP3    H117721   0.707   0.398   3.209  1.0378  0.9414  0.6566
 5905TIP3    H217722   0.590   0.465   3.141  2.6306  1.2112 -1.9369
 5906TIP3   OH217723   1.428   4.102   2.090  0.0275  0.3078  0.6464
 5906TIP3    H117724   1.487   4.109   2.015 -0.3857 -0.0159  0.2855
 5906TIP3    H217725   1.477   4.053   2.155 -0.2309 -0.9479 -0.0655
 5907TIP3   OH217726   2.724   3.952   0.996 -0.1848  0.2244  0.3325
 5907TIP3    H117727   2.803   3.975   0.949  1.0086  0.3962  2.2891
 5907TIP3    H217728   2.707   4.027   1.054 -1.7759  0.1820 -0.0164
 5908TIP3   OH217729   0.717   5.107   0.469  0.6974 -0.2961 -0.1110
 5908TIP3    H117730   0.682   5.176   0.412  0.4094  0.1578  0.6113
 5908TIP3    H217731   0.642   5.079   0.522  1.3564  0.5286  1.3001
 5909TIP3   OH217732   1.889   2.047   0.564 -0.3914 -0.0801 -0.2232
 5909TIP3    H117733   1.861   2.138   0.557  1.3241  0.4128 -1.3695
 5909TIP3    H217734   1.887   2.014   0.474  2.1737 -0.0983 -0.3586
 5910TIP3   OH217735   1.495   2.089   4.398 -0.5053 -1.1448  0.3527
 5910TIP3    H117736   1.570   2.113   4.452  0.4633  0.9447 -1.7292
 5910TIP3    H217737   1.515   2.001   4.366  2.0567  0.0155 -1.5819
 5911TIP3   OH217738   3.629   3.384   3.035  0.6665 -0.0028 -0.3423
 5911TIP3    H117739   3.657   3.367   3.125  1.1759  2.5254  0.0559
 5911TIP3    H217740   3.534   3.392   3.039  0.6083 -0.7545 -0.1985
 5912TIP3   OH217741   6.023   2.455   2.674 -0.9289  0.1416  0.4036
 5912TIP3    H117742   5.976   2.537   2.687  0.7754  1.1738  0.3137
 5912TIP3    H217743   6.076   2.444   2.753  0.4376  0.2303 -0.4742
 5913TIP3   OH217744   3.929   4.609   3.073  0.3466 -0.0261  0.1248
 5913TIP3    H117745   3.900   4.685   3.023  0.0021 -0.1992  0.0588
 5913TIP3    H217746   3.932   4.641   3.164 -2.2721 -0.5807  0.5037
 5914TIP3   OH217747   4.541   2.225   0.958  0.3928  0.1313  0.4370
 5914TIP3    H117748   4.605   2.177   0.905  0.6322 -0.5890  1.3675
 5914TIP3    H217749   4.459   2.178   0.946  0.0996  0.8306 -0.4464
 5915TIP3   OH217750   5.323   1.599   5.038  0.3290  0.2270 -0.1391
 5915TIP3    H117751   5.233   1.614   5.068  0.3622  1.7742 -0.7299
 5915TIP3    H217752   5.347   1.514   5.075 -0.5849  0.8141  1.9339
 5916TIP3   OH217753   2.951   2.930   2.504  0.0575 -0.2718  0.0248
 5916TIP3    H117754   2.895   2.995   2.461  1.0893  0.4276 -0.2802
 5916TIP3    H217755   2.999   2.979   2.570  1.7197 -0.4637 -0.9914
 5917TIP3   OH217756   1.215   5.043   0.928  0.3949  0.0692  0.3091
 5917TIP3    H117757   1.152   4.990   0.879  1.3368 -1.1075  0.3392
 5917TIP3    H217758   1.270   5.084   0.861  1.2001 -0.9320  0.3507
 5918TIP3   OH217759   2.394   3.728   2.935  0.2278  0.2995 -0.8348
 5918TIP3    H117760   2.362   3.726   2.845  1.0464  0.9236 -1.1597
 5918TIP3    H217761   2.429   3.817   2.946  1.1785 -0.1206 -0.2896
 5919TIP3   OH217762   1.395   1.986   4.696  0.2665  0.3440  0.5573
 5919TIP3    H117763   1.331   2.022   4.634  0.9946  0.7358  0.0103
 5919TIP3    H217764   1.412   1.898   4.663  0.4896  0.4738  0.3192
 5920TIP3   OH217765   5.995   4.660   3.057  0.3121 -0.3640  0.4983
 5920TIP3    H117766   5.943   4.645   3.136 -0.3587  0.9073  0.3255
 5920TIP3    H217767   5.939   4.632   2.985 -0.2315  1.0940  0.3056
 5921TIP3   OH217768   0.658   4.476   0.701  0.0545 -0.0181  0.2855
 5921TIP3    H117769   0.664   4.445   0.792  2.5723  0.3036  0.2862
 5921TIP3    H217770   0.564   4.491   0.687 -0.5099 -1.1365  2.4582
 5922TIP3   OH217771   5.449   1.211   1.188 -0.4552 -0.3612  0.4103
 5922TIP3    H117772   5.503   1.289   1.200 -1.6821  0.3953  1.1317
 5922TIP3    H217773   5.508   1.138   1.210  0.0271  0.4890  2.1311
 5923TIP3   OH217774   4.772   5.077   0.541  0.0967 -0.0172 -0.4504
 5923TIP3    H117775   4.852   5.131   0.538 -0.2624  0.5346 -0.1702
 5923TIP3    H217776   4.716   5.115   0.474 -0.2970  0.1726 -0.0132
 5924TIP3   OH217777   0.428   0.824   3.928 -0.5867  0.3904 -0.1406
 5924TIP3    H117778   0.450   0.733   3.946 -0.3505  0.4488 -0.1281
 5924TIP3    H217779   0.416   0.828   3.833 -0.4261  0.3827 -0.1614
 5925TIP3   OH217780   3.825   0.114   1.316  0.0674 -0.4341 -0.4448
 5925TIP3    H117781   3.914   0.144   1.332 -0.6646  0.4784  2.6045
 5925TIP3    H217782   3.784   0.187   1.269  0.2277  0.3292  0.5673
 5926TIP3   OH217783   3.113   5.645   1.150 -0.2991  0.5391  0.5774
 5926TIP3    H117784   3.026   5.613   1.170 -0.1137 -0.7970 -0.5842
 5926TIP3    H217785   3.118   5.641   1.054  1.3609 -0.3584  0.6627
 5927TIP3   OH217786   3.523   1.573   5.184  0.1970 -0.3273 -0.3407
 5927TIP3    H117787   3.595   1.617   5.141  0.4548 -0.9042 -0.5085
 5927TIP3    H217788   3.563   1.496   5.225 -0.4694 -1.2059 -1.2795
 5928TIP3   OH217789   1.760   0.439   3.025 -0.2858  0.4146 -0.4552
 5928TIP3    H117790   1.745   0.486   2.943 -1.3137  0.2459 -0.3852
 5928TIP3    H217791   1.792   0.353   2.999 -1.6801 -0.0460 -0.7618
 5929TIP3   OH217792   3.655   1.345   3.847 -0.0593 -0.0399 -0.0913
 5929TIP3    H117793   3.724   1.278   3.853 -0.3889 -0.2130  3.4671
 5929TIP3    H217794   3.703   1.427   3.837  0.6598 -0.2617  1.3237
 5930TIP3   OH217795   0.188   5.250   4.194 -0.1046  0.4454 -0.4326
 5930TIP3    H117796   0.186   5.207   4.279  0.2654  0.1476 -0.5738
 5930TIP3    H217797   0.217   5.339   4.213 -0.4539  0.5083 -0.1928
 5931TIP3   OH217798   0.487   2.162   0.789 -0.8372 -0.1884  0.3127
 5931TIP3    H117799   0.539   2.243   0.783  1.0158 -1.3845 -0.9059
 5931TIP3    H217800   0.397   2.190   0.770  0.0590  1.3129 -2.2297
 5932TIP3   OH217801   3.654   3.016   1.359  0.2071  0.2043 -0.0922
 5932TIP3    H117802   3.711   3.092   1.351  1.5137 -0.6478  0.9144
 5932TIP3    H217803   3.662   2.971   1.275  0.7283  0.2691 -0.0750
 5933TIP3   OH217804   2.609   2.232   0.717 -0.1721  0.4140  0.3173
 5933TIP3    H117805   2.595   2.193   0.803  1.3941 -1.7733 -0.3411
 5933TIP3    H217806   2.652   2.315   0.736  0.4467 -0.1717  1.6419
 5934TIP3   OH217807   5.735   3.692   2.448  0.6378 -0.2595 -0.6347
 5934TIP3    H117808   5.734   3.600   2.474  2.6906 -0.5386 -1.3844
 5934TIP3    H217809   5.819   3.725   2.479 -0.5421  1.7443  0.7226
 5935TIP3   OH217810   0.703   2.510   4.775  0.0614 -0.4586 -0.0152
 5935TIP3    H117811   0.739   2.436   4.824  0.3459 -1.3121 -1.4707
 5935TIP3    H217812   0.615   2.482   4.750 -0.5485  0.4533  0.9871
 5936TIP3   OH217813   3.306   5.856   0.030  0.3970  0.0185 -0.4041
 5936TIP3    H117814   3.295   5.867  -0.064 -0.7313  0.5132 -0.2298
 5936TIP3    H217815   3.391   5.814   0.039 -0.8058 -2.9876 -1.8292
 5937TIP3   OH217816   0.528   1.084   1.793  0.5437  0.4016 -0.1335
 5937TIP3    H117817   0.573   1.040   1.865  1.1197  0.1166 -0.6542
 5937TIP3    H217818   0.581   1.161   1.774  0.4459  0.4287 -0.3071
 5938TIP3   OH217819   0.326   5.955  -0.003 -0.3309 -0.5725 -0.0241
 5938TIP3    H117820   0.246   5.964  -0.055 -1.2120 -2.2777  0.9683
 5938TIP3    H217821   0.307   5.886   0.060  1.8421 -0.8407  0.4258
 5939TIP3   OH217822   6.032   0.430   1.953 -0.4383  0.1684 -0.3569
 5939TIP3    H117823   5.993   0.403   2.036 -0.3262  0.9848 -0.0281
 5939TIP3    H217824   5.970   0.494   1.917 -0.8505 -0.7060 -1.2652
 5940TIP3   OH217825   4.773   2.041   0.919  0.0701 -0.0294  0.0863
 5940TIP3    H117826   4.793   2.114   0.860 -1.7881  1.0363  0.6936
 5940TIP3    H217827   4.833   2.053   0.993  1.3230 -0.4616 -0.8263
 5941TIP3   OH217828   5.109   4.026   4.390  0.5314  0.0589 -0.0879
 5941TIP3    H117829   5.200   4.034   4.417  0.8616  0.1831 -1.2149
 5941TIP3    H217830   5.064   3.992   4.468  1.5182  0.0507  0.4924
 5942TIP3   OH217831   5.215   3.223   4.595  0.3553 -0.3545  0.2282
 5942TIP3    H117832   5.217   3.234   4.690  1.9033  2.5230 -0.0082
 5942TIP3    H217833   5.303   3.192   4.572 -0.4317 -2.4063 -0.2158
 5943TIP3   OH217834   3.243   5.306   3.022  0.0194 -0.0914 -0.1120
 5943TIP3    H117835   3.156   5.272   3.000  0.2571 -1.5228  0.9891
 5943TIP3    H217836   3.257   5.277   3.113  2.2928 -1.3291 -0.7782
 5944TIP3   OH217837   2.422   3.508   1.923 -0.4183  0.2884  0.2170
 5944TIP3    H117838   2.326   3.506   1.914 -0.4633  4.0115 -3.3517
 5944TIP3    H217839   2.446   3.596   1.894  4.2740 -1.1725 -1.1233
 5945TIP3   OH217840   5.136   0.771   1.441  0.0893  0.1721 -0.3485
 5945TIP3    H117841   5.197   0.783   1.514 -0.6668 -0.3318  0.3842
 5945TIP3    H217842   5.167   0.693   1.396  0.8904  0.8009 -0.9325
 5946TIP3   OH217843   2.480   3.219   2.371  0.7815 -0.2513 -0.4257
 5946TIP3    H117844   2.574   3.214   2.391  0.5415 -0.0562  0.8053
 5946TIP3    H217845   2.437   3.213   2.456 -0.2359  2.2311 -0.6864
 5947TIP3   OH217846   2.777   2.385   1.379  0.1817 -0.2007 -0.3715
 5947TIP3    H117847   2.852   2.426   1.421 -1.2974  1.3408  0.9434
 5947TIP3    H217848   2.814   2.326   1.314  2.4992  0.7794 -0.0232
 5948TIP3   OH217849   4.284   5.716   4.451 -0.2301  0.2832 -0.2726
 5948TIP3    H117850   4.311   5.673   4.533 -0.9865  1.0689  0.4038
 5948TIP3    H217851   4.241   5.796   4.479 -1.3847  0.0892 -1.3972
 5949TIP3   OH217852   0.868   5.683   0.767  0.9799 -0.5079 -0.6669
 5949TIP3    H117853   0.856   5.736   0.845  1.1497 -1.1937 -0.1669
 5949TIP3    H217854   0.839   5.739   0.695  3.3421  1.1646 -0.4519
 5950TIP3   OH217855   5.846   5.497   1.090  0.1399 -0.5941 -0.4489
 5950TIP3    H117856   5.815   5.479   1.179  0.1620  0.9834 -0.0984
 5950TIP3    H217857   5.844   5.412   1.046 -2.1562 -1.0129  0.3499
 5951TIP3   OH217858   2.879   5.962   0.762 -0.1156  0.0306 -0.6468
 5951TIP3    H117859   2.913   5.905   0.693 -3.2801 -0.9882 -1.5220
 5951TIP3    H217860   2.856   5.903   0.833 -0.8421  0.5634 -0.4348
 5952TIP3   OH217861   1.559   3.205   1.204 -0.5721 -0.1808  0.3605
 5952TIP3    H117862   1.640   3.221   1.253 -0.1191 -2.0012  0.2678
 5952TIP3    H217863   1.589   3.180   1.116 -1.2632 -0.3329  0.1645
 5953TIP3   OH217864   4.926   4.919   0.771 -0.2403 -0.0849  0.4681
 5953TIP3    H117865   4.974   4.848   0.814  0.4084  0.3979  0.5589
 5953TIP3    H217866   4.985   4.949   0.702  0.2380  1.4809  1.4874
 5954TIP3   OH217867   6.138   2.579   3.603  0.7870 -0.0406  0.5430
 5954TIP3    H117868   6.190   2.505   3.571 -0.1995  0.0389 -1.4039
 5954TIP3    H217869   6.048   2.547   3.603  0.3932  1.0184  0.0446
 5955TIP3   OH217870   0.565   2.226   1.186  0.2210  0.5637  0.3970
 5955TIP3    H117871   0.585   2.224   1.092  0.1087  1.5131  0.3449
 5955TIP3    H217872   0.547   2.318   1.205  0.6964  0.4544  1.4537
 5956TIP3   OH217873   3.973   1.858   0.929  0.3969 -0.0041  0.5034
 5956TIP3    H117874   3.892   1.908   0.936  0.9736  0.7704  2.5245
 5956TIP3    H217875   4.031   1.914   0.877 -0.2581 -0.4501 -0.7357
 5957TIP3   OH217876   3.818   4.008   3.686 -0.6481  0.0133  0.0112
 5957TIP3    H117877   3.826   3.962   3.603  1.5922  0.3519 -0.0072
 5957TIP3    H217878   3.801   4.099   3.663  1.2566  0.3571 -0.1568
 5958TIP3   OH217879   4.927   0.503   5.139 -0.3653  0.3406 -0.0408
 5958TIP3    H117880   4.925   0.451   5.059 -1.1365  0.7070 -0.2760
 5958TIP3    H217881   4.991   0.573   5.121 -0.5022  0.3934 -0.3215
 5959TIP3   OH217882   1.496   4.728   0.415  0.2803  0.2886 -0.1546
 5959TIP3    H117883   1.419   4.676   0.392  0.6643 -0.0740 -0.6257
 5959TIP3    H217884   1.464   4.788   0.483 -0.7955  1.1338 -1.3380
 5960TIP3   OH217885   2.498   5.257   3.091  0.0764  0.5844 -0.4068
 5960TIP3    H117886   2.465   5.180   3.044  0.3486 -0.8005  1.5492
 5960TIP3    H217887   2.425   5.319   3.088 -0.0340  0.4179 -2.2996
 5961TIP3   OH217888   0.154   1.763   1.469 -0.0186 -0.3659 -0.3237
 5961TIP3    H117889   0.077   1.780   1.523 -1.7449 -1.9811 -2.0783
 5961TIP3    H217890   0.222   1.821   1.503 -1.7974  0.6077  1.7630
 5962TIP3   OH217891   4.474   1.325   4.953  0.1033 -0.2448 -0.0442
 5962TIP3    H117892   4.489   1.304   5.045 -0.1533  0.6165  0.2076
 5962TIP3    H217893   4.455   1.419   4.953  0.9707 -0.0469 -1.0779
 5963TIP3   OH217894   5.954   4.291   3.069  0.0857 -0.1540 -0.7093
 5963TIP3    H117895   5.860   4.284   3.053  0.0331  0.3241 -0.6195
 5963TIP3    H217896   5.983   4.200   3.083 -0.4884 -0.2492 -0.0596
 5964TIP3   OH217897   5.452   3.707   1.329  0.0883 -0.1817 -0.1496
 5964TIP3    H117898   5.449   3.716   1.424  0.1265 -0.3961 -0.1273
 5964TIP3    H217899   5.389   3.637   1.309 -1.0003  0.8535 -0.4183
 5965TIP3   OH217900   2.588   3.517   4.167  0.4292 -0.0115  0.0533
 5965TIP3    H117901   2.520   3.581   4.150  0.8253  0.2571 -0.5593
 5965TIP3    H217902   2.654   3.565   4.218  0.3553 -0.1505  0.2786
 5966TIP3   OH217903   1.415   4.933   0.609  0.1197 -0.1110  0.1249
 5966TIP3    H117904   1.424   5.000   0.541  1.0149 -1.2443 -0.9082
 5966TIP3    H217905   1.478   4.959   0.676 -1.3597  1.4797  0.9667
 5967TIP3   OH217906   4.828   3.455   0.796 -0.3984 -0.3552  0.4803
 5967TIP3    H117907   4.765   3.389   0.824  0.3906 -1.2168  0.2543
 5967TIP3    H217908   4.914   3.414   0.809  0.0466 -0.5078 -2.3731
 5968TIP3   OH217909   2.455   2.889   4.011 -0.8608 -0.6349  0.0245
 5968TIP3    H117910   2.528   2.948   3.992 -2.8750  1.2794 -2.3505
 5968TIP3    H217911   2.447   2.891   4.106  0.3016  1.4965  0.1455
 5969TIP3   OH217912   2.046   1.793   0.897  0.5468 -0.1055  0.1550
 5969TIP3    H117913   1.989   1.817   0.824  1.9057 -0.5945 -1.1128
 5969TIP3    H217914   2.011   1.842   0.971 -1.5485 -0.4488 -0.5397
 5970TIP3   OH217915   5.079   0.152   0.957 -0.6584 -0.0118  0.0723
 5970TIP3    H117916   5.058   0.117   0.870  0.2166 -0.4869  0.0397
 5970TIP3    H217917   4.994   0.172   0.996 -1.2068 -2.0269  0.0350
 5971TIP3   OH217918   0.731   1.688   0.105 -0.1591  0.3405 -0.1434
 5971TIP3    H117919   0.758   1.703   0.014 -0.0212 -1.1914 -0.3855
 5971TIP3    H217920   0.804   1.719   0.157  0.0492  0.6083 -0.5833
 5972TIP3   OH217921   4.249   4.672   4.259 -0.4047 -0.0602  0.5247
 5972TIP3    H117922   4.180   4.733   4.286  0.0950  0.2982  1.0282
 5972TIP3    H217923   4.222   4.641   4.173 -1.4885 -0.3695  0.9552
 5973TIP3   OH217924   0.564   1.550   3.652  0.2379  0.1295 -0.3154
 5973TIP3    H117925   0.578   1.497   3.574 -1.1110 -1.0358  0.1855
 5973TIP3    H217926   0.471   1.539   3.672  0.3695  1.1045  0.9589
 5974TIP3   OH217927   1.072   3.563   5.073 -0.3204 -0.4128 -0.0330
 5974TIP3    H117928   1.089   3.468   5.072  0.4401 -0.3394  1.6849
 5974TIP3    H217929   1.069   3.588   4.981  2.1339 -1.6695 -0.5423
 5975TIP3   OH217930   2.196   3.215   1.762 -0.2592 -0.0774  0.0564
 5975TIP3    H117931   2.131   3.217   1.691  0.8106  1.1563 -0.9458
 5975TIP3    H217932   2.168   3.285   1.822 -0.3826 -0.1728  0.1092
 5976TIP3   OH217933   4.617   2.978   4.195  0.1309  0.1117  0.0051
 5976TIP3    H117934   4.709   2.961   4.174 -0.3439 -1.3485 -1.0038
 5976TIP3    H217935   4.580   2.892   4.215 -0.4080  0.9582  3.1901
 5977TIP3   OH217936   1.379   5.836   0.959 -0.4071 -0.5868  0.1819
 5977TIP3    H117937   1.393   5.912   0.902 -1.7202 -1.8393 -1.9828
 5977TIP3    H217938   1.291   5.806   0.936 -0.7517 -1.5282  2.5214
 5978TIP3   OH217939   3.869   1.557   3.838  0.0373  0.2130  0.4805
 5978TIP3    H117940   3.902   1.625   3.897  0.4182  0.2448  0.2328
 5978TIP3    H217941   3.947   1.513   3.805 -0.0833  0.9287 -0.8758
 5979TIP3   OH217942   4.143   1.788   5.118 -0.0417 -0.0376  0.1032
 5979TIP3    H117943   4.080   1.729   5.077 -0.5060  0.0915  0.6212
 5979TIP3    H217944   4.192   1.825   5.044 -1.9088  1.3863 -0.5082
 5980TIP3   OH217945   6.246   5.134   3.721 -0.0458 -0.2557  0.3437
 5980TIP3    H117946   6.334   5.122   3.685 -0.3650  0.2762 -0.6575
 5980TIP3    H217947   6.200   5.185   3.654 -1.7948 -2.3941 -0.2078
 5981TIP3   OH217948   5.679   3.724   4.599  0.0462  0.0395 -0.0110
 5981TIP3    H117949   5.614   3.773   4.649 -0.5259 -1.6159  0.9556
 5981TIP3    H217950   5.644   3.721   4.510 -0.9488 -0.3394  0.3703
 5982TIP3   OH217951   3.853   0.497   4.179  0.6044  0.5779 -0.2054
 5982TIP3    H117952   3.911   0.568   4.206  1.3889 -0.1020 -0.0838
 5982TIP3    H217953   3.770   0.541   4.158  1.0703  1.5235 -0.1205
 5983TIP3   OH217954   5.894   3.296   4.945  0.2232 -0.5966  0.1143
 5983TIP3    H117955   5.957   3.225   4.958  0.8370 -0.1123 -0.1411
 5983TIP3    H217956   5.918   3.362   5.011 -0.1199 -0.4764  0.1237
 5984TIP3   OH217957   1.207   0.467   0.844  0.6221  0.1616  0.0600
 5984TIP3    H117958   1.146   0.433   0.778  0.0400 -1.1227  1.1917
 5984TIP3    H217959   1.280   0.502   0.794 -0.1921  0.0161 -1.2833
 5985TIP3   OH217960   5.703   3.044   1.665  0.8416  0.4541 -0.6558
 5985TIP3    H117961   5.623   2.995   1.645  1.4162 -0.4545 -0.7455
 5985TIP3    H217962   5.746   2.994   1.733  2.3725 -0.1994 -2.0364
 5986TIP3   OH217963   4.398   2.598   3.948  0.1185 -0.2923  0.1088
 5986TIP3    H117964   4.326   2.660   3.950  0.3086 -0.0820  2.0939
 5986TIP3    H217965   4.445   2.618   3.868 -0.6026  1.2186  0.0391
 5987TIP3   OH217966   3.835   2.401   1.366 -0.2452  0.0363  0.1824
 5987TIP3    H117967   3.811   2.494   1.372 -0.9932 -0.1512  0.1624
 5987TIP3    H217968   3.927   2.399   1.390 -0.5870  0.6130  1.6699
 5988TIP3   OH217969   2.138   0.341   1.210 -0.0080 -0.3946  0.1348
 5988TIP3    H117970   2.094   0.261   1.239 -1.8364  0.3113 -0.5819
 5988TIP3    H217971   2.228   0.331   1.241 -0.4204 -2.3128  0.8452
 5989TIP3   OH217972   4.082   0.084   2.053  0.5224  0.0340  0.7376
 5989TIP3    H117973   4.130   0.112   2.131  0.7419 -1.1242  1.0291
 5989TIP3    H217974   3.992   0.114   2.069  0.5540 -0.2242  1.4492
 5990TIP3   OH217975   4.834   0.086   0.542  0.4389 -0.3332  0.4165
 5990TIP3    H117976   4.887   0.051   0.612 -0.2784 -3.3064 -0.3885
 5990TIP3    H217977   4.895   0.134   0.486  1.1080  1.5554  2.6256
 5991TIP3   OH217978   0.079   5.431   2.880 -0.2258  0.1534  0.4700
 5991TIP3    H117979   0.133   5.373   2.933  0.1948  0.3524  0.2569
 5991TIP3    H217980   0.030   5.371   2.822  0.5276  0.0265 -0.0533
 5992TIP3   OH217981   1.129   2.019   2.861 -0.0148 -0.2664 -0.0393
 5992TIP3    H117982   1.184   1.941   2.869  0.4237 -0.1612 -1.5590
 5992TIP3    H217983   1.191   2.089   2.836 -0.7393 -0.0338 -1.2641
 5993TIP3   OH217984   1.277   0.626   3.985 -0.1619  0.1441 -0.0892
 5993TIP3    H117985   1.257   0.717   4.007 -0.9975 -0.0075 -0.1966
 5993TIP3    H217986   1.329   0.595   4.059  0.4651  0.8160 -0.2282
 5994TIP3   OH217987   3.297   3.317   3.670 -0.0885 -0.6967 -0.2995
 5994TIP3    H117988   3.375   3.319   3.726 -0.0665  0.1586 -0.3617
 5994TIP3    H217989   3.257   3.403   3.682 -1.5766 -1.4657  0.5142
 5995TIP3   OH217990   4.812   1.532   1.306  0.0841  0.2077  0.1972
 5995TIP3    H117991   4.800   1.437   1.303 -1.7176  0.3542  1.2590
 5995TIP3    H217992   4.889   1.544   1.362  0.8766 -0.6358 -0.6813
 5996TIP3   OH217993   0.577   1.270   2.194 -0.2300  0.2355  0.0130
 5996TIP3    H117994   0.488   1.301   2.181 -0.7779 -1.7010 -1.4113
 5996TIP3    H217995   0.568   1.197   2.256  0.3959  0.1732  0.0383
 5997TIP3   OH217996   4.978   3.362   4.519  0.0534  0.3766 -0.5302
 5997TIP3    H117997   5.068   3.331   4.530  0.3453  1.2693 -0.2951
 5997TIP3    H217998   4.977   3.447   4.564 -1.2188 -0.1586  0.5213
 5998TIP3   OH217999   3.450   3.211   0.247  0.4006  0.5662  0.1614
 5998TIP3    H118000   3.368   3.191   0.292  0.9054 -1.6627  0.1779
 5998TIP3    H218001   3.512   3.228   0.319  0.3270  0.7234  0.1891
 5999TIP3   OH218002   1.148   4.528   4.838 -0.4634 -0.3023  0.4573
 5999TIP3    H118003   1.125   4.445   4.878 -1.8898  0.3761  1.1378
 5999TIP3    H218004   1.217   4.507   4.776  0.5813 -1.6764  1.9906
 6000TIP3   OH218005   1.437   3.799   1.593 -0.1408 -0.7666 -0.6564
 6000TIP3    H118006   1.420   3.745   1.516  0.5177 -2.4616  0.3301
 6000TIP3    H218007   1.532   3.799   1.602 -0.2406 -1.5124  0.7417
 6001TIP3   OH218008   0.847   4.467   4.489 -0.7175  0.6258  0.3016
 6001TIP3    H118009   0.901   4.522   4.544 -2.9676  1.2798  2.0273
 6001TIP3    H218010   0.757   4.483   4.520 -1.8718 -0.7298 -2.0559
 6002TIP3   OH218011   2.012   1.243   0.953  0.6845  0.1661 -0.1600
 6002TIP3    H118012   1.970   1.228   1.038  0.1756 -2.5865 -0.8017
 6002TIP3    H218013   1.979   1.329   0.926  0.4803  0.8999  2.1761
 6003TIP3   OH218014   4.676   1.845   2.958 -0.0969  0.2761  0.1989
 6003TIP3    H118015   4.718   1.765   2.990 -0.3154  0.2725  0.4866
 6003TIP3    H218016   4.589   1.843   2.998  0.0421  0.8674  0.5428
 6004TIP3   OH218017   0.798   3.314   0.443 -0.2617 -0.7356 -0.1836
 6004TIP3    H118018   0.789   3.306   0.348 -0.8600 -0.8917 -0.1207
 6004TIP3    H218019   0.714   3.349   0.472  0.9125  2.2513 -0.0280
 6005TIP3   OH218020   1.333   2.447   3.037  0.2666 -0.1274 -0.5424
 6005TIP3    H118021   1.405   2.434   2.975  1.3248 -1.8821  0.9500
 6005TIP3    H218022   1.354   2.529   3.082 -0.1046  0.7559 -1.9302
 6006TIP3   OH218023   2.714   3.414   1.633  0.3160  0.3038  0.0956
 6006TIP3    H118024   2.671   3.400   1.548  0.9966 -0.3098 -0.1615
 6006TIP3    H218025   2.709   3.508   1.647 -0.8714  0.2730 -0.0524
 6007TIP3   OH218026   2.536   1.493   1.388 -0.1317  0.5940 -0.1090
 6007TIP3    H118027   2.624   1.458   1.400 -0.2105  0.7693  1.0351
 6007TIP3    H218028   2.546   1.558   1.318  0.4731  0.0108 -0.5805
 6008TIP3   OH218029   2.525   2.627   3.275  0.4040  0.2033 -0.4814
 6008TIP3    H118030   2.467   2.569   3.325  0.8305  1.6974  1.9186
 6008TIP3    H218031   2.467   2.674   3.216 -0.9622  1.6427  1.8391
 6009TIP3   OH218032   5.388   0.687   4.618  0.0460  0.1605 -0.1044
 6009TIP3    H118033   5.340   0.620   4.569  0.3611  0.0969 -0.3253
 6009TIP3    H218034   5.357   0.677   4.708  0.1814 -0.3667 -0.1125
 6010TIP3   OH218035   4.144   0.801   2.762 -0.2343  0.4343  0.3370
 6010TIP3    H118036   4.212   0.865   2.742 -0.1658  1.4641  3.2891
 6010TIP3    H218037   4.062   0.849   2.747 -0.2551  0.2231 -0.2455
 6011TIP3   OH218038   2.048   3.470   4.996  0.2874 -0.1528 -0.3296
 6011TIP3    H118039   2.047   3.536   5.065  0.9649  0.5697 -0.9939
 6011TIP3    H218040   2.112   3.405   5.025  1.0666  0.4924 -0.5820
 6012TIP3   OH218041   3.754   3.531   1.111 -0.3727 -0.3526  0.3355
 6012TIP3    H118042   3.744   3.509   1.018  0.2436 -0.3560  0.2652
 6012TIP3    H218043   3.833   3.585   1.115  0.0527 -0.9907  0.9496
 6013TIP3   OH218044   1.775   3.621   0.207  0.0490  0.3648 -0.0040
 6013TIP3    H118045   1.841   3.642   0.141  0.4848  0.2506  0.3899
 6013TIP3    H218046   1.780   3.692   0.271 -0.3897  0.4894 -0.1033
 6014TIP3   OH218047   3.628   2.216   0.475  0.1996  0.1711  0.0033
 6014TIP3    H118048   3.682   2.225   0.396 -2.2635 -2.4720 -2.2126
 6014TIP3    H218049   3.682   2.164   0.535  1.2359  0.1542 -0.9104
 6015TIP3   OH218050   3.857   4.043   4.317  0.0751  0.0798 -0.1378
 6015TIP3    H118051   3.911   4.005   4.248  1.5004  3.0354 -0.8177
 6015TIP3    H218052   3.836   4.131   4.286 -3.2352 -0.0732  1.1966
 6016TIP3   OH218053   1.172   4.133   2.413  0.0524  0.0334  0.3202
 6016TIP3    H118054   1.265   4.146   2.433  0.0541 -0.2807  0.5249
 6016TIP3    H218055   1.158   4.181   2.332  0.4024  0.0530  0.2695
 6017TIP3   OH218056   3.931   5.032   4.994 -0.3620  0.1401 -0.5207
 6017TIP3    H118057   3.851   5.011   4.947 -0.4094  1.5902 -1.1485
 6017TIP3    H218058   4.000   4.986   4.945 -0.7319 -0.5698 -0.3760
 6018TIP3   OH218059   4.728   2.059   4.054 -0.3603 -0.4837  0.0998
 6018TIP3    H118060   4.688   2.145   4.064  2.3780  0.8772  0.3211
 6018TIP3    H218061   4.669   2.011   3.997 -1.7991  1.6678 -0.3174
 6019TIP3   OH218062   4.722   3.132   2.961  0.9630  0.0892  0.2960
 6019TIP3    H118063   4.651   3.197   2.967  2.2143  1.4332  1.2647
 6019TIP3    H218064   4.772   3.159   2.884 -1.1571 -2.6296 -2.2624
 6020TIP3   OH218065   3.927   0.324   3.848  0.4588 -0.0930 -0.5385
 6020TIP3    H118066   4.019   0.318   3.822  0.4435  1.4012 -1.0142
 6020TIP3    H218067   3.905   0.416   3.839 -0.6269 -0.1216  1.2145
 6021TIP3   OH218068   0.492   5.820   1.028  0.1293 -0.7180 -0.2501
 6021TIP3    H118069   0.445   5.878   0.969 -1.1113 -0.3758  1.0098
 6021TIP3    H218070   0.459   5.843   1.115  0.4836 -2.5094  0.3919
 6022TIP3   OH218071   4.651   2.368   3.822 -0.4335  0.3462  0.2543
 6022TIP3    H118072   4.577   2.408   3.777 -2.0564 -1.8130  0.8476
 6022TIP3    H218073   4.612   2.302   3.879  1.9078 -0.3919  1.1237
 6023TIP3   OH218074   0.183   3.287   1.571  0.3983 -0.0134  0.6402
 6023TIP3    H118075   0.188   3.269   1.665 -2.5356  0.6097  0.9883
 6023TIP3    H218076   0.210   3.378   1.562 -0.1687  0.1902  0.9947
 6024TIP3   OH218077   4.947   2.468   3.674  0.2803 -0.1532 -0.3400
 6024TIP3    H118078   5.021   2.410   3.690  0.8191  0.7652  0.6514
 6024TIP3    H218079   4.885   2.449   3.745  0.9849  1.2624  0.7155
 6025TIP3   OH218080   3.840   3.184   0.280  0.1643  0.4898  0.0438
 6025TIP3    H118081   3.809   3.190   0.370 -0.3076  0.3822 -0.1110
 6025TIP3    H218082   3.868   3.093   0.270  0.7076  0.6297  0.2361
 6026TIP3   OH218083   2.259   4.280   2.306  0.0584  0.3684  0.2049
 6026TIP3    H118084   2.320   4.320   2.244  0.9200  1.7841  1.8677
 6026TIP3    H218085   2.313   4.228   2.365 -0.3488  1.2655  1.4231
 6027TIP3   OH218086   2.474   2.508   4.794 -0.1468 -0.1143 -0.0185
 6027TIP3    H118087   2.410   2.481   4.728 -0.6845  0.9145  0.0654
 6027TIP3    H218088   2.553   2.528   4.744 -0.6092  0.8553 -0.3961
 6028TIP3   OH218089   3.204   3.579   4.692  0.5658 -0.2115  0.3575
 6028TIP3    H118090   3.169   3.497   4.658  1.0118 -0.1402 -0.2861
 6028TIP3    H218091   3.186   3.575   4.786  0.6100 -1.0608  0.3392
 6029TIP3   OH218092   3.442   3.633   3.695  0.5579  0.3471  0.1485
 6029TIP3    H118093   3.347   3.618   3.694  0.6081 -0.5602  2.2321
 6029TIP3    H218094   3.460   3.661   3.785  2.4456 -1.0360  0.2684
 6030TIP3   OH218095   0.192   3.184   2.435 -0.1262 -0.0083  0.5954
 6030TIP3    H118096   0.250   3.221   2.368  1.1250 -0.8771  1.1587
 6030TIP3    H218097   0.159   3.260   2.483  0.3370  0.5230  0.0859
 6031TIP3   OH218098   0.773   2.582   1.507 -0.3647 -0.2504 -0.0541
 6031TIP3    H118099   0.730   2.578   1.592 -0.0901 -0.1272  0.0938
 6031TIP3    H218100   0.702   2.597   1.444 -0.4589  0.6577  0.2605
 6032TIP3   OH218101   2.041   2.518   2.510 -0.1280 -0.0742 -0.3759
 6032TIP3    H118102   2.120   2.554   2.550 -0.0677 -1.1318  0.5130
 6032TIP3    H218103   2.032   2.565   2.427  1.0061  0.5867 -0.1417
 6033TIP3   OH218104   5.702   0.855   2.031 -1.1305  0.5152  0.2095
 6033TIP3    H118105   5.673   0.821   1.947 -3.9026  0.0408  1.2273
 6033TIP3    H218106   5.664   0.943   2.036 -1.6603  0.2496  1.2295
 6034TIP3   OH218107   4.687   0.942   4.385  0.0147 -0.3271  0.0813
 6034TIP3    H118108   4.682   0.850   4.412 -0.4359 -0.4974 -0.5750
 6034TIP3    H218109   4.629   0.988   4.445 -1.1515 -0.7356 -0.7124
 6035TIP3   OH218110   3.456   4.906   0.157 -0.4584 -0.2711  0.8907
 6035TIP3    H118111   3.548   4.879   0.153 -0.3208  0.0993  1.5326
 6035TIP3    H218112   3.408   4.824   0.168 -0.2189 -0.4803  0.4209
 6036TIP3   OH218113   1.342   3.112   0.366  0.3250  0.4925  0.8330
 6036TIP3    H118114   1.304   3.057   0.435 -1.2846  0.8948  0.3029
 6036TIP3    H218115   1.274   3.116   0.298  1.7612  0.3324 -0.6669
 6037TIP3   OH218116   5.355   0.816   2.118  0.3429 -0.3259  0.4112
 6037TIP3    H118117   5.265   0.804   2.090  0.7618  0.5032 -1.4683
 6037TIP3    H218118   5.403   0.744   2.075  1.1629  1.5502 -2.0821
 6038TIP3   OH218119   4.351   1.071   4.338 -0.6138 -0.4213 -0.4964
 6038TIP3    H118120   4.395   1.091   4.421  3.6635 -2.3377 -2.0431
 6038TIP3    H218121   4.410   1.104   4.271 -3.4457  0.1673 -2.9264
 6039TIP3   OH218122   2.010   5.843   1.908 -0.3044  0.5643 -0.6649
 6039TIP3    H118123   2.093   5.874   1.873 -0.0160  0.6458  0.0646
 6039TIP3    H218124   1.988   5.906   1.976  0.5608 -1.0375  1.2165
 6040TIP3   OH218125   4.954   1.689   0.960 -0.3917 -0.3802 -0.1081
 6040TIP3    H118126   4.859   1.677   0.962 -0.4644  0.2313  0.7044
 6040TIP3    H218127   4.972   1.750   1.032  0.7294 -1.2117  0.3487
 6041TIP3   OH218128   4.746   4.245   2.617  0.0758 -0.0880  0.0203
 6041TIP3    H118129   4.697   4.306   2.561  2.2005 -0.1869 -2.1279
 6041TIP3    H218130   4.733   4.160   2.576  2.0884 -0.0892 -0.7404
 6042TIP3   OH218131   2.306   1.994   4.109  0.3710  0.1333 -0.0342
 6042TIP3    H118132   2.400   1.998   4.093  0.6394 -0.2947  1.3151
 6042TIP3    H218133   2.275   1.921   4.055  0.7768  0.3613 -0.5820
 6043TIP3   OH218134   5.853   5.903   2.261  0.1087 -0.3469  0.3532
 6043TIP3    H118135   5.767   5.914   2.300  0.4379 -0.3663  1.1058
 6043TIP3    H218136   5.870   5.986   2.215 -0.7380 -0.7317 -0.6903
 6044TIP3   OH218137   5.963   2.227   4.106  0.1216  0.2591 -0.6905
 6044TIP3    H118138   5.902   2.159   4.078  0.1557 -0.0829  0.0335
 6044TIP3    H218139   5.963   2.222   4.202  0.1937  1.2188 -0.6242
 6045TIP3   OH218140   1.237   1.636   0.543 -0.1983  0.3709 -0.6348
 6045TIP3    H118141   1.179   1.575   0.498  0.7253 -1.4894  0.6062
 6045TIP3    H218142   1.324   1.597   0.534  0.3139  1.1097  0.8550
 6046TIP3   OH218143   4.626   5.470   0.295 -0.5973 -0.3185  0.0338
 6046TIP3    H118144   4.607   5.382   0.328  0.1665  0.0460  1.5656
 6046TIP3    H218145   4.719   5.483   0.314 -0.5293  0.5652 -0.8242
 6047TIP3   OH218146   1.063   2.917   2.375 -0.3054  0.2412 -0.1408
 6047TIP3    H118147   0.971   2.933   2.400 -0.7193 -1.3357 -0.5346
 6047TIP3    H218148   1.079   2.976   2.302 -1.4059 -0.2970 -0.8440
 6048TIP3   OH218149   0.774   4.189   5.019 -0.1741  0.3742 -0.6676
 6048TIP3    H118150   0.870   4.191   5.018 -0.1520 -0.3471 -0.2016
 6048TIP3    H218151   0.750   4.261   5.078  0.1152 -0.0915  0.0415
 6049TIP3   OH218152   2.944   5.413   0.014  0.2023  0.2228 -0.4275
 6049TIP3    H118153   2.854   5.379   0.013  0.6831 -1.4930  2.5248
 6049TIP3    H218154   2.956   5.448   0.103  2.1080  1.4870 -1.1186
 6050TIP3   OH218155   4.324   2.058   0.932 -0.0566 -0.5083 -0.1365
 6050TIP3    H118156   4.359   1.970   0.947  1.3302  0.2699  1.4898
 6050TIP3    H218157   4.266   2.048   0.856  0.7604 -2.6233 -0.5480
 6051TIP3   OH218158   3.131   0.335   3.086 -0.2394  0.2481 -0.2853
 6051TIP3    H118159   3.156   0.243   3.072 -0.9836  0.2316 -1.6166
 6051TIP3    H218160   3.101   0.365   3.000 -1.9550  1.1380  0.5834
 6052TIP3   OH218161   1.323   5.933   4.204 -0.2039 -0.1675  0.2856
 6052TIP3    H118162   1.362   5.878   4.135 -1.4557  0.4702 -0.9641
 6052TIP3    H218163   1.381   6.009   4.209 -0.3279 -0.0243 -0.3656
 6053TIP3   OH218164   0.124   5.340   3.535  0.5962  0.1019 -0.8440
 6053TIP3    H118165   0.031   5.361   3.530 -0.0040 -2.1339 -0.1100
 6053TIP3    H218166   0.155   5.346   3.445  0.0256  1.8600 -0.9688
 6054TIP3   OH218167   2.171   4.783   0.102 -0.1507 -0.6407  0.2968
 6054TIP3    H118168   2.227   4.813   0.174  0.5149 -1.2433  0.0334
 6054TIP3    H218169   2.105   4.852   0.094  1.8144  1.2212 -0.8251
 6055TIP3   OH218170   5.095   0.743   0.834  0.3362 -0.1449  0.6849
 6055TIP3    H118171   5.145   0.791   0.900  1.2068  0.7549 -0.5842
 6055TIP3    H218172   5.162   0.706   0.776 -0.4184 -0.7529  0.1913
 6056TIP3   OH218173   3.990   3.570   3.172  0.4948 -0.3471  0.2618
 6056TIP3    H118174   3.951   3.616   3.247  3.5331 -0.0889  1.8570
 6056TIP3    H218175   4.031   3.640   3.121 -0.3669 -0.6794 -0.9029
 6057TIP3   OH218176   4.044   4.901   5.208  0.0287  0.1981  0.0760
 6057TIP3    H118177   3.993   4.938   5.136  0.9663 -0.4122 -0.9467
 6057TIP3    H218178   4.135   4.911   5.180  0.4335  0.2912  1.3682
 6058TIP3   OH218179   5.579   4.646   3.153 -0.0996 -0.1699  0.1520
 6058TIP3    H118180   5.536   4.710   3.210 -0.4417  1.7735 -2.1465
 6058TIP3    H218181   5.514   4.626   3.086  0.2837 -2.4279  0.3665
 6059TIP3   OH218182   1.190   4.048   3.200  0.0615  0.1496 -0.3415
 6059TIP3    H118183   1.264   4.027   3.256 -0.7495 -0.6319  0.4690
 6059TIP3    H218184   1.117   4.061   3.260 -0.1815  2.4146 -1.0098
 6060TIP3   OH218185   0.848   2.768   1.108 -0.0044 -0.2677  0.1333
 6060TIP3    H118186   0.834   2.769   1.013  0.5154  1.4030  0.0545
 6060TIP3    H218187   0.769   2.806   1.144  0.4469  0.5755  0.2568
 6061TIP3   OH218188   0.073   3.883   0.685  0.1009  0.0307 -0.2330
 6061TIP3    H118189  -0.011   3.918   0.657  0.0826  0.9629  0.9063
 6061TIP3    H218190   0.057   3.789   0.698 -0.9903  0.3192  0.7251
 6062TIP3   OH218191   3.096   4.535   0.685 -0.3966  0.3999  0.1917
 6062TIP3    H118192   3.156   4.609   0.674  2.4506 -1.8782 -0.8861
 6062TIP3    H218193   3.094   4.519   0.780  1.7791 -0.2122  0.1783
 6063TIP3   OH218194   6.267   2.270   1.563  0.5171  0.8230 -0.2320
 6063TIP3    H118195   6.252   2.362   1.543  1.3342  0.8406 -0.7888
 6063TIP3    H218196   6.180   2.229   1.554 -0.1785  1.7833  1.5757
 6064TIP3   OH218197   5.897   2.421   2.033 -0.3039  0.0207  0.0021
 6064TIP3    H118198   5.900   2.367   1.954 -0.8750 -1.3192  0.8525
 6064TIP3    H218199   5.812   2.465   2.028  0.1032  0.7574 -0.6260
 6065TIP3   OH218200   0.674   4.883   0.036 -0.8032 -0.1570 -0.1051
 6065TIP3    H118201   0.663   4.975   0.009  1.4775  0.1568 -0.1985
 6065TIP3    H218202   0.599   4.838  -0.001 -0.4789  1.1892 -2.6196
 6066TIP3   OH218203   6.022   0.047   4.834 -0.1845  0.2880 -0.2065
 6066TIP3    H118204   6.096   0.024   4.890  2.0154  0.0652 -2.9775
 6066TIP3    H218205   6.031   0.142   4.820 -1.5169  0.5888  0.8373
 6067TIP3   OH218206   4.924   3.527   5.144  0.1194 -0.4528  0.3812
 6067TIP3    H118207   4.908   3.433   5.140 -0.5950 -0.3366  0.2407
 6067TIP3    H218208   4.836   3.565   5.153  0.2420  0.2993 -1.3235
 6068TIP3   OH218209   3.523   2.347   2.116  0.1842  0.3153 -0.7547
 6068TIP3    H118210   3.432   2.323   2.133  0.2591  0.3785 -0.2498
 6068TIP3    H218211   3.537   2.327   2.024 -0.5145  0.8571 -0.9853
 6069TIP3   OH218212   0.878   2.334   4.918 -0.2598 -0.0928 -0.2636
 6069TIP3    H118213   0.897   2.242   4.901 -1.8209 -0.4976  0.0337
 6069TIP3    H218214   0.880   2.342   5.014 -1.1925 -0.1012 -0.2257
 6070TIP3   OH218215   1.884   1.863   4.453 -0.1192  0.2655  0.8124
 6070TIP3    H118216   1.835   1.805   4.512 -0.1243 -1.2467 -0.6129
 6070TIP3    H218217   1.828   1.870   4.376  0.7589  0.6251  0.2072
 6071TIP3   OH218218   2.033   5.131   3.643  0.1464 -0.0466 -0.3296
 6071TIP3    H118219   1.977   5.143   3.720 -0.6083  2.3909 -1.1497
 6071TIP3    H218220   1.988   5.180   3.573  0.8802 -2.0344 -2.3067
 6072TIP3   OH218221   2.699   5.754   4.620  0.6193  0.0254  0.2707
 6072TIP3    H118222   2.752   5.687   4.664  1.9276 -0.3200 -1.6799
 6072TIP3    H218223   2.658   5.708   4.547 -3.2079  0.0835  2.1511
 6073TIP3   OH218224   3.969   0.807   3.469  0.1477  0.0999 -0.0197
 6073TIP3    H118225   3.908   0.821   3.541  1.6135 -0.9073  1.4889
 6073TIP3    H218226   3.945   0.722   3.433 -0.1021  0.2549 -0.2191
 6074TIP3   OH218227   3.244   5.250   4.219  0.2110 -0.1010 -0.1589
 6074TIP3    H118228   3.205   5.180   4.166 -1.8362  0.6320  0.2988
 6074TIP3    H218229   3.301   5.297   4.158  0.5731 -1.3391 -0.8083
 6075TIP3   OH218230   6.286   5.471   2.343 -0.2137 -0.7410 -0.0791
 6075TIP3    H118231   6.289   5.410   2.417 -0.8818 -1.1707 -0.3899
 6075TIP3    H218232   6.359   5.445   2.287  0.6266 -0.0663  0.6857
 6076TIP3   OH218233   3.502   3.015   3.591  0.2619  0.2275 -0.2197
 6076TIP3    H118234   3.501   2.939   3.649  2.6461  0.4430  0.1993
 6076TIP3    H218235   3.467   3.086   3.644  0.2435 -0.0764  0.1782
 6077TIP3   OH218236   4.889   2.669   1.466 -0.9227 -0.0648 -0.5466
 6077TIP3    H118237   4.915   2.613   1.540 -0.4586  1.7405  0.7358
 6077TIP3    H218238   4.901   2.614   1.389  1.3644 -1.1499  0.4790
 6078TIP3   OH218239   2.605   5.359   4.726 -0.1630 -0.0227  0.1445
 6078TIP3    H118240   2.532   5.420   4.724 -0.1277  0.0531  0.8716
 6078TIP3    H218241   2.573   5.282   4.680 -0.6974  0.0210  0.4368
 6079TIP3   OH218242   3.585   0.722   2.476  0.0423  0.2834  0.3026
 6079TIP3    H118243   3.515   0.768   2.522 -0.0085 -0.1564  0.6718
 6079TIP3    H218244   3.604   0.777   2.400 -1.3579 -0.0610 -0.3379
 6080TIP3   OH218245   2.564   2.023   3.878  0.3843  0.0846  0.0760
 6080TIP3    H118246   2.501   2.094   3.868  0.7965  0.2578 -1.5323
 6080TIP3    H218247   2.650   2.066   3.876  0.6291 -0.4119 -0.4716
 6081TIP3   OH218248   5.998   0.059   2.213  0.2605 -0.1340  0.6195
 6081TIP3    H118249   5.971   0.067   2.305  1.0533  1.0752  0.7667
 6081TIP3    H218250   6.041  -0.026   2.208 -0.8121 -0.7242  1.0873
 6082TIP3   OH218251   3.328   0.832   0.759  0.2454  0.6569  0.4995
 6082TIP3    H118252   3.331   0.740   0.786  1.0769  0.1722 -1.0761
 6082TIP3    H218253   3.398   0.874   0.808  0.1414  0.3577  0.9089
 6083TIP3   OH218254   3.217   3.645   4.022  0.1700  0.0818  0.6878
 6083TIP3    H118255   3.256   3.562   4.050 -0.5488 -1.2730 -1.9970
 6083TIP3    H218256   3.289   3.691   3.979 -0.3094 -1.0823 -1.5398
 6084TIP3   OH218257   0.856   1.986   4.458  0.2326 -0.2477  0.6401
 6084TIP3    H118258   0.795   2.000   4.387  3.2699  1.3949 -1.9012
 6084TIP3    H218259   0.838   2.056   4.521  0.2401  0.9444 -0.6525
 6085TIP3   OH218260   1.491   2.410   1.182  0.4085  0.1513 -0.3852
 6085TIP3    H118261   1.497   2.460   1.263 -0.1177 -0.0401 -0.2287
 6085TIP3    H218262   1.572   2.357   1.181  0.3580  0.0619  0.0741
 6086TIP3   OH218263   0.444   3.439   1.046 -0.1858  0.1716  0.2988
 6086TIP3    H118264   0.399   3.416   1.128 -0.6245  0.0841  0.0333
 6086TIP3    H218265   0.475   3.356   1.011 -0.1945  0.1845  0.2604
 6087TIP3   OH218266   5.938   1.941   3.074 -0.1988 -0.4822  0.0153
 6087TIP3    H118267   5.931   1.887   3.152  1.0782 -1.8019 -0.7147
 6087TIP3    H218268   5.941   1.878   3.002  0.5130  0.5931 -0.9349
 6088TIP3   OH218269   3.089   0.623   0.968  0.1889 -0.5986 -0.4468
 6088TIP3    H118270   3.066   0.538   1.006  0.6752  0.0313  1.3412
 6088TIP3    H218271   3.183   0.619   0.953  0.8687  0.6897  2.7295
 6089TIP3   OH218272   5.943   3.090   2.134 -0.6309 -0.5238  0.3439
 6089TIP3    H118273   6.021   3.053   2.174  0.0799  0.0525 -0.4633
 6089TIP3    H218274   5.875   3.025   2.150  0.0814 -1.1752  0.8107
 6090TIP3   OH218275   5.792   0.982   3.846  0.0010  0.1957 -0.2393
 6090TIP3    H118276   5.719   0.971   3.907 -0.2220 -1.5863 -0.7667
 6090TIP3    H218277   5.752   1.018   3.767 -0.3280 -0.7976 -0.5346
 6091TIP3   OH218278   0.595   0.846   1.043 -0.2364  0.1288  0.1742
 6091TIP3    H118279   0.670   0.813   1.094  0.1431 -0.0606 -0.4917
 6091TIP3    H218280   0.519   0.832   1.100  0.2944  0.8331  1.0892
 6092TIP3   OH218281   0.702   2.299   3.639 -0.0689 -0.1320 -0.1269
 6092TIP3    H118282   0.618   2.313   3.682  0.7346 -0.8328  1.7879
 6092TIP3    H218283   0.695   2.346   3.556 -2.1294  0.2852  0.2281
 6093TIP3   OH218284   2.060   4.804   2.294 -0.3628 -0.5563  0.0788
 6093TIP3    H118285   2.011   4.734   2.251  0.0689 -1.2906  0.7588
 6093TIP3    H218286   2.021   4.885   2.260 -1.3007 -1.1202 -0.2269
 6094TIP3   OH218287   5.259   5.078   4.275  0.3312  0.4057  0.2900
 6094TIP3    H118288   5.228   5.124   4.353 -0.7848 -0.8001  0.6097
 6094TIP3    H218289   5.332   5.130   4.243  0.0388  1.5811  1.4493
 6095TIP3   OH218290   0.866   0.583   4.201  0.4291  0.3588  0.9974
 6095TIP3    H118291   0.839   0.607   4.112 -0.3200 -0.1429  1.0842
 6095TIP3    H218292   0.864   0.488   4.202  0.3483  0.3644  1.5860
 6096TIP3   OH218293   0.488   1.240   1.276  0.3037  0.0499 -0.5469
 6096TIP3    H118294   0.472   1.220   1.184 -0.3897  0.1346 -0.4566
 6096TIP3    H218295   0.469   1.158   1.322 -0.4192  0.2967 -0.3845
 6097TIP3   OH218296   3.092   3.089   1.762 -0.4170 -0.4369  0.6130
 6097TIP3    H118297   3.081   3.041   1.680 -1.1922 -0.3896  0.6820
 6097TIP3    H218298   3.020   3.152   1.763 -0.6480 -0.6973  1.5098
 6098TIP3   OH218299   6.277   5.764   0.866  0.1582  0.3572 -0.1721
 6098TIP3    H118300   6.198   5.729   0.907 -0.5451  1.6852 -0.3162
 6098TIP3    H218301   6.312   5.826   0.931 -0.8371  2.3048 -1.3846
 6099TIP3   OH218302   2.963   4.348   1.097  0.0721 -0.5307  0.3244
 6099TIP3    H118303   2.894   4.283   1.106 -0.2981 -0.0119  1.3600
 6099TIP3    H218304   2.928   4.412   1.036 -0.4619 -0.1665  0.9977
 6100TIP3   OH218305   1.389   5.416   3.683  0.4282 -0.0581  0.2950
 6100TIP3    H118306   1.465   5.466   3.654  2.1131 -2.5838  0.0080
 6100TIP3    H218307   1.381   5.346   3.618 -0.6864 -1.1909  1.5930
 6101TIP3   OH218308   5.340   1.547   0.658 -0.5012  0.0747  0.2940
 6101TIP3    H118309   5.384   1.474   0.614  1.3295  0.1141  1.9108
 6101TIP3    H218310   5.258   1.510   0.690 -0.8273 -0.5300 -1.1683
 6102TIP3   OH218311   0.821   4.026   3.004 -0.4017 -0.1350 -0.9073
 6102TIP3    H118312   0.846   3.936   2.986 -1.0138 -0.5077 -0.0041
 6102TIP3    H218313   0.898   4.078   2.982 -0.3366 -0.7719 -2.2668
 6103TIP3   OH218314   3.157   4.424   4.549  0.4847  0.3023 -0.2080
 6103TIP3    H118315   3.204   4.493   4.595 -0.0622  0.3454  0.3059
 6103TIP3    H218316   3.164   4.348   4.607  0.7758  0.0279 -0.6004
 6104TIP3   OH218317   5.347   5.474   4.900  0.1424  0.4799  0.0067
 6104TIP3    H118318   5.354   5.438   4.989  3.4374 -1.3095 -0.7940
 6104TIP3    H218319   5.391   5.409   4.845 -0.3805  2.2827 -2.7285
 6105TIP3   OH218320   0.143   3.362   1.226 -0.4262  0.1970  0.4250
 6105TIP3    H118321   0.153   3.438   1.169  1.2197  0.2261  0.7193
 6105TIP3    H218322   0.068   3.383   1.282  0.6413  2.0672  1.2188
 6106TIP3   OH218323   5.113   2.946   3.903  0.6924  0.2338 -0.7383
 6106TIP3    H118324   5.139   2.873   3.847  0.8012 -1.0792  0.9553
 6106TIP3    H218325   5.021   2.962   3.880  1.1627  0.7999 -2.3787
 6107TIP3   OH218326   3.595   0.861   3.844 -0.0858 -0.1387  0.2829
 6107TIP3    H118327   3.565   0.905   3.764 -0.0031 -0.5300  0.0362
 6107TIP3    H218328   3.541   0.899   3.913 -0.8699 -0.5339 -0.1023
 6108TIP3   OH218329   0.496   1.734   3.301  0.3631  0.5296  0.3635
 6108TIP3    H118330   0.583   1.725   3.261 -0.3412  2.2972 -1.7538
 6108TIP3    H218331   0.461   1.815   3.263 -2.5806 -0.5998  0.4610
 6109TIP3   OH218332   4.237   0.733   5.044 -0.3329 -0.0304 -0.7081
 6109TIP3    H118333   4.259   0.657   5.097 -1.5018  1.2229  1.7194
 6109TIP3    H218334   4.303   0.799   5.068 -2.0201  1.2071  0.8257
 6110TIP3   OH218335   3.054   0.053   3.826  0.0132 -0.1363  0.1130
 6110TIP3    H118336   3.130   0.075   3.879 -0.4334 -0.7228  1.0405
 6110TIP3    H218337   3.036   0.131   3.774  1.1117  0.0745  0.0321
 6111TIP3   OH218338   3.107   3.446   1.274  0.1110 -0.2271 -0.1315
 6111TIP3    H118339   3.018   3.480   1.278 -0.0408 -0.5615 -0.6237
 6111TIP3    H218340   3.163   3.524   1.270 -0.0216  0.0596  2.3073
 6112TIP3   OH218341   5.729   4.680   4.527  0.3657 -0.1199  0.1686
 6112TIP3    H118342   5.813   4.684   4.572 -0.3781 -0.1813  1.6196
 6112TIP3    H218343   5.742   4.615   4.458  1.3502 -0.5189  0.7052
 6113TIP3   OH218344   0.550   3.230   4.242 -0.5364 -0.0090 -0.6437
 6113TIP3    H118345   0.512   3.315   4.222 -0.8906 -0.2976 -1.2439
 6113TIP3    H218346   0.534   3.178   4.163 -0.2820 -0.6148 -0.3017
 6114TIP3   OH218347   3.739   5.249   1.984  0.1829  0.0976  0.3787
 6114TIP3    H118348   3.780   5.257   1.898 -0.3271  0.4319  0.1595
 6114TIP3    H218349   3.803   5.285   2.045  2.0550 -3.2148  0.6159
 6115TIP3   OH218350   3.264   2.310   2.178 -0.3463 -0.3078  0.0207
 6115TIP3    H118351   3.182   2.281   2.137 -0.1136 -0.7970 -0.1095
 6115TIP3    H218352   3.256   2.284   2.269 -0.2371 -0.5725 -0.0443
 6116TIP3   OH218353   2.473   5.415   0.399 -0.4166 -0.2690 -0.6099
 6116TIP3    H118354   2.562   5.448   0.386 -1.0772  0.9919 -2.3593
 6116TIP3    H218355   2.434   5.475   0.462  0.0216 -0.9475  0.3179
 6117TIP3   OH218356   4.727   2.877   1.366  0.0662 -0.0448  0.1818
 6117TIP3    H118357   4.683   2.808   1.317 -1.6236  1.1734 -0.0980
 6117TIP3    H218358   4.797   2.832   1.415  0.0760 -1.6707 -1.2532
 6118TIP3   OH218359   3.452   2.263   2.795 -0.2978  0.0332 -0.0972
 6118TIP3    H118360   3.456   2.196   2.863 -0.1501  0.2262  0.0866
 6118TIP3    H218361   3.391   2.329   2.829 -0.6406 -0.1292 -0.3891
 6119TIP3   OH218362   3.299   0.519   2.341 -0.4193 -0.4059 -0.1592
 6119TIP3    H118363   3.354   0.477   2.408 -0.8997 -0.8619 -0.0359
 6119TIP3    H218364   3.246   0.582   2.390 -0.4978 -0.4656 -0.1663
 6120TIP3   OH218365   1.411   4.015   0.489  0.0637  0.4665  0.0373
 6120TIP3    H118366   1.479   4.050   0.546 -0.4971  0.1343  0.9159
 6120TIP3    H218367   1.357   4.090   0.467 -0.0269  0.4946  0.3636
 6121TIP3   OH218368   1.211   2.714   3.388 -0.1658  0.0303  0.3860
 6121TIP3    H118369   1.278   2.663   3.434 -0.6976 -0.5580  0.5213
 6121TIP3    H218370   1.129   2.669   3.408 -0.4603  0.0336 -0.7527
 6122TIP3   OH218371   3.634   5.717   1.119  0.5492  0.5870 -0.4809
 6122TIP3    H118372   3.562   5.752   1.067  1.6107  1.8857 -1.1159
 6122TIP3    H218373   3.617   5.622   1.121 -0.3870  0.6913 -1.8390
 6123TIP3   OH218374   4.228   1.657   4.717  0.3996 -0.2067  0.1307
 6123TIP3    H118375   4.177   1.712   4.657  1.7160  0.0399 -0.7981
 6123TIP3    H218376   4.175   1.578   4.729 -0.2324  0.0731 -0.7421
 6124TIP3   OH218377   2.205   5.582   4.248 -0.0647 -0.1440 -0.3867
 6124TIP3    H118378   2.129   5.567   4.191 -1.7554  0.9079  1.4571
 6124TIP3    H218379   2.271   5.621   4.191 -2.9025  4.2824 -1.1389
 6125TIP3   OH218380   3.090   4.647   1.248  0.7891  0.2734  0.5378
 6125TIP3    H118381   2.995   4.659   1.244  0.5462 -1.5111  0.0656
 6125TIP3    H218382   3.125   4.734   1.269 -1.0924  0.5165  3.0987
 6126TIP3   OH218383   2.004   1.377   0.257  0.2982  0.1063  0.2285
 6126TIP3    H118384   2.071   1.335   0.204  0.5349 -0.5812  1.0469
 6126TIP3    H218385   2.050   1.450   0.300 -0.1002  1.2216 -1.1512
 6127TIP3   OH218386   5.032   4.913   4.218 -0.1207 -0.4598 -0.3364
 6127TIP3    H118387   4.963   4.980   4.216  0.2414  0.0556  1.7900
 6127TIP3    H218388   5.113   4.963   4.214  0.1423 -0.8816 -0.2086
 6128TIP3   OH218389   0.174   4.130   0.856 -0.1005 -0.4832 -0.1829
 6128TIP3    H118390   0.179   4.047   0.810 -1.8101  0.2089 -1.7651
 6128TIP3    H218391   0.246   4.182   0.821 -0.7749 -0.3200 -1.3754
 6129TIP3   OH218392   5.026   3.013   4.933  0.5223 -0.1985 -0.7616
 6129TIP3    H118393   5.013   3.047   4.845  0.0345 -0.2751 -0.7246
 6129TIP3    H218394   4.942   2.973   4.956  1.5067 -2.8863 -1.4303
 6130TIP3   OH218395   3.693   2.932   5.115 -0.1472  0.4922  0.2819
 6130TIP3    H118396   3.642   3.013   5.123 -1.4178 -0.3673  1.3373
 6130TIP3    H218397   3.657   2.875   5.183  2.4983 -0.0524  1.3258
 6131TIP3   OH218398   1.556   0.179   1.575 -0.0050 -0.9447  0.2508
 6131TIP3    H118399   1.563   0.088   1.545 -0.2888 -1.2796  1.1911
 6131TIP3    H218400   1.484   0.215   1.523 -0.3744 -1.4710  0.3838
 6132TIP3   OH218401   4.309   3.682   3.362 -0.0795 -0.5472  0.0789
 6132TIP3    H118402   4.383   3.702   3.420  1.5283 -1.5006 -1.5281
 6132TIP3    H218403   4.253   3.624   3.415  1.0802 -0.9986  0.8675
 6133TIP3   OH218404   2.949   1.140   4.046  0.2023 -0.1884  0.3291
 6133TIP3    H118405   2.923   1.141   3.954  0.8895 -0.0164  0.1305
 6133TIP3    H218406   2.889   1.201   4.088  1.3208  1.4992 -0.4230
 6134TIP3   OH218407   2.473   0.333   1.648 -0.6750  0.4548  0.5610
 6134TIP3    H118408   2.439   0.256   1.602 -0.6991 -0.4037  1.9449
 6134TIP3    H218409   2.395   0.382   1.673 -0.6473  1.1277 -0.6077
 6135TIP3   OH218410   4.489   0.179   3.485 -0.4373 -0.1918 -0.0150
 6135TIP3    H118411   4.448   0.102   3.523 -1.3270 -0.4100 -1.3406
 6135TIP3    H218412   4.419   0.245   3.484 -0.5039 -0.2598 -1.3977
 6136TIP3   OH218413   3.821   1.632   0.843 -0.9404 -0.5591 -0.1403
 6136TIP3    H118414   3.865   1.705   0.887 -1.7610  1.2486 -2.1473
 6136TIP3    H218415   3.731   1.634   0.878 -0.9624 -0.6319 -0.1929
 6137TIP3   OH218416   1.302   1.024   5.033 -0.2681 -0.6313 -0.1116
 6137TIP3    H118417   1.247   1.015   5.110 -0.5568 -0.7935 -0.3329
 6137TIP3    H218418   1.354   0.944   5.031  0.0115 -0.4547  0.1265
 6138TIP3   OH218419   2.316   3.005   1.617 -0.1885 -0.7993  0.0770
 6138TIP3    H118420   2.299   3.093   1.649  0.9327 -0.8180  0.7715
 6138TIP3    H218421   2.230   2.963   1.613 -1.1926  1.2172 -3.0834
 6139TIP3   OH218422   5.696   0.438   2.359  0.2472 -0.2085 -0.0111
 6139TIP3    H118423   5.627   0.451   2.294  1.0755  1.0428 -0.6938
 6139TIP3    H218424   5.671   0.358   2.405 -1.1373 -0.3175 -0.8814
 6140TIP3   OH218425   0.959   1.767   0.258 -0.1302  0.7145 -0.2701
 6140TIP3    H118426   1.049   1.746   0.235 -0.6988  0.2976 -2.3084
 6140TIP3    H218427   0.952   1.747   0.351  2.6517  3.5161  0.7150
 6141TIP3   OH218428   0.912   5.971   2.415  0.5097 -0.1307 -0.0486
 6141TIP3    H118429   0.867   5.888   2.399  1.1625 -0.4869 -0.0541
 6141TIP3    H218430   0.997   5.962   2.371  1.2164 -0.0557  1.2544
 6142TIP3   OH218431   6.344   1.608   1.289 -0.3349 -0.0278  0.1173
 6142TIP3    H118432   6.376   1.682   1.341 -0.3358  0.7996 -1.0363
 6142TIP3    H218433   6.256   1.634   1.263 -0.8514 -1.0205  0.7930
 6143TIP3   OH218434   2.110   5.006   4.321  0.5712 -0.4442  0.1653
 6143TIP3    H118435   2.079   4.917   4.339 -0.1612 -0.5501 -1.4641
 6143TIP3    H218436   2.177   5.022   4.388  0.9946 -2.3707  0.2590
 6144TIP3   OH218437   3.266   5.394   4.780 -0.6944 -0.0834  0.1882
 6144TIP3    H118438   3.357   5.419   4.798 -0.6914 -0.7070  1.0917
 6144TIP3    H218439   3.260   5.392   4.684  0.6188 -1.3639  0.1041
 6145TIP3   OH218440   3.967   3.289   2.506 -0.3051 -0.2133  0.0839
 6145TIP3    H118441   3.965   3.358   2.573 -0.1580  1.6731 -1.7248
 6145TIP3    H218442   3.876   3.261   2.498 -0.4141 -0.0410  0.6655
 6146TIP3   OH218443   0.152   0.264   1.828 -0.0507 -0.2326  0.4260
 6146TIP3    H118444   0.088   0.334   1.835 -0.3067 -0.5012  0.7827
 6146TIP3    H218445   0.114   0.202   1.766  1.5091  1.3746 -2.3165
 6147TIP3   OH218446   4.599   4.922   2.343  0.1739 -0.3072  0.0740
 6147TIP3    H118447   4.693   4.922   2.360  0.0582 -0.9101  0.7581
 6147TIP3    H218448   4.569   5.008   2.372  0.7801  0.5691 -1.7802
 6148TIP3   OH218449   3.620   4.881   0.844 -0.2325 -0.5724  0.0795
 6148TIP3    H118450   3.590   4.871   0.935  0.4346 -0.9081  0.2711
 6148TIP3    H218451   3.556   4.941   0.804  0.1991  0.6439  1.1370
 6149TIP3   OH218452   5.569   4.734   3.585  0.2234 -0.5292 -0.3715
 6149TIP3    H118453   5.657   4.697   3.587  0.1671 -0.6311  0.6822
 6149TIP3    H218454   5.512   4.660   3.605  0.1394  0.1646  2.2249
 6150TIP3   OH218455   2.205   3.960   3.833 -0.1056  0.2399  0.1203
 6150TIP3    H118456   2.233   3.986   3.921  0.2489 -0.2942  0.1698
 6150TIP3    H218457   2.257   4.015   3.775  1.0184 -0.6915  0.2159
 6151TIP3   OH218458   4.965   5.196   4.240  0.2604 -0.4165 -0.0145
 6151TIP3    H118459   5.050   5.225   4.273  0.2624  0.4973 -0.7760
 6151TIP3    H218460   4.979   5.185   4.146 -0.4985 -0.0813 -0.1747
 6152TIP3   OH218461   3.545   2.700   0.729  0.1057 -0.2995  0.3655
 6152TIP3    H118462   3.585   2.737   0.807 -0.2560  1.2239 -0.1493
 6152TIP3    H218463   3.586   2.613   0.721  1.4104  0.1900  1.2804
 6153TIP3   OH218464   2.515   5.660   0.550 -0.3089  0.5758  0.1021
 6153TIP3    H118465   2.514   5.748   0.513  0.4189  1.5166  2.1671
 6153TIP3    H218466   2.447   5.661   0.618 -0.0997 -0.3803  0.3515
 6154TIP3   OH218467   0.218   2.352   1.783 -0.3546  0.2435 -0.0091
 6154TIP3    H118468   0.289   2.372   1.722  0.5584  0.7702  1.1679
 6154TIP3    H218469   0.263   2.324   1.863 -1.5262 -0.9685  0.2517
 6155TIP3   OH218470   0.942   0.657   1.429 -0.8802  0.4663  0.0051
 6155TIP3    H118471   0.920   0.566   1.448  0.5032  0.3833  1.3760
 6155TIP3    H218472   1.033   0.655   1.399 -1.2130  1.2889 -1.1442
 6156TIP3   OH218473   5.547   4.068   0.591 -0.2401  0.0527 -0.0416
 6156TIP3    H118474   5.631   4.114   0.594  1.4342 -2.6478 -1.6128
 6156TIP3    H218475   5.487   4.123   0.641  2.2854  2.4317  0.5491
 6157TIP3   OH218476   1.889   2.765   0.550 -0.2480 -0.0129  0.8457
 6157TIP3    H118477   1.939   2.690   0.518 -0.9978 -0.4808  0.7511
 6157TIP3    H218478   1.901   2.832   0.483  0.1077 -0.1863  0.7362
 6158TIP3   OH218479   3.645   4.843   3.227 -0.2458 -0.5833 -0.0223
 6158TIP3    H118480   3.654   4.749   3.212 -0.1733 -0.4227 -1.0334
 6158TIP3    H218481   3.600   4.876   3.149  2.0276  0.6206 -0.9107
 6159TIP3   OH218482   3.543   5.174   1.115 -0.2422 -0.2201 -0.0461
 6159TIP3    H118483   3.513   5.084   1.103  0.7673 -0.5202 -0.5187
 6159TIP3    H218484   3.576   5.199   1.028  0.1116  0.3533  0.2514
 6160TIP3   OH218485   5.220   5.813   4.502 -0.3613 -0.1814  0.8399
 6160TIP3    H118486   5.212   5.722   4.530 -0.9771 -0.8144 -1.1954
 6160TIP3    H218487   5.220   5.809   4.406 -0.1993  1.9498  0.6941
 6161TIP3   OH218488   0.936   4.997   4.349 -0.0734  0.3132 -0.7277
 6161TIP3    H118489   0.873   5.069   4.354 -1.0375 -0.5567 -0.0296
 6161TIP3    H218490   0.888   4.926   4.308  0.8354  0.0020 -1.2839
 6162TIP3   OH218491   4.903   5.254   1.467 -0.3475  0.8223 -0.3149
 6162TIP3    H118492   4.823   5.307   1.466  0.8061  2.6540 -0.6462
 6162TIP3    H218493   4.878   5.175   1.515 -2.5813  0.9212 -1.1739
 6163TIP3   OH218494   2.746   2.667   1.423  0.2045  0.2958  0.1118
 6163TIP3    H118495   2.711   2.578   1.410 -0.7930  0.7456 -0.3838
 6163TIP3    H218496   2.740   2.680   1.518  0.6726 -0.2860  0.2292
 6164TIP3   OH218497   4.318   2.647   0.599  0.0074  0.0541  0.4565
 6164TIP3    H118498   4.371   2.704   0.544 -0.0474 -0.5209 -0.2106
 6164TIP3    H218499   4.277   2.705   0.663  1.7251  0.4693  1.2230
 6165TIP3   OH218500   3.508   3.066   4.746  0.4765  0.1216  0.2702
 6165TIP3    H118501   3.557   3.113   4.679  1.2776 -1.1180 -0.0480
 6165TIP3    H218502   3.488   3.132   4.812 -1.3811  1.6785 -1.6809
 6166TIP3   OH218503   4.054   3.290   3.124  0.2209 -0.1561 -0.7800
 6166TIP3    H118504   4.149   3.301   3.115  0.2239  0.7869  0.3108
 6166TIP3    H218505   4.019   3.378   3.114 -0.4290 -0.2945  0.2334
 6167TIP3   OH218506   3.792   1.358   2.508  0.5797 -0.4265  0.2022
 6167TIP3    H118507   3.713   1.327   2.463  1.1783 -2.1415  0.2549
 6167TIP3    H218508   3.862   1.349   2.443  1.2231 -1.6948  1.0276
 6168TIP3   OH218509   2.582   2.488   4.369  0.1493  0.4012  0.0620
 6168TIP3    H118510   2.535   2.433   4.306 -0.0198  0.2077  0.3550
 6168TIP3    H218511   2.674   2.460   4.360 -0.1987 -1.6492  1.8620
 6169TIP3   OH218512   2.355   0.417   3.404  0.2515  0.4963 -0.0626
 6169TIP3    H118513   2.389   0.489   3.456  0.3562  0.4548 -0.0741
 6169TIP3    H218514   2.264   0.441   3.387  0.7211  1.4287 -1.4613
 6170TIP3   OH218515   0.243   1.389   1.966 -0.5255  0.4927 -0.1682
 6170TIP3    H118516   0.213   1.477   1.942 -0.7167  0.3107 -0.6076
 6170TIP3    H218517   0.177   1.330   1.929 -0.5139  0.1707  0.3043
 6171TIP3   OH218518   2.555   4.061   4.509 -0.4238 -0.3459  0.0044
 6171TIP3    H118519   2.650   4.062   4.508 -0.1544 -4.0490  2.5151
 6171TIP3    H218520   2.530   4.005   4.435 -0.6629  0.0191 -0.2007
 6172TIP3   OH218521   2.944   4.430   3.637  0.0461 -0.1447  0.6105
 6172TIP3    H118522   2.943   4.524   3.620  0.7951 -0.0311  1.1869
 6172TIP3    H218523   2.866   4.397   3.592  0.1680  0.6396 -0.1975
 6173TIP3   OH218524   5.925   5.363   3.100 -0.0133  0.2255 -0.1811
 6173TIP3    H118525   5.884   5.450   3.106 -0.7945 -0.0117 -1.7291
 6173TIP3    H218526   5.956   5.357   3.010 -0.5851 -1.3889 -0.2984
 6174TIP3   OH218527   1.490   2.947   0.781 -0.3802 -0.3808 -0.1266
 6174TIP3    H118528   1.450   2.864   0.755 -1.4461 -0.5151  1.7657
 6174TIP3    H218529   1.430   3.014   0.746 -0.1789 -0.4320 -0.5845
 6175TIP3   OH218530   2.002   5.241   4.114 -0.6568 -0.7631  0.3406
 6175TIP3    H118531   1.983   5.320   4.164 -1.1453 -1.9385  2.1305
 6175TIP3    H218532   1.920   5.191   4.117  0.2486 -2.2645  1.0929
 6176TIP3   OH218533   2.517   4.920   4.392 -0.0055 -0.1477  0.0477
 6176TIP3    H118534   2.519   4.996   4.334 -0.1300 -0.2119 -0.0438
 6176TIP3    H218535   2.568   4.853   4.346 -1.2983 -0.6740 -0.6840
 6177TIP3   OH218536   0.602   1.998   2.919  0.6041 -0.0830 -0.8152
 6177TIP3    H118537   0.515   2.002   2.878  0.1853 -0.5461  0.0207
 6177TIP3    H218538   0.663   2.000   2.845 -0.0274  2.2153 -1.3741
 6178TIP3   OH218539   0.398   3.238   0.831 -0.3386  0.1859  0.3335
 6178TIP3    H118540   0.430   3.202   0.913  1.9769  1.2868  0.0044
 6178TIP3    H218541   0.359   3.164   0.785 -3.2853 -0.1303  3.0416
 6179TIP3   OH218542   1.030   3.781   0.105  0.0274  0.2505  0.1812
 6179TIP3    H118543   1.077   3.790   0.188  1.2453  0.0537 -0.4615
 6179TIP3    H218544   1.012   3.871   0.078  1.3386  0.4024 -0.2628
 6180TIP3   OH218545   1.721   2.993   0.624  0.3762 -0.3186 -0.4387
 6180TIP3    H118546   1.788   2.927   0.644  0.0752  0.3625  3.9447
 6180TIP3    H218547   1.640   2.954   0.656 -0.1100  1.3928  0.5044
 6181TIP3   OH218548   2.367   1.159   4.275 -0.7030 -0.1427  0.3057
 6181TIP3    H118549   2.391   1.069   4.254 -0.0071 -0.3154  1.6717
 6181TIP3    H218550   2.385   1.167   4.369  0.9470  1.9278 -0.0942
 6182TIP3   OH218551   0.057   4.032   2.543  0.1142 -0.2984 -0.0523
 6182TIP3    H118552   0.148   4.055   2.558  1.1145 -1.8979 -2.8729
 6182TIP3    H218553   0.055   3.936   2.547 -1.6466 -0.2595  0.8654
 6183TIP3   OH218554   1.143   3.451   3.950 -0.3484 -1.1424  0.5444
 6183TIP3    H118555   1.130   3.491   4.036 -0.9080 -0.4393  0.1480
 6183TIP3    H218556   1.224   3.490   3.918 -0.9632 -0.1989  0.1026
 6184TIP3   OH218557   0.023   2.415   1.239  0.5315  0.2651 -0.1181
 6184TIP3    H118558   0.043   2.499   1.196  0.4980 -0.5200 -1.7353
 6184TIP3    H218559   0.040   2.432   1.332  3.1597  1.3166 -0.6693
 6185TIP3   OH218560   5.159   2.682   2.606  0.3700  0.8420  0.4343
 6185TIP3    H118561   5.107   2.631   2.544 -1.3287  1.6342  1.1588
 6185TIP3    H218562   5.101   2.696   2.680  2.3828 -0.1659  2.3020
 6186TIP3   OH218563   4.598   3.182   4.766  0.9036 -0.3087  0.4355
 6186TIP3    H118564   4.521   3.232   4.739  1.1924 -0.4506 -0.7296
 6186TIP3    H218565   4.566   3.123   4.834  0.2168  0.3547  0.6984
 6187TIP3   OH218566   2.861   5.550   4.796 -0.1970 -0.2522 -0.0510
 6187TIP3    H118567   2.856   5.599   4.878 -0.6754 -2.7015  1.5018
 6187TIP3    H218568   2.952   5.561   4.767  0.4745 -0.6893  1.7552
 6188TIP3   OH218569   1.611   3.125   2.181 -0.3217 -0.2918  0.8414
 6188TIP3    H118570   1.676   3.196   2.176 -1.0874  0.3579 -0.2759
 6188TIP3    H218571   1.533   3.160   2.138 -0.5728 -1.9821 -0.1984
 6189TIP3   OH218572   2.552   5.163   3.339 -0.3711  0.3884  0.3984
 6189TIP3    H118573   2.545   5.068   3.325 -0.9115  0.6899 -1.8891
 6189TIP3    H218574   2.549   5.200   3.251  1.2837  2.4809  1.1370
 6190TIP3   OH218575   5.637   5.542   4.902 -0.3342  0.4282 -0.9772
 6190TIP3    H118576   5.615   5.451   4.884  0.9181 -0.0175 -0.3920
 6190TIP3    H218577   5.665   5.577   4.818  1.2131 -0.3597 -0.8218
 6191TIP3   OH218578   5.225   4.682   1.080 -0.3195  0.4407  0.1700
 6191TIP3    H118579   5.252   4.769   1.110  0.0634  0.1475  0.6856
 6191TIP3    H218580   5.305   4.642   1.047  0.1521 -0.8101  2.6109
 6192TIP3   OH218581   4.166   3.191   1.543 -0.4056 -0.1634  0.1480
 6192TIP3    H118582   4.149   3.137   1.621  0.7077 -1.5331 -0.5021
 6192TIP3    H218583   4.262   3.195   1.538 -0.4714  0.0681 -1.0437
 6193TIP3   OH218584   1.144   3.211   2.490  0.0935  0.2359 -0.6217
 6193TIP3    H118585   1.167   3.131   2.443 -0.0565 -1.0069  1.3513
 6193TIP3    H218586   1.048   3.211   2.491  0.0745 -0.8678  1.4418
 6194TIP3   OH218587   5.553   5.963   4.854  0.2645  0.7312 -0.1565
 6194TIP3    H118588   5.562   5.955   4.949 -0.3669  2.0920  0.0466
 6194TIP3    H218589   5.504   6.044   4.841 -0.5198  0.0719 -1.6226
 6195TIP3   OH218590   2.397   2.525   2.716  0.3858  0.5948 -0.3669
 6195TIP3    H118591   2.423   2.606   2.760 -0.0022 -0.0097  1.0317
 6195TIP3    H218592   2.325   2.491   2.769 -0.9795  0.4634 -2.1910
 6196TIP3   OH218593   4.693   2.182   3.244 -0.1578 -0.3976  0.0713
 6196TIP3    H118594   4.733   2.124   3.180 -0.7187  0.4702 -1.1191
 6196TIP3    H218595   4.687   2.266   3.199  0.1600  0.4528  1.5656
 6197TIP3   OH218596   0.832   3.631   1.504 -0.1107 -0.7770  0.7092
 6197TIP3    H118597   0.806   3.644   1.413  0.3198 -1.1538  0.5323
 6197TIP3    H218598   0.912   3.578   1.499 -0.1204 -0.8503  1.3060
 6198TIP3   OH218599   1.117   5.731   0.930 -0.0862 -0.0742 -0.3307
 6198TIP3    H118600   1.062   5.740   0.852 -1.7909 -0.0498  0.8113
 6198TIP3    H218601   1.055   5.734   1.003  1.4607 -0.0374  1.0369
 6199TIP3   OH218602   2.260   1.499   1.083 -0.3668 -0.0873  0.1802
 6199TIP3    H118603   2.283   1.575   1.136  1.1546  0.3410 -1.0215
 6199TIP3    H218604   2.266   1.424   1.142 -1.1885  0.6244  1.1996
 6200TIP3   OH218605   5.206   0.249   0.617  0.4011 -0.1700  0.2634
 6200TIP3    H118606   5.129   0.287   0.659  1.0855 -0.2847  1.6809
 6200TIP3    H218607   5.255   0.324   0.585 -0.6468 -0.1246 -1.3595
 6201TIP3   OH218608   0.525   2.316   4.895 -0.0894  0.5078  0.2114
 6201TIP3    H118609   0.557   2.232   4.929 -3.5421 -0.5586  1.2122
 6201TIP3    H218610   0.461   2.292   4.828  0.4015  2.4471 -1.0252
 6202TIP3   OH218611   4.891   4.987   4.490  0.0683 -0.3759  0.3627
 6202TIP3    H118612   4.940   4.967   4.569  0.1397  0.3098  0.4989
 6202TIP3    H218613   4.950   5.040   4.437 -0.1502 -0.4270  0.0620
 6203TIP3   OH218614   1.754   1.865   5.045 -0.1847  0.7346 -0.1960
 6203TIP3    H118615   1.846   1.889   5.055 -0.1235  0.2916  0.3889
 6203TIP3    H218616   1.718   1.929   4.984  0.5336  0.8543 -0.4996
 6204TIP3   OH218617   3.938   3.337   4.338  0.1439  0.0605 -0.0905
 6204TIP3    H118618   3.845   3.359   4.342  0.3763  0.9494  0.7099
 6204TIP3    H218619   3.966   3.370   4.252 -0.3532 -0.5686 -0.5044
 6205TIP3   OH218620   0.999   4.424   1.545 -0.5660  0.1284 -0.0404
 6205TIP3    H118621   1.021   4.440   1.454 -2.4508  0.4195 -0.4851
 6205TIP3    H218622   0.923   4.480   1.562 -1.6904 -1.6066  1.0073
 6206TIP3   OH218623   3.830   2.762   3.929 -0.0768 -0.0879 -0.2038
 6206TIP3    H118624   3.859   2.853   3.938  1.5034 -0.6250  0.3973
 6206TIP3    H218625   3.904   2.710   3.959 -1.4189 -1.5648  0.7207
 6207TIP3   OH218626   4.892   3.781   1.894  0.3404  0.6297  0.0423
 6207TIP3    H118627   4.938   3.811   1.815 -0.5476  0.7022 -0.4531
 6207TIP3    H218628   4.937   3.700   1.919  1.0306  0.9395 -0.1642
 6208TIP3   OH218629   4.070   4.335   3.105 -0.4947 -0.6555  0.1429
 6208TIP3    H118630   4.033   4.422   3.090 -0.7022 -0.8980 -0.7768
 6208TIP3    H218631   3.993   4.278   3.113 -0.3782 -1.2351 -2.2157
 6209TIP3   OH218632   4.343   4.394   1.923 -0.5058  0.2516  0.2156
 6209TIP3    H118633   4.418   4.379   1.981 -1.4546  0.2784  1.4960
 6209TIP3    H218634   4.278   4.437   1.978 -1.7894 -0.5272 -0.6436
 6210TIP3   OH218635   0.186   3.322   4.060 -0.1818  0.1179 -0.1947
 6210TIP3    H118636   0.224   3.240   4.093 -1.0502  0.6037  2.1816
 6210TIP3    H218637   0.244   3.347   3.988  2.4304 -0.5723  1.4927
 6211TIP3   OH218638   2.859   5.681   0.964  0.1765 -0.3516  0.2034
 6211TIP3    H118639   2.810   5.652   0.887 -0.3544  1.3766 -0.1351
 6211TIP3    H218640   2.797   5.733   1.014  1.5002  1.5565 -0.0263
 6212TIP3   OH218641   6.084   3.910   1.516  0.4210  0.0616  1.0015
 6212TIP3    H118642   6.055   3.995   1.549 -1.9108 -0.0294 -0.5780
 6212TIP3    H218643   6.036   3.898   1.434  2.7339 -1.5955 -0.2415
 6213TIP3   OH218644   2.964   2.719   0.881 -0.0434  0.4132  0.3384
 6213TIP3    H118645   2.896   2.686   0.823 -0.3860 -1.2100  1.6087
 6213TIP3    H218646   2.974   2.811   0.856 -2.3722  0.5730 -0.1853
 6214TIP3   OH218647   5.358   1.483   0.192  0.1505  0.3222  0.6237
 6214TIP3    H118648   5.418   1.537   0.243  4.0601 -0.2251 -2.8735
 6214TIP3    H218649   5.389   1.394   0.204 -2.0324 -0.4439  1.1011
 6215TIP3   OH218650   1.964   1.877   2.191  0.2003  0.0870 -0.4170
 6215TIP3    H118651   2.012   1.805   2.151 -0.3315  0.2970 -1.4596
 6215TIP3    H218652   1.968   1.859   2.285  0.0686 -1.2948 -0.6590
 6216TIP3   OH218653   2.180   3.003   3.617 -0.7697  0.2524  0.5582
 6216TIP3    H118654   2.152   2.915   3.594  0.7951 -0.1660  0.1558
 6216TIP3    H218655   2.270   2.993   3.646  0.2868  2.0065 -1.7783
 6217TIP3   OH218656   0.946   2.224   2.780  0.3816 -0.0556 -0.0476
 6217TIP3    H118657   1.009   2.166   2.822  0.3586  1.0572  1.6491
 6217TIP3    H218658   1.000   2.288   2.733  0.5502  0.5247  0.8919
 6218TIP3   OH218659   3.452   1.521   4.079 -0.2604 -0.0289  0.1875
 6218TIP3    H118660   3.371   1.542   4.033  0.8285  2.2734 -0.8185
 6218TIP3    H218661   3.522   1.543   4.017  1.2048  0.8588  2.0403
 6219TIP3   OH218662   5.894   5.227   1.189  0.0215  0.0019  0.2978
 6219TIP3    H118663   5.838   5.221   1.267  0.0511 -0.0985  0.3120
 6219TIP3    H218664   5.917   5.136   1.170 -2.6961 -0.3577 -1.7963
 6220TIP3   OH218665   1.309   2.869   4.840  0.0928  0.2751 -0.3244
 6220TIP3    H118666   1.298   2.856   4.746  0.0782  2.5929 -0.6995
 6220TIP3    H218667   1.220   2.870   4.875  0.1056 -0.7986 -0.2136
 6221TIP3   OH218668   3.833   0.499   4.477  0.9640 -0.2040 -0.2947
 6221TIP3    H118669   3.859   0.590   4.463  4.4892 -1.0363 -0.0478
 6221TIP3    H218670   3.799   0.471   4.392  1.1196  0.9625 -0.7640
 6222TIP3   OH218671   0.052   3.434   3.286  0.2668  0.3947  0.3887
 6222TIP3    H118672  -0.016   3.404   3.347  0.2012 -0.1490  0.0569
 6222TIP3    H218673   0.059   3.528   3.302 -1.6546  0.7631 -0.6177
 6223TIP3   OH218674   4.029   5.795   2.198 -0.7853  0.6879 -0.0444
 6223TIP3    H118675   4.020   5.719   2.141 -1.0732 -1.7389  2.9646
 6223TIP3    H218676   4.123   5.802   2.215 -0.7423  1.1206 -0.4582
 6224TIP3   OH218677   1.051   0.569   0.598  0.2778 -0.6232  0.2177
 6224TIP3    H118678   1.056   0.664   0.603 -0.0525 -0.4737 -1.5603
 6224TIP3    H218679   1.075   0.548   0.507  1.1121 -2.2974  0.7823
 6225TIP3   OH218680   0.817   2.941   2.004 -0.1468  0.7507 -0.6395
 6225TIP3    H118681   0.909   2.944   2.029  0.1203 -0.3467 -1.4188
 6225TIP3    H218682   0.812   2.995   1.925 -0.3852  1.6623 -0.0128
 6226TIP3   OH218683   5.021   4.150   2.691 -0.3422  0.3697  0.0601
 6226TIP3    H118684   5.009   4.105   2.775 -2.8471 -0.5175 -0.6916
 6226TIP3    H218685   4.935   4.188   2.672  0.1612  0.5132 -2.1340
 6227TIP3   OH218686   4.649   5.589   3.966  0.8925 -0.9605 -0.4430
 6227TIP3    H118687   4.618   5.675   3.937 -1.1477 -1.5705 -0.2491
 6227TIP3    H218688   4.609   5.577   4.052  0.1470 -2.5833 -0.9793
 6228TIP3   OH218689   5.188   0.775   3.078  0.1403 -0.1094 -0.1818
 6228TIP3    H118690   5.096   0.780   3.052  0.4403 -1.4433 -1.6500
 6228TIP3    H218691   5.188   0.716   3.154 -0.0702 -1.3102 -1.0955
 6229TIP3   OH218692   2.660   3.845   3.630 -0.1607  0.0744 -0.4149
 6229TIP3    H118693   2.740   3.883   3.669  0.8116 -1.7582 -0.5281
 6229TIP3    H218694   2.690   3.764   3.589 -2.3127 -1.3094  0.6276
 6230TIP3   OH218695   5.355   4.093   0.354  0.4333 -0.2616 -0.3322
 6230TIP3    H118696   5.423   4.026   0.367 -0.0870 -1.2666 -2.4640
 6230TIP3    H218697   5.302   4.088   0.434  1.7046 -0.8157  0.5125
 6231TIP3   OH218698   6.172   2.282   1.142 -0.3748  0.1488 -0.8692
 6231TIP3    H118699   6.216   2.361   1.174  0.5875 -0.3024 -1.0359
 6231TIP3    H218700   6.227   2.210   1.172 -0.7986 -0.4153 -1.4164
 6232TIP3   OH218701   4.339   4.795   0.739 -0.3446 -0.2495 -0.1794
 6232TIP3    H118702   4.308   4.824   0.825  0.0844 -1.8254  0.5433
 6232TIP3    H218703   4.402   4.862   0.712 -3.0944  2.2047 -0.9763
 6233TIP3   OH218704   3.113   0.241   4.779 -0.0217  0.4963  0.0250
 6233TIP3    H118705   3.145   0.303   4.714 -0.3620 -0.1187 -0.7512
 6233TIP3    H218706   3.157   0.266   4.860 -0.6858  2.1968 -0.0937
 6234TIP3   OH218707   2.633   4.089   4.956 -0.5183  0.4218 -0.0375
 6234TIP3    H118708   2.652   4.113   4.865 -1.9710  0.4609 -0.3434
 6234TIP3    H218709   2.538   4.086   4.961 -0.4537 -2.4561  0.7466
 6235TIP3   OH218710   1.880   3.795   1.260  0.3730  0.3424 -0.0761
 6235TIP3    H118711   1.941   3.853   1.216  0.7058  0.0824  0.0370
 6235TIP3    H218712   1.934   3.742   1.318  0.0406  0.1171  0.0357
 6236TIP3   OH218713   5.457   2.913   1.580 -0.8975 -0.1044  0.2665
 6236TIP3    H118714   5.372   2.944   1.551 -1.0113 -2.1103 -1.8760
 6236TIP3    H218715   5.456   2.819   1.561  1.2382 -0.4825  1.6311
 6237TIP3   OH218716   5.174   5.368   0.793 -0.1612 -0.4322 -0.0566
 6237TIP3    H118717   5.207   5.302   0.854 -1.8537 -0.6669  0.6558
 6237TIP3    H218718   5.080   5.372   0.810 -0.1620  2.0198 -0.2284
 6238TIP3   OH218719   0.321   1.078   0.013  0.4410  0.6713  0.1370
 6238TIP3    H118720   0.286   1.052  -0.072 -0.2507  2.0367 -0.0259
 6238TIP3    H218721   0.327   0.997   0.063 -0.1897  0.0095 -0.8434
 6239TIP3   OH218722   5.000   0.097   3.041  0.2931  0.0227 -0.0994
 6239TIP3    H118723   5.065   0.141   3.096  0.5447 -0.0927 -0.3072
 6239TIP3    H218724   4.959   0.168   2.992 -3.4015  0.9134  3.7080
 6240TIP3   OH218725   1.085   2.512   4.821 -0.6938 -0.9273  0.4125
 6240TIP3    H118726   0.995   2.480   4.823 -1.0042 -0.1819 -0.5801
 6240TIP3    H218727   1.077   2.607   4.827 -0.1131 -0.7189 -1.3923
 6241TIP3   OH218728   5.242   2.600   1.350  0.7710  0.5376  0.3239
 6241TIP3    H118729   5.309   2.627   1.412  0.7386 -0.2535  0.7210
 6241TIP3    H218730   5.273   2.516   1.316  0.3413  0.5178 -0.0264
 6242TIP3   OH218731   4.778   5.090   0.918  0.1259 -0.2640 -0.0989
 6242TIP3    H118732   4.843   5.040   0.868  3.3289  0.5843  2.7534
 6242TIP3    H218733   4.782   5.052   1.006  1.0281  3.3117  1.6073
 6243TIP3   OH218734   2.505   2.324   4.997  0.1546 -0.3431 -0.2806
 6243TIP3    H118735   2.487   2.389   5.065  0.8702 -0.3594 -0.0677
 6243TIP3    H218736   2.502   2.374   4.915  0.5247 -0.0779 -0.1330
 6244TIP3   OH218737   2.629   0.906   3.019 -0.2174 -0.5738 -0.4769
 6244TIP3    H118738   2.574   0.979   3.045 -0.3720 -1.3206  1.4408
 6244TIP3    H218739   2.709   0.916   3.071 -0.3394 -1.8697  0.0056
 6245TIP3   OH218740   0.893   4.825   3.496 -0.1753 -0.2779 -0.0993
 6245TIP3    H118741   0.856   4.796   3.412  1.6250 -3.2500 -0.0194
 6245TIP3    H218742   0.970   4.876   3.473  0.8029 -1.8019 -0.3239
 6246TIP3   OH218743   2.755   0.655   1.952 -0.2030 -0.4560 -0.5040
 6246TIP3    H118744   2.850   0.661   1.959 -0.2667 -0.2792  0.3806
 6246TIP3    H218745   2.734   0.569   1.990 -0.4116 -0.4302 -0.5581
 6247TIP3   OH218746   6.259   0.579   4.197 -0.1941 -0.1584  0.1574
 6247TIP3    H118747   6.282   0.671   4.208 -0.8154 -0.0385  0.5365
 6247TIP3    H218748   6.215   0.575   4.112  0.9154 -0.3283 -0.4128
 6248TIP3   OH218749   5.129   0.503   2.327  0.6534 -0.1899  0.0299
 6248TIP3    H118750   5.154   0.485   2.237  0.9056  1.0514 -0.1650
 6248TIP3    H218751   5.210   0.496   2.377  1.1797  2.2619 -0.3591
 6249TIP3   OH218752   1.471   3.518   1.148  0.3084  0.1369  0.2127
 6249TIP3    H118753   1.460   3.527   1.053 -0.2450  1.3860  0.3855
 6249TIP3    H218754   1.454   3.425   1.164 -0.9582  0.1681 -0.7494
 6250TIP3   OH218755   1.184   1.248   2.369  0.0843 -0.1821  0.1352
 6250TIP3    H118756   1.193   1.191   2.293  0.0051  1.3959 -1.1292
 6250TIP3    H218757   1.271   1.286   2.380 -0.7247  2.5435 -1.7039
 6251TIP3   OH218758   5.965   2.585   4.483  0.3130  0.6403 -0.2429
 6251TIP3    H118759   5.882   2.633   4.489 -0.1821 -0.0303 -1.2912
 6251TIP3    H218760   5.967   2.553   4.393  0.0484 -2.2577  0.6597
 6252TIP3   OH218761   0.235   5.189   1.056  0.1565  0.3405  0.3170
 6252TIP3    H118762   0.297   5.199   0.984 -1.0288 -1.0395 -0.9617
 6252TIP3    H218763   0.200   5.277   1.069  1.1462  0.8140 -0.0680
 6253TIP3   OH218764   4.201   4.007   3.353  0.4369 -0.0559 -0.0652
 6253TIP3    H118765   4.221   4.076   3.416 -1.5297 -0.3542  0.9770
 6253TIP3    H218766   4.274   3.946   3.359  1.4517  1.1528  0.1268
 6254TIP3   OH218767   5.293   1.277   3.615 -0.0121 -0.2125  0.1984
 6254TIP3    H118768   5.210   1.259   3.659 -1.8706  2.5097 -1.7994
 6254TIP3    H218769   5.336   1.342   3.671 -0.4288  0.1805  0.0757
 6255TIP3   OH218770   2.047   0.719   4.278  0.6729  0.1313  0.5329
 6255TIP3    H118771   2.053   0.805   4.320 -0.4083  0.4716  0.0479
 6255TIP3    H218772   2.102   0.726   4.200 -0.2659  0.7792 -0.0963
 6256TIP3   OH218773   5.983   1.588   4.966  0.1529  0.0834  0.0810
 6256TIP3    H118774   6.079   1.589   4.967  0.1779  0.0409 -1.2599
 6256TIP3    H218775   5.959   1.653   5.032  1.1471  2.1647 -1.4985
 6257TIP3   OH218776   3.770   1.892   0.332 -0.0459  0.1044  0.3579
 6257TIP3    H118777   3.740   1.934   0.252  1.9205  0.6227 -0.1538
 6257TIP3    H218778   3.762   1.798   0.315  0.4343  0.2071 -0.4992
 6258TIP3   OH218779   5.213   2.377   4.209 -0.5744 -0.2740  0.0569
 6258TIP3    H118780   5.239   2.439   4.141  0.5529 -1.8987 -1.0456
 6258TIP3    H218781   5.262   2.297   4.190 -1.1693 -1.1922  2.0569
 6259TIP3   OH218782   1.259   3.160   3.862 -0.0702 -0.2122  0.4652
 6259TIP3    H118783   1.345   3.141   3.898 -0.3372 -1.4084  0.4993
 6259TIP3    H218784   1.228   3.235   3.912  0.2459 -0.8239  1.5939
 6260TIP3   OH218785   2.429   5.028   1.224 -0.8587 -0.0700  0.0230
 6260TIP3    H118786   2.465   5.034   1.313  2.1029  4.5443 -1.1197
 6260TIP3    H218787   2.402   5.118   1.204 -1.0716 -0.8449 -3.8477
 6261TIP3   OH218788   2.004   1.266   4.616  0.5407  0.0404  0.4567
 6261TIP3    H118789   2.007   1.242   4.708  0.9045  1.9264  0.9767
 6261TIP3    H218790   2.054   1.347   4.610 -1.5158  1.3055 -0.9471
 6262TIP3   OH218791   4.289   1.082   3.262  0.1142  0.0738 -0.1761
 6262TIP3    H118792   4.346   1.009   3.238  1.1782  0.7695  0.1975
 6262TIP3    H218793   4.346   1.144   3.306 -1.0958  0.4135  0.9853
 6263TIP3   OH218794   5.133   5.015   0.380 -0.2361  0.1397 -0.0291
 6263TIP3    H118795   5.187   4.986   0.453 -0.0008  0.2308 -0.1659
 6263TIP3    H218796   5.172   4.972   0.303 -1.7684 -1.7012  0.1440
 6264TIP3   OH218797   0.825   4.456   4.137  0.2032  0.3949 -0.3952
 6264TIP3    H118798   0.919   4.448   4.152 -0.0152  0.9975  1.6790
 6264TIP3    H218799   0.807   4.397   4.064  2.0499 -0.4258 -0.2488
 6265TIP3   OH218800   3.789   4.667   2.130 -0.0740 -0.0634 -0.1461
 6265TIP3    H118801   3.734   4.740   2.159  0.7056 -0.3137  2.1492
 6265TIP3    H218802   3.864   4.709   2.087 -0.1819  0.4557  0.1603
 6266TIP3   OH218803   4.535   1.731   3.628 -0.2102 -0.0342 -0.2391
 6266TIP3    H118804   4.490   1.778   3.558 -1.6445 -0.3065  0.4612
 6266TIP3    H218805   4.485   1.751   3.707  0.6453 -0.7173  0.5105
 6267TIP3   OH218806   1.872   1.252   5.069  0.0890 -0.1400  0.3357
 6267TIP3    H118807   1.913   1.318   5.012 -0.7518  0.6556  0.6423
 6267TIP3    H218808   1.907   1.169   5.037 -0.5983  0.2545 -1.5848
 6268TIP3   OH218809   5.287   0.579   3.575 -0.1764  0.4205  0.1953
 6268TIP3    H118810   5.280   0.511   3.642  0.7827  0.6865  0.5840
 6268TIP3    H218811   5.379   0.576   3.547 -0.6850 -0.0904 -1.5648
 6269TIP3   OH218812   3.630   2.349   4.911 -0.1402 -0.2921  0.0999
 6269TIP3    H118813   3.587   2.357   4.826 -0.5094 -1.1548  0.1958
 6269TIP3    H218814   3.720   2.322   4.890 -0.0614  0.0774 -0.0403
 6270TIP3   OH218815   2.568   4.430   0.087  0.0801  0.0156  0.3861
 6270TIP3    H118816   2.544   4.487   0.160 -2.1857  0.3582 -0.5415
 6270TIP3    H218817   2.512   4.459   0.015  0.4684 -1.9393 -0.7687
 6271TIP3   OH218818   4.887   5.492   2.572 -0.3967  0.1835 -0.1585
 6271TIP3    H118819   4.981   5.513   2.578 -0.9361  3.0990 -0.3442
 6271TIP3    H218820   4.880   5.432   2.498  1.3508 -0.4764  0.1572
 6272TIP3   OH218821   2.748   1.081   2.482  0.3069  0.1305  0.5549
 6272TIP3    H118822   2.721   1.086   2.574  0.8743  0.4971  0.7069
 6272TIP3    H218823   2.702   1.154   2.440 -0.4518 -0.4182  0.4090
 6273TIP3   OH218824   1.907   0.860   4.037 -0.8843 -0.0361  0.2425
 6273TIP3    H118825   2.002   0.872   4.034 -1.1284  2.1898 -0.5773
 6273TIP3    H218826   1.888   0.805   3.961 -0.4468  1.8192 -1.3144
 6274TIP3   OH218827   2.378   3.693   1.335 -0.2065 -0.1005 -0.2793
 6274TIP3    H118828   2.378   3.628   1.405  0.1257  0.8449  0.6300
 6274TIP3    H218829   2.368   3.777   1.380 -0.0825  0.5286 -1.3743
 6275TIP3   OH218830   1.207   1.809   3.396 -0.0479  0.2860 -0.9765
 6275TIP3    H118831   1.190   1.754   3.472 -0.6804  0.7159 -0.8009
 6275TIP3    H218832   1.298   1.789   3.371  0.5413  0.9350  0.5424
 6276TIP3   OH218833   1.787   2.234   2.350 -0.5087 -0.2333  0.0651
 6276TIP3    H118834   1.747   2.148   2.341  1.4930 -1.1939 -0.1970
 6276TIP3    H218835   1.827   2.233   2.437  0.9018 -0.2092 -0.5615
 6277TIP3   OH218836   2.071   3.205   4.380 -0.0839  0.1604 -0.1784
 6277TIP3    H118837   2.137   3.270   4.403  0.0470  0.0005 -0.1070
 6277TIP3    H218838   2.088   3.185   4.288 -1.8293  2.2776 -1.0627
 6278TIP3   OH218839   2.251   5.951   1.842  0.2390 -0.4509  0.1635
 6278TIP3    H118840   2.257   6.046   1.830 -0.1585 -0.3191  0.9619
 6278TIP3    H218841   2.314   5.932   1.911 -0.0108 -0.7054  0.3218
 6279TIP3   OH218842   3.096   1.294   2.871  0.2472 -0.0728 -0.5731
 6279TIP3    H118843   3.094   1.377   2.823  1.1474 -0.1536 -0.7666
 6279TIP3    H218844   3.006   1.261   2.864 -0.2336  1.0886 -0.1101
 6280TIP3   OH218845   1.199   3.907   4.932  0.1175  0.2177 -1.3942
 6280TIP3    H118846   1.159   3.820   4.927 -0.9202  0.7275 -2.3829
 6280TIP3    H218847   1.192   3.930   5.025 -0.3587 -0.4104 -1.2606
 6281TIP3   OH218848   1.075   5.965   2.045  0.3624 -0.2603 -0.2644
 6281TIP3    H118849   1.055   6.004   1.960  0.6973 -1.3310 -0.8562
 6281TIP3    H218850   0.989   5.956   2.087  0.2648  0.9150 -0.1847
 6282TIP3   OH218851   0.022   5.927   0.674 -0.0691  0.5387  0.9694
 6282TIP3    H118852  -0.006   5.863   0.739 -1.4980  0.0289 -0.0923
 6282TIP3    H218853  -0.006   5.890   0.590  3.4378  0.1948 -0.2455
 6283TIP3   OH218854   1.048   1.054   2.146  0.3205 -0.0065  0.2974
 6283TIP3    H118855   0.982   1.119   2.122  0.1616  0.3109  1.5006
 6283TIP3    H218856   1.002   0.993   2.203  1.1986  0.6135  1.7317
 6284TIP3   OH218857   4.646   1.032   0.757 -0.0785  0.0795 -0.1125
 6284TIP3    H118858   4.626   1.125   0.751  0.4317  0.1126 -1.7904
 6284TIP3    H218859   4.738   1.025   0.731  0.6757 -0.6493  2.4262
 6285TIP3   OH218860   1.647   1.853   0.086 -0.0283  0.2892 -0.2957
 6285TIP3    H118861   1.630   1.913   0.013  0.8006 -0.1431 -0.8641
 6285TIP3    H218862   1.743   1.846   0.088  0.1319  2.0945  2.2979
 6286TIP3   OH218863   2.968   0.331   1.721 -0.5542  0.0113  0.0292
 6286TIP3    H118864   3.016   0.405   1.685  0.8165  0.1298  1.9515
 6286TIP3    H218865   2.928   0.364   1.801 -3.4529 -0.2540 -1.2020
 6287TIP3   OH218866   5.781   2.042   4.376 -0.0749  0.1063 -0.3971
 6287TIP3    H118867   5.768   2.110   4.442  1.3976 -0.9733  1.1057
 6287TIP3    H218868   5.744   2.079   4.296 -0.5412  2.1049  0.6638
 6288TIP3   OH218869   4.208   3.944   1.637  0.7230 -0.0411  0.2585
 6288TIP3    H118870   4.300   3.934   1.661  0.7204  0.6123  0.5720
 6288TIP3    H218871   4.166   3.978   1.717  0.2476 -0.1538  0.0623
 6289TIP3   OH218872   0.308   2.072   2.845  0.1821 -0.4964  0.1371
 6289TIP3    H118873   0.233   2.082   2.903  0.2383 -0.9442  0.2909
 6289TIP3    H218874   0.291   1.990   2.798  0.3468 -0.3580 -0.1637
 6290TIP3   OH218875   1.296   2.103   0.553  0.4874  0.4576  0.2120
 6290TIP3    H118876   1.374   2.148   0.521  0.8215 -0.8219 -0.8529
 6290TIP3    H218877   1.321   2.011   0.556 -0.9170  0.0512  0.0514
 6291TIP3   OH218878   6.094   0.520   1.366 -0.1791 -0.4488 -0.3731
 6291TIP3    H118879   6.116   0.613   1.365  4.3268 -1.2188  1.1023
 6291TIP3    H218880   6.102   0.492   1.275  0.8316  0.1943 -0.4954
 6292TIP3   OH218881   1.254   5.568   1.167 -0.1361 -0.7166  0.4239
 6292TIP3    H118882   1.246   5.495   1.105  0.9848 -0.0558 -0.5396
 6292TIP3    H218883   1.277   5.643   1.113  2.1577 -0.3894  1.7303
 6293TIP3   OH218884   5.428   4.617   1.778 -0.3362  0.1566  0.5624
 6293TIP3    H118885   5.500   4.638   1.838  0.4439  1.2927 -0.7179
 6293TIP3    H218886   5.456   4.537   1.733  1.1489  1.6684 -1.3875
 6294TIP3   OH218887   4.278   3.198   3.616 -0.1118  0.3062  0.1479
 6294TIP3    H118888   4.265   3.161   3.703  0.5455  1.6144  0.8357
 6294TIP3    H218889   4.190   3.222   3.587 -0.2954  0.2096  0.6149
 6295TIP3   OH218890   3.038   4.170   4.294  0.5133 -0.6932 -0.5560
 6295TIP3    H118891   3.078   4.212   4.218 -0.5014  0.0835 -0.6729
 6295TIP3    H218892   3.037   4.238   4.361 -1.8990 -0.2149 -1.0045
 6296TIP3   OH218893   2.826   0.042   3.509 -0.8689  0.1663  0.0263
 6296TIP3    H118894   2.744   0.010   3.547 -1.2876  0.1662 -0.8436
 6296TIP3    H218895   2.848   0.120   3.560 -1.2361 -0.0257  0.4822
 6297TIP3   OH218896   0.160   1.651   3.013  0.0579 -0.0183 -0.3636
 6297TIP3    H118897   0.112   1.697   2.945 -0.2394 -0.9948 -0.8378
 6297TIP3    H218898   0.143   1.701   3.093 -0.7440  0.3471 -0.7531
 6298TIP3   OH218899   4.109   2.423   1.471  0.2788  0.1835 -0.7015
 6298TIP3    H118900   4.123   2.339   1.427 -0.5543 -0.1431 -0.3559
 6298TIP3    H218901   4.169   2.421   1.545  2.2111  1.0335 -2.1601
 6299TIP3   OH218902   4.102   4.869   4.388  0.1144 -0.3384  0.0917
 6299TIP3    H118903   4.116   4.898   4.478  2.8499  1.4419 -0.7669
 6299TIP3    H218904   4.056   4.941   4.346  1.0608 -0.0500 -0.4886
 6300TIP3   OH218905   4.001   3.148   2.769 -0.1223  1.2769  0.1857
 6300TIP3    H118906   4.011   3.160   2.675  0.0460  2.5270  0.3469
 6300TIP3    H218907   3.928   3.205   2.793 -0.5503  0.5178  0.7301
 6301TIP3   OH218908   5.518   0.500   1.290  0.8603  0.0032 -0.1054
 6301TIP3    H118909   5.561   0.507   1.205  0.0381  0.1478 -0.5216
 6301TIP3    H218910   5.545   0.579   1.337  0.5173  0.4310 -0.6176
 6302TIP3   OH218911   3.028   3.569   2.469  0.4987 -0.1169 -0.2980
 6302TIP3    H118912   2.968   3.511   2.516  0.4661 -0.6862 -1.0300
 6302TIP3    H218913   2.972   3.621   2.412 -0.0104  3.4715  3.0101
 6303TIP3   OH218914   4.610   2.634   1.228 -0.2834 -0.3781  0.8493
 6303TIP3    H118915   4.517   2.636   1.250 -0.4906 -0.9653  0.0685
 6303TIP3    H218916   4.615   2.583   1.147  0.7759 -0.8287  1.1676
 6304TIP3   OH218917   4.846   5.841   3.544  0.0606 -0.2638 -0.3670
 6304TIP3    H118918   4.850   5.920   3.598  1.0467 -0.4671 -0.1349
 6304TIP3    H218919   4.918   5.849   3.483  1.6049 -2.0030  1.0983
 6305TIP3   OH218920   2.498   1.684   1.221 -0.1376 -0.2038 -0.3441
 6305TIP3    H118921   2.429   1.729   1.269 -0.7193 -0.5490 -0.8239
 6305TIP3    H218922   2.518   1.742   1.148  0.0774 -0.1006 -0.2002
 6306TIP3   OH218923   2.500   4.687   0.732  0.0278 -0.4045  0.1539
 6306TIP3    H118924   2.565   4.632   0.688  2.5643  1.4121  1.3659
 6306TIP3    H218925   2.470   4.634   0.806  1.3463 -0.7303  0.4798
 6307TIP3   OH218926   3.728   5.921   1.595 -0.0262 -0.3789 -0.0071
 6307TIP3    H118927   3.731   5.915   1.500 -0.3116 -0.6131 -0.0043
 6307TIP3    H218928   3.778   5.845   1.626  2.1915  1.0294  0.0401
 6308TIP3   OH218929   1.378   5.259   0.748 -0.6781 -0.8877  0.0879
 6308TIP3    H118930   1.471   5.275   0.733 -0.8491  0.9021  0.7559
 6308TIP3    H218931   1.336   5.284   0.666 -0.7355  0.0455  0.3969
 6309TIP3   OH218932   5.018   5.252   1.212 -0.1466  0.1794  0.3609
 6309TIP3    H118933   4.963   5.179   1.183 -0.6789  0.5786  0.3384
 6309TIP3    H218934   5.017   5.246   1.307 -0.2459  0.1995  0.3613
 6310TIP3   OH218935   0.765   1.615   4.102  0.3302 -0.2109  0.3710
 6310TIP3    H118936   0.810   1.618   4.018 -1.4204  1.3802 -0.5978
 6310TIP3    H218937   0.768   1.523   4.129  1.1813 -0.6911 -1.2794
 6311TIP3   OH218938   5.457   1.196   3.218  0.7050  0.2147 -1.0368
 6311TIP3    H118939   5.461   1.111   3.174  3.4037  0.2093 -1.0053
 6311TIP3    H218940   5.392   1.185   3.287  1.8953 -2.2878 -0.1946
 6312TIP3   OH218941   4.617   5.767   3.411  0.1546  0.1282  0.3199
 6312TIP3    H118942   4.690   5.788   3.469  0.2040 -0.8988  0.6478
 6312TIP3    H218943   4.553   5.724   3.467  0.6506 -1.8532 -0.5664
 6313TIP3   OH218944   3.067   1.985   0.644 -0.2122 -0.1053  0.6445
 6313TIP3    H118945   3.147   1.998   0.592 -1.3585  0.1637 -1.1190
 6313TIP3    H218946   3.097   1.938   0.722  1.8144  0.8133  0.4915
 6314TIP3   OH218947   2.734   0.026   2.468 -0.1548  0.4628 -0.2647
 6314TIP3    H118948   2.822  -0.013   2.465 -1.2636 -2.2402 -0.4493
 6314TIP3    H218949   2.728   0.076   2.386  1.4161  1.2977  0.0816
 6315TIP3   OH218950   2.109   3.394   4.141 -0.2557 -0.2905  0.1605
 6315TIP3    H118951   2.105   3.393   4.046 -2.4125  0.4301  0.1927
 6315TIP3    H218952   2.202   3.381   4.162  0.3249  0.0842 -2.0257
 6316TIP3   OH218953   2.844   1.558   2.958 -0.8992  0.7005 -0.0821
 6316TIP3    H118954   2.784   1.488   2.983  1.4819 -0.9924  1.1529
 6316TIP3    H218955   2.910   1.516   2.904 -0.2198  2.3198 -0.5817
 6317TIP3   OH218956   4.357   3.575   4.464 -0.1671 -0.0471 -0.8154
 6317TIP3    H118957   4.314   3.490   4.457 -1.3834  0.4459  0.2857
 6317TIP3    H218958   4.285   3.638   4.473  0.6868  1.1336 -1.7859
 6318TIP3   OH218959   0.629   4.329   1.961  0.0748  0.3049  0.4421
 6318TIP3    H118960   0.705   4.386   1.961  0.3069 -0.0063  0.9733
 6318TIP3    H218961   0.664   4.241   1.975 -0.3594  0.1331  0.4711
 6319TIP3   OH218962   0.295   5.935   1.750  0.2086  0.8428  0.0452
 6319TIP3    H118963   0.368   5.881   1.780  0.9466  2.0129  0.3808
 6319TIP3    H218964   0.229   5.924   1.819  0.0818 -0.1275 -0.2075
 6320TIP3   OH218965   2.700   0.288   0.038  0.2203 -0.0569 -0.4940
 6320TIP3    H118966   2.700   0.249   0.126  0.1966  0.4184 -0.2786
 6320TIP3    H218967   2.608   0.305   0.020  0.3385  1.2098  0.0129
 6321TIP3   OH218968   5.004   5.477   1.068 -0.0134  0.6397  0.7732
 6321TIP3    H118969   5.056   5.547   1.109  2.2095 -0.4443 -0.0198
 6321TIP3    H218970   5.022   5.400   1.122  0.9387 -0.2325 -0.7322
 6322TIP3   OH218971   6.092   5.048   2.019 -0.4689  0.8199  0.0568
 6322TIP3    H118972   6.098   5.057   2.114  0.5779  0.3449  0.0521
 6322TIP3    H218973   6.013   4.996   2.004  0.8564 -1.6017  0.8674
 6323TIP3   OH218974   3.737   0.949   4.251  0.1746  0.0118 -0.5243
 6323TIP3    H118975   3.682   0.944   4.329  1.1835 -1.2972  0.1420
 6323TIP3    H218976   3.769   1.040   4.250 -1.5403  0.6594 -0.6555
 6324TIP3   OH218977   1.611   5.673   3.855 -0.6150 -0.3890 -0.2449
 6324TIP3    H118978   1.628   5.641   3.767  0.6345  1.6154 -0.7956
 6324TIP3    H218979   1.642   5.764   3.855 -1.3204 -0.0635  2.0280
 6325TIP3   OH218980   3.083   4.427   1.850  0.3900  0.2032  0.1864
 6325TIP3    H118981   3.110   4.487   1.782 -0.1460  1.4541  1.0398
 6325TIP3    H218982   3.005   4.468   1.889  1.0067 -0.1765  1.9091
 6326TIP3   OH218983   0.402   4.182   1.143 -0.0334 -0.2386  0.0475
 6326TIP3    H118984   0.321   4.132   1.141  0.3153 -0.7955 -0.2847
 6326TIP3    H218985   0.382   4.263   1.096 -0.0017 -0.9789 -1.2683
 6327TIP3   OH218986   5.650   5.427   4.581  0.2082 -0.2555  0.5233
 6327TIP3    H118987   5.658   5.452   4.489 -1.7002 -0.8220  0.1650
 6327TIP3    H218988   5.719   5.477   4.626  1.9099 -0.8125 -1.3357
 6328TIP3   OH218989   0.063   0.816   5.064 -0.5963 -0.0855 -0.0329
 6328TIP3    H118990   0.030   0.859   4.985 -0.5116  1.9327  0.9788
 6328TIP3    H218991   0.087   0.728   5.035  0.0164  0.7905 -2.3986
 6329TIP3   OH218992   4.114   5.829   3.395 -0.6929 -0.1962 -0.4660
 6329TIP3    H118993   4.058   5.870   3.461 -0.9974 -2.3654  0.7113
 6329TIP3    H218994   4.194   5.806   3.441 -0.3903 -0.5999 -1.1722
 6330TIP3   OH218995   0.612   2.863   0.017  0.0957 -0.3987  0.2568
 6330TIP3    H118996   0.628   2.890   0.107 -0.5287  1.6003 -0.1841
 6330TIP3    H218997   0.521   2.887   0.000  0.9098  1.7665 -1.6744
 6331TIP3   OH218998   5.657   3.211   3.928  0.7836  0.0952  0.3518
 6331TIP3    H118999   5.576   3.211   3.878  0.5846  0.9577  0.6603
 6331TIP3    H219000   5.630   3.219   4.019  1.1750 -0.7572  0.5601
 6332TIP3   OH219001   4.561   2.913   0.704  0.4540 -0.7888  0.6777
 6332TIP3    H119002   4.611   2.854   0.648  0.3131 -0.0680 -0.2452
 6332TIP3    H219003   4.570   2.877   0.792  0.2547 -2.2486  0.1259
 6333TIP3   OH219004   4.673   3.240   0.862  0.2750  0.2030  0.3794
 6333TIP3    H119005   4.716   3.213   0.781 -1.9309  1.0943 -1.1881
 6333TIP3    H219006   4.603   3.175   0.874  0.8860 -0.2270  1.9140
 6334TIP3   OH219007   0.227   0.808   1.113 -0.0444 -0.4616  0.1523
 6334TIP3    H119008   0.152   0.779   1.165  1.2104  0.0663  2.3763
 6334TIP3    H219009   0.302   0.803   1.173  1.3877  0.8011 -1.4206
 6335TIP3   OH219010   3.499   4.020   2.715 -0.8283  0.0038 -0.2108
 6335TIP3    H119011   3.466   3.957   2.778 -1.6511 -0.1878 -0.8164
 6335TIP3    H219012   3.421   4.065   2.682 -0.1863  2.4197  1.2854
 6336TIP3   OH219013   2.225   3.728   4.390  0.1354 -0.8743 -0.2614
 6336TIP3    H119014   2.166   3.711   4.316  0.5156 -1.2320 -0.4809
 6336TIP3    H219015   2.169   3.770   4.456 -0.2762 -0.8511 -0.6245
 6337TIP3   OH219016   4.983   0.386   0.719  0.5819  0.7947 -0.0791
 6337TIP3    H119017   5.013   0.426   0.801  1.5851  0.2811 -0.1898
 6337TIP3    H219018   4.888   0.383   0.728  0.7530 -0.5474  1.6698
 6338TIP3   OH219019   1.416   3.518   2.940 -0.4591 -0.2451  0.1645
 6338TIP3    H119020   1.417   3.423   2.937  1.1314 -0.2344 -1.4066
 6338TIP3    H219021   1.398   3.546   2.850  0.7180  0.8996  0.2444
 6339TIP3   OH219022   3.720   4.833   4.480  0.1807 -0.4280 -0.3890
 6339TIP3    H119023   3.700   4.926   4.491 -0.9231 -0.7021  0.0577
 6339TIP3    H219024   3.772   4.829   4.399 -0.2153  0.5132 -0.7048
 6340TIP3   OH219025   3.981   4.576   0.977  0.5102 -0.5317 -0.0653
 6340TIP3    H119026   3.972   4.665   0.943 -0.7480 -0.9687 -0.9473
 6340TIP3    H219027   3.921   4.524   0.923 -2.5778 -1.0793  3.4743
 6341TIP3   OH219028   4.822   3.817   1.358  0.2914 -0.3284  0.1334
 6341TIP3    H119029   4.793   3.901   1.395 -0.6247 -0.8129  0.5464
 6341TIP3    H219030   4.768   3.751   1.402 -1.2193 -0.9134 -2.3592
 6342TIP3   OH219031   3.893   5.779   0.848  0.4502  0.4703  0.0474
 6342TIP3    H119032   3.865   5.760   0.938 -1.0375  0.2132 -0.4429
 6342TIP3    H219033   3.823   5.745   0.793  1.1251  1.0294 -1.2084
 6343TIP3   OH219034   0.994   3.825   5.173 -0.3187  0.4655  0.0171
 6343TIP3    H119035   1.052   3.764   5.127  1.1112  1.1030  0.9149
 6343TIP3    H219036   0.915   3.773   5.191  0.4860 -0.8401 -0.0745
 6344TIP3   OH219037   3.889   0.608   4.774  0.8839 -0.1381 -0.4757
 6344TIP3    H119038   3.898   0.568   4.860 -1.2589  0.8295  0.2755
 6344TIP3    H219039   3.836   0.546   4.724 -0.6956  0.7264  0.0339
 6345TIP3   OH219040   2.696   0.913   3.582 -0.0963 -0.1248  0.1647
 6345TIP3    H119041   2.677   1.004   3.608  0.1984  0.5884 -1.9205
 6345TIP3    H219042   2.663   0.907   3.493  0.1751 -2.0068  0.1650
 6346TIP3   OH219043   0.484   1.819   2.031  0.2977  0.3193 -0.0500
 6346TIP3    H119044   0.554   1.882   2.048  1.3648 -1.3512  2.2218
 6346TIP3    H219045   0.479   1.814   1.935  3.0352  0.7903 -0.3055
 6347TIP3   OH219046   4.388   3.187   1.116  0.5075 -0.4716  0.2051
 6347TIP3    H119047   4.307   3.151   1.152 -0.3608 -2.0179 -2.9406
 6347TIP3    H219048   4.458   3.138   1.160 -0.2775 -0.2742  1.7542
 6348TIP3   OH219049   4.293   2.055   2.521  0.6497  0.3487 -0.1034
 6348TIP3    H119050   4.353   1.996   2.475 -0.2767  0.4837 -1.5339
 6348TIP3    H219051   4.215   2.003   2.536  1.4853 -0.2376  2.9073
 6349TIP3   OH219052   4.486   5.041   3.811  0.1329 -0.0817  0.1550
 6349TIP3    H119053   4.445   4.995   3.739  1.5236  0.4328 -1.0181
 6349TIP3    H219054   4.545   4.977   3.850 -0.4459 -0.2896  0.7030
 6350TIP3   OH219055   5.505   1.744   3.811  0.2032 -0.1869  0.7612
 6350TIP3    H119056   5.456   1.804   3.755  1.2955 -0.1228 -0.1610
 6350TIP3    H219057   5.470   1.759   3.899 -1.2572  0.0049  0.1780
 6351TIP3   OH219058   1.398   2.445   5.035  0.7802 -0.7174  0.3144
 6351TIP3    H119059   1.463   2.514   5.023 -1.4643  1.3849 -0.5721
 6351TIP3    H219060   1.317   2.492   5.056 -1.3514 -2.8515 -2.3273
 6352TIP3   OH219061   6.053   0.409   0.163  0.0198  0.5728 -0.3191
 6352TIP3    H119062   6.007   0.448   0.089 -0.7021 -0.2017 -0.2972
 6352TIP3    H219063   6.146   0.428   0.146 -0.0537 -0.1864 -1.8146
 6353TIP3   OH219064   2.537   2.813   0.433 -0.6348  0.8434 -0.3941
 6353TIP3    H119065   2.539   2.768   0.517 -0.1392  2.2632  0.3823
 6353TIP3    H219066   2.572   2.900   0.451  2.0031  0.3518 -2.5803
 6354TIP3   OH219067   4.056   3.519   2.272 -0.1240  0.4076 -0.0177
 6354TIP3    H119068   3.968   3.483   2.268  0.6224 -2.0290  2.2788
 6354TIP3    H219069   4.048   3.599   2.323 -0.6655 -1.6006  3.3058
 6355TIP3   OH219070   3.317   5.197   3.745  0.2525  0.1818  0.0673
 6355TIP3    H119071   3.276   5.156   3.668 -0.7332  0.1411  0.6043
 6355TIP3    H219072   3.401   5.151   3.753  0.2934  0.0629 -0.8781
 6356TIP3   OH219073   0.547   0.288   3.844 -0.1373 -0.1774 -1.1123
 6356TIP3    H119074   0.509   0.372   3.867 -0.5615 -0.1905 -1.7197
 6356TIP3    H219075   0.629   0.309   3.801  0.5381 -0.1455  0.1481
 6357TIP3   OH219076   6.134   2.752   2.238 -0.4162  0.3534  0.8182
 6357TIP3    H119077   6.106   2.661   2.228  1.7703 -0.1951 -1.5257
 6357TIP3    H219078   6.127   2.788   2.150  2.3586  1.2614  0.8930
 6358TIP3   OH219079   5.468   3.331   2.538  0.3017  0.1642 -0.0502
 6358TIP3    H119080   5.458   3.425   2.549 -1.3197  0.4760 -2.9884
 6358TIP3    H219081   5.554   3.311   2.575  0.5676  2.7161  0.8882
 6359TIP3   OH219082   0.214   3.901   1.930  0.2813  0.1298 -0.1157
 6359TIP3    H119083   0.200   3.961   2.003  0.2825 -0.4845  0.3985
 6359TIP3    H219084   0.189   3.815   1.964  1.6213 -0.3917 -0.3791
 6360TIP3   OH219085   0.448   3.221   3.342 -0.6093 -0.5366 -0.3237
 6360TIP3    H119086   0.436   3.161   3.269  1.7657 -0.9876 -0.4111
 6360TIP3    H219087   0.434   3.308   3.305 -1.2910 -0.8597 -0.8419
 6361TIP3   OH219088   1.074   4.539   3.491  0.2370 -0.5006 -0.2206
 6361TIP3    H119089   1.056   4.618   3.542  0.9288 -0.5828  0.1609
 6361TIP3    H219090   0.988   4.505   3.468 -0.0748  0.5528 -0.6876
 6362TIP3   OH219091   5.964   1.908   4.532 -0.2444  0.0114  0.6534
 6362TIP3    H119092   5.965   1.818   4.500 -0.9519  0.2600 -0.0983
 6362TIP3    H219093   5.907   1.955   4.471 -0.2804  0.8635  1.3164
 6363TIP3   OH219094   0.527   2.758   0.467  0.0621 -0.2214  0.3813
 6363TIP3    H119095   0.474   2.779   0.544 -0.3260 -1.1777  0.3905
 6363TIP3    H219096   0.463   2.739   0.399  0.4057 -0.2835  0.0710
 6364TIP3   OH219097   3.000   0.809   2.832 -0.5213  0.2554 -0.0078
 6364TIP3    H119098   3.043   0.727   2.856 -2.5763 -0.6988  0.6953
 6364TIP3    H219099   3.068   0.876   2.841  0.7368 -1.1177  1.2172
 6365TIP3   OH219100   1.287   1.301   4.852 -0.1596 -0.4457 -0.3249
 6365TIP3    H119101   1.251   1.218   4.820 -0.9322  0.6041 -2.3540
 6365TIP3    H219102   1.219   1.337   4.908 -1.1877  0.2243 -1.9291
 6366TIP3   OH219103   5.564   0.033   3.119 -0.1274 -0.4554 -1.1075
 6366TIP3    H119104   5.482  -0.006   3.089 -0.4077 -0.7777  0.0253
 6366TIP3    H219105   5.546   0.127   3.123 -0.8139 -0.6172  0.1734
 6367TIP3   OH219106   4.027   2.349   4.197 -0.5070 -0.1143  0.0450
 6367TIP3    H119107   3.987   2.398   4.126 -2.0223  0.9728  1.5750
 6367TIP3    H219108   4.073   2.415   4.250  0.3291 -0.8498  0.2634
 6368TIP3   OH219109   4.486   3.493   1.979  0.5484  0.0165 -0.0969
 6368TIP3    H119110   4.559   3.481   2.041  1.4084 -1.4653 -1.3284
 6368TIP3    H219111   4.469   3.405   1.945 -1.2848  0.4784 -0.4558
 6369TIP3   OH219112   6.292   4.668   0.664 -0.0931  0.2900  0.5935
 6369TIP3    H119113   6.200   4.659   0.690 -0.3740  0.7609 -0.2014
 6369TIP3    H219114   6.318   4.580   0.636 -0.2510  0.1252  0.9521
 6370TIP3   OH219115   5.144   1.264   1.611 -0.2557  0.6627  0.1288
 6370TIP3    H119116   5.170   1.292   1.523 -0.1706  0.3998  0.0696
 6370TIP3    H219117   5.059   1.306   1.626 -0.7640 -0.1118 -0.4910
 6371TIP3   OH219118   4.610   3.923   2.923  0.0893  0.5166 -0.3943
 6371TIP3    H119119   4.583   3.831   2.923  3.1608 -0.5264  1.0567
 6371TIP3    H219120   4.685   3.926   2.863 -0.2571  2.2343 -0.8010
 6372TIP3   OH219121   4.323   0.943   3.983  0.2196 -0.3811 -0.2515
 6372TIP3    H119122   4.395   0.882   4.004  0.1763 -0.0594  0.9193
 6372TIP3    H219123   4.343   1.021   4.034  0.8994  1.0845 -2.6202
 6373TIP3   OH219124   4.207   1.370   2.366  0.0842  0.0817 -0.4003
 6373TIP3    H119125   4.173   1.284   2.389  1.3043 -1.0499 -2.4600
 6373TIP3    H219126   4.234   1.409   2.449  0.8472 -2.1491  0.4606
 6374TIP3   OH219127   1.502   2.907   4.088  0.1764 -0.2640 -0.4097
 6374TIP3    H119128   1.589   2.914   4.129 -0.9294  1.7708  1.8337
 6374TIP3    H219129   1.493   2.989   4.038 -1.1962  0.5643  1.1034
 6375TIP3   OH219130   3.365   2.074   1.989  0.0028  0.0681 -0.2907
 6375TIP3    H119131   3.382   2.072   1.895  0.0450  0.7600 -0.3034
 6375TIP3    H219132   3.281   2.118   1.997 -0.8793 -1.5855 -0.1046
 6376TIP3   OH219133   2.757   0.696   2.888  0.3179  0.2457  0.5194
 6376TIP3    H119134   2.697   0.750   2.941  0.7954  0.1759  1.1358
 6376TIP3    H219135   2.837   0.748   2.881  0.6995 -0.2825  0.9148
 6377TIP3   OH219136   3.373   3.748   5.160  0.3258 -0.4103 -0.3523
 6377TIP3    H119137   3.411   3.705   5.084  0.7236  0.6268 -0.7683
 6377TIP3    H219138   3.291   3.786   5.127  0.7494  0.4780 -0.4172
 6378TIP3   OH219139   5.418   1.544   2.746 -0.2736 -0.6649  0.5044
 6378TIP3    H119140   5.384   1.532   2.658  1.4006 -0.7378 -0.1602
 6378TIP3    H219141   5.385   1.630   2.774 -0.4731 -0.4619 -0.3477
 6379TIP3   OH219142   1.412   5.233   4.995 -0.1084 -0.4351  0.8387
 6379TIP3    H119143   1.409   5.152   5.047  0.3320  0.5112  2.3892
 6379TIP3    H219144   1.320   5.261   4.991 -0.2321 -0.8703  0.5073
 6380TIP3   OH219145   1.158   2.300   0.682  0.1834 -0.5601  0.2517
 6380TIP3    H119146   1.213   2.223   0.667  2.6785  1.1682 -0.1016
 6380TIP3    H219147   1.182   2.360   0.611 -3.7365 -0.4114 -1.1776
 6381TIP3   OH219148   2.363   5.620   3.493  0.1960 -0.0490  0.3074
 6381TIP3    H119149   2.452   5.656   3.487  0.1966 -0.1482 -0.3945
 6381TIP3    H219150   2.369   5.552   3.560  0.9968 -1.0351 -0.7168
 6382TIP3   OH219151   0.325   2.608   0.307 -0.5090  0.1294 -0.2038
 6382TIP3    H119152   0.314   2.632   0.215  0.3104 -0.4717 -0.4660
 6382TIP3    H219153   0.368   2.522   0.305 -0.6750  0.0097  0.7403
 6383TIP3   OH219154   2.510   3.331   3.178 -0.2418  0.2739 -0.0567
 6383TIP3    H119155   2.604   3.341   3.196  0.2577 -1.5440 -1.4624
 6383TIP3    H219156   2.472   3.315   3.264  0.9841 -0.6508  0.3456
 6384TIP3   OH219157   2.083   4.879   0.374  0.2164 -0.0562  0.2903
 6384TIP3    H119158   2.170   4.892   0.336  0.8427 -1.1941  1.2626
 6384TIP3    H219159   2.028   4.945   0.332  1.5463  0.6829 -0.3405
 6385TIP3   OH219160   3.293   4.600   2.884  0.1410  0.7169 -0.5283
 6385TIP3    H119161   3.244   4.539   2.939 -1.1387  1.4443 -0.8144
 6385TIP3    H219162   3.382   4.595   2.917  0.0799 -1.3052 -0.5663
 6386TIP3   OH219163   0.134   0.717   3.218  0.3899 -0.0483 -0.1998
 6386TIP3    H119164   0.202   0.771   3.257 -0.3827  1.3060 -0.6634
 6386TIP3    H219165   0.083   0.778   3.165 -1.3424 -0.9659  0.3463
 6387TIP3   OH219166   2.824   4.474   0.879  0.4251  0.1608  0.9304
 6387TIP3    H119167   2.735   4.486   0.911 -0.0568 -0.6935 -0.0151
 6387TIP3    H219168   2.863   4.562   0.882 -1.1102  0.9632 -0.4841
 6388TIP3   OH219169   1.332   4.389   3.176  0.1727  0.2455  0.4348
 6388TIP3    H119170   1.427   4.399   3.180 -0.0155  1.8020  2.3483
 6388TIP3    H219171   1.308   4.353   3.261 -0.8955 -1.1018 -0.3911
 6389TIP3   OH219172   5.748   4.128   1.404  0.4100  0.3243  0.8903
 6389TIP3    H119173   5.780   4.168   1.323 -1.0641 -0.8909 -0.3360
 6389TIP3    H219174   5.828   4.106   1.452  1.3981 -0.5008 -1.0138
 6390TIP3   OH219175   0.782   3.829   0.240 -0.2703 -0.1216 -0.3208
 6390TIP3    H119176   0.823   3.845   0.155 -0.4538 -1.1122 -0.6106
 6390TIP3    H219177   0.855   3.832   0.303 -0.3963  2.6588 -0.1931
 6391TIP3   OH219178   0.713   2.980   2.797  0.1398 -0.1218 -0.0106
 6391TIP3    H119179   0.647   3.027   2.746 -2.4827 -1.9236  1.5074
 6391TIP3    H219180   0.726   2.898   2.748  0.0394 -0.4722  0.5498
 6392TIP3   OH219181   2.789   4.123   3.275  0.0803 -0.7166 -0.3011
 6392TIP3    H119182   2.750   4.176   3.205  0.9864  0.0680 -0.2361
 6392TIP3    H219183   2.810   4.040   3.234  0.0550 -0.4738 -0.8084
 6393TIP3   OH219184   3.469   0.481   2.558  0.3180 -0.1054 -0.2778
 6393TIP3    H119185   3.452   0.532   2.638 -0.4438 -0.4081 -0.2375
 6393TIP3    H219186   3.561   0.498   2.538  1.2430 -1.8335  1.9960
 6394TIP3   OH219187   4.283   5.276   2.533 -0.4213  0.0086  0.5202
 6394TIP3    H119188   4.331   5.216   2.590  0.3589  1.5586  1.5786
 6394TIP3    H219189   4.208   5.305   2.586 -2.1303 -1.7368 -0.8153
 6395TIP3   OH219190   5.823   5.416   1.340 -0.3902 -0.4238 -0.4201
 6395TIP3    H119191   5.852   5.417   1.432 -1.8835  2.8628  0.1758
 6395TIP3    H219192   5.728   5.424   1.345 -0.3575  2.4219 -2.1352
 6396TIP3   OH219193   6.077   3.626   4.978  0.1490  0.0941  0.0710
 6396TIP3    H119194   6.020   3.669   4.914 -1.1447 -0.7276  0.6407
 6396TIP3    H219195   6.163   3.666   4.964 -0.4699  1.0817 -1.0745
 6397TIP3   OH219196   2.435   1.565   0.583 -0.7412 -0.1980  0.2559
 6397TIP3    H119197   2.504   1.567   0.649 -1.6032 -0.4628  1.1867
 6397TIP3    H219198   2.361   1.609   0.624 -0.9672  0.6028 -0.9399
 6398TIP3   OH219199   4.272   1.719   1.616 -0.2264  0.0271  0.2258
 6398TIP3    H119200   4.266   1.737   1.710 -0.3729  1.2935 -0.0183
 6398TIP3    H219201   4.228   1.634   1.606 -0.6368  0.0993  1.2296
 6399TIP3   OH219202   4.728   1.299   2.305  0.6876  0.0837  0.4279
 6399TIP3    H119203   4.687   1.225   2.351 -0.2848 -0.2940 -0.9847
 6399TIP3    H219204   4.762   1.354   2.375  0.9040 -1.3891  1.5401
 6400TIP3   OH219205   3.251   3.662   1.082  0.9207 -0.3594  0.0044
 6400TIP3    H119206   3.325   3.639   1.026  0.1914 -2.4197 -0.2124
 6400TIP3    H219207   3.190   3.708   1.025  1.6355  0.5488 -0.0373
 6401TIP3   OH219208   5.158   4.508   0.573  0.2217 -0.1829 -0.0373
 6401TIP3    H119209   5.182   4.416   0.572  0.6438 -0.0758  0.0788
 6401TIP3    H219210   5.149   4.531   0.481 -1.2947 -0.6946 -0.0415
 6402TIP3   OH219211   5.996   2.221   0.246 -0.5032 -0.3813 -0.0128
 6402TIP3    H119212   6.017   2.256   0.333  0.3322  1.3097 -0.8443
 6402TIP3    H219213   6.063   2.155   0.230 -0.8818 -0.9770  0.7443
 6403TIP3   OH219214   3.558   0.997   3.608 -0.0756 -0.1009 -0.1614
 6403TIP3    H119215   3.544   1.085   3.572  0.4745  0.9511  1.9976
 6403TIP3    H219216   3.636   0.965   3.564 -1.1679 -0.2128 -2.1223
 6404TIP3   OH219217   3.740   1.969   2.323  0.3195 -0.5832  0.3644
 6404TIP3    H119218   3.656   1.998   2.287  0.0014 -1.6279  0.2350
 6404TIP3    H219219   3.766   2.039   2.383 -0.8132 -0.3977  0.6645
 6405TIP3   OH219220   0.993   4.278   0.128  0.4218 -0.3064 -0.1742
 6405TIP3    H119221   0.948   4.316   0.052 -2.3650 -0.4002  1.2981
 6405TIP3    H219222   1.055   4.345   0.155 -0.8190  1.0936 -0.6509
 6406TIP3   OH219223   0.560   3.306   0.595 -0.1745 -0.1406  0.1894
 6406TIP3    H119224   0.545   3.220   0.633  1.0744 -0.5945 -0.3088
 6406TIP3    H219225   0.486   3.359   0.625  0.4790 -0.6102  2.8125
 6407TIP3   OH219226   2.295   1.658   4.383 -0.2466  0.7605  0.7731
 6407TIP3    H119227   2.215   1.675   4.333 -1.6291 -0.4611  2.4869
 6407TIP3    H219228   2.347   1.601   4.327  0.7614  3.6396 -1.5220
 6408TIP3   OH219229   2.685   0.352   0.576  0.5210  0.4537  0.0938
 6408TIP3    H119230   2.687   0.322   0.485  1.0157  0.8770 -0.0432
 6408TIP3    H219231   2.735   0.286   0.624 -2.2130 -1.4179  0.6097
 6409TIP3   OH219232   0.498   4.103   1.695  0.2081  0.4465  0.7194
 6409TIP3    H119233   0.504   4.117   1.789  0.7232  1.0681  0.6093
 6409TIP3    H219234   0.503   4.008   1.684  1.9460  0.4280  1.2352
 6410TIP3   OH219235   0.865   5.100   1.992 -0.3671  0.2338 -0.3135
 6410TIP3    H119236   0.897   5.048   1.918 -0.4871  1.2895 -1.1298
 6410TIP3    H219237   0.944   5.140   2.029 -0.4928  1.1055 -0.9729
 6411TIP3   OH219238   2.754   1.966   0.024  0.3449  0.3294 -0.0261
 6411TIP3    H119239   2.695   1.963   0.100  1.3608  0.7014  0.8002
 6411TIP3    H219240   2.758   2.058  -0.000 -0.0657  0.1962 -0.6153
 6412TIP3   OH219241   1.084   3.604   2.259 -0.0689  0.1930 -0.5850
 6412TIP3    H119242   1.142   3.641   2.326  1.3897 -1.5420 -0.8244
 6412TIP3    H219243   1.132   3.615   2.177 -0.8048  0.1901 -1.0259
 6413TIP3   OH219244   4.915   5.328   0.831  0.8665  0.0090  0.1846
 6413TIP3    H119245   4.873   5.242   0.840 -1.6754  1.0386 -0.7522
 6413TIP3    H219246   4.883   5.378   0.906 -2.4610  1.8043 -2.1699
 6414TIP3   OH219247   2.389   4.496   1.187 -0.1258  0.5940 -0.4690
 6414TIP3    H119248   2.296   4.479   1.198  0.0911  0.8297  2.7621
 6414TIP3    H219249   2.402   4.581   1.229  1.7013  0.0072  0.2431
 6415TIP3   OH219250   4.742   4.799   1.725 -0.5376 -0.3782 -0.0857
 6415TIP3    H119251   4.808   4.736   1.755  1.2180  1.4284  0.1235
 6415TIP3    H219252   4.708   4.761   1.644  1.2337 -1.1271 -0.5402
 6416TIP3   OH219253   5.072   3.255   3.378 -0.1590 -0.1244 -0.3812
 6416TIP3    H119254   5.007   3.237   3.310 -2.0695  0.3710  1.2173
 6416TIP3    H219255   5.109   3.169   3.398  0.6672 -0.2358 -2.2101
 6417TIP3   OH219256   0.550   2.575   2.727  0.2763  0.0565  0.0258
 6417TIP3    H119257   0.574   2.489   2.763  1.5911 -0.7459 -2.5433
 6417TIP3    H219258   0.457   2.568   2.707  0.2061 -0.4808  0.5094
 6418TIP3   OH219259   3.609   3.966   0.653  0.0528  0.0703 -0.1483
 6418TIP3    H119260   3.562   4.007   0.581 -0.6272  0.8039  0.6915
 6418TIP3    H219261   3.637   4.040   0.708  2.9052 -0.2451 -1.0147
 6419TIP3   OH219262   6.165   3.503   0.096  0.4296  0.2694  0.1881
 6419TIP3    H119263   6.258   3.509   0.071  0.4468  1.2104  0.4288
 6419TIP3    H219264   6.124   3.453   0.026  1.1799 -0.4525  0.2498
 6420TIP3   OH219265   0.658   2.349   4.013 -0.2130  0.0813 -0.0277
 6420TIP3    H119266   0.579   2.320   4.058  0.3406  0.7030  1.4111
 6420TIP3    H219267   0.718   2.275   4.020  0.8588  1.0797  2.8025
 6421TIP3   OH219268   3.077   3.290   2.146  0.0347 -0.8271 -0.0990
 6421TIP3    H119269   2.987   3.289   2.113  0.3275  0.0390 -0.9754
 6421TIP3    H219270   3.116   3.208   2.115 -0.1820 -0.7789 -0.4959
 6422TIP3   OH219271   2.724   5.081   2.937  0.5925  0.1351 -0.0977
 6422TIP3    H119272   2.712   5.162   2.887 -0.4595  1.0609  1.5647
 6422TIP3    H219273   2.643   5.032   2.922  0.2249  0.4672  0.7569
 6423TIP3   OH219274   0.504   2.523   3.532  0.3097 -0.2664 -0.0953
 6423TIP3    H119275   0.576   2.579   3.563  1.2873 -2.3194  1.5790
 6423TIP3    H219276   0.545   2.464   3.469 -0.8508  1.1744 -2.3676
 6424TIP3   OH219277   5.149   1.187   0.203 -0.0025 -0.2583 -0.0024
 6424TIP3    H119278   5.128   1.100   0.238  0.2828 -0.0837  0.6038
 6424TIP3    H219279   5.098   1.248   0.256  0.2139 -0.0128 -0.0766
 6425TIP3   OH219280   2.180   2.723   1.398 -0.4414  0.5914  0.1302
 6425TIP3    H119281   2.196   2.743   1.490 -0.2764  0.4879  0.1245
 6425TIP3    H219282   2.168   2.628   1.395 -1.7628  0.7325  0.2366
 6426TIP3   OH219283   3.886   4.851   0.922  0.7781  0.2842 -0.5017
 6426TIP3    H119284   3.957   4.846   0.857  0.5364  0.9859 -0.8328
 6426TIP3    H219285   3.808   4.872   0.870  0.3750 -0.2482 -0.1102
 6427TIP3   OH219286   0.621   3.594   0.849 -0.3412 -0.5905 -0.0564
 6427TIP3    H119287   0.674   3.543   0.787  2.6230  0.5899  1.3277
 6427TIP3    H219288   0.602   3.533   0.920 -0.1049 -0.7884 -0.1602
 6428TIP3   OH219289   3.593   1.659   2.660 -0.1236  0.1489  0.2453
 6428TIP3    H119290   3.624   1.630   2.746  0.3671 -1.1955 -0.3578
 6428TIP3    H219291   3.672   1.683   2.612 -0.5004  2.4769  0.6707
 6429TIP3   OH219292   5.703   0.561   4.073  0.4358  0.6278  0.3888
 6429TIP3    H119293   5.663   0.504   4.139  0.3259  0.5148  0.2251
 6429TIP3    H219294   5.648   0.550   3.996  1.4269 -0.4308 -0.2102
 6430TIP3   OH219295   2.328   5.773   4.838  0.7698 -0.5262 -0.0285
 6430TIP3    H119296   2.267   5.701   4.853  1.2606 -0.9675 -0.1064
 6430TIP3    H219297   2.409   5.744   4.879  0.7999  0.2525  0.4751
 6431TIP3   OH219298   5.432   1.233   0.249 -0.4182 -0.1017  0.4474
 6431TIP3    H119299   5.502   1.168   0.254 -0.2685  0.1423  2.0831
 6431TIP3    H219300   5.356   1.184   0.218  0.1356 -0.6750 -0.0154
 6432TIP3   OH219301   6.060   2.939   2.917  0.0757  0.0789 -0.2795
 6432TIP3    H119302   5.975   2.960   2.956 -0.0358  0.3235 -0.6575
 6432TIP3    H219303   6.045   2.940   2.823  0.1531 -1.3237 -0.3377
 6433TIP3   OH219304   2.592   5.785   3.531  0.9119 -0.1468  0.4164
 6433TIP3    H119305   2.655   5.830   3.474  0.7423  0.1286  0.4458
 6433TIP3    H219306   2.621   5.804   3.620  1.1835 -0.5876  0.4232
 6434TIP3   OH219307   6.172   1.428   3.545 -0.0409  0.4677  0.3934
 6434TIP3    H119308   6.093   1.440   3.598 -0.8031 -0.8574 -0.3964
 6434TIP3    H219309   6.157   1.347   3.496  2.4826 -0.7097  1.3833
 6435TIP3   OH219310   1.953   3.223   0.145  0.5745 -0.0964 -0.2017
 6435TIP3    H119311   1.900   3.281   0.199 -0.1079 -0.7503 -0.1599
 6435TIP3    H219312   1.914   3.136   0.156  2.3763 -0.8330  0.7778
 6436TIP3   OH219313   5.373   1.960   4.685  0.3596  0.1198 -0.1498
 6436TIP3    H119314   5.289   2.006   4.678  0.2974 -0.0355 -0.4433
 6436TIP3    H219315   5.350   1.867   4.681  0.6044  0.0836 -0.9807
 6437TIP3   OH219316   4.043   5.476   1.906 -0.1462  0.3883 -0.7479
 6437TIP3    H119317   3.981   5.548   1.890 -0.9437 -0.2674 -0.7221
 6437TIP3    H219318   4.038   5.424   1.826 -1.7393 -1.1720  0.2819
 6438TIP3   OH219319   2.262   4.560   4.303  1.0469  0.1011  0.0596
 6438TIP3    H119320   2.232   4.480   4.346  0.9611 -0.2833 -0.7013
 6438TIP3    H219321   2.354   4.567   4.328  1.0264 -0.1699  0.2214
 6439TIP3   OH219322   4.030   5.197   3.277  0.3578 -0.3469 -0.2012
 6439TIP3    H119323   4.083   5.228   3.203  0.6848  0.2854  0.2893
 6439TIP3    H219324   4.020   5.104   3.261 -1.5387  0.1287 -2.2900
 6440TIP3   OH219325   3.243   5.017   1.602 -0.4804 -0.0929 -0.1996
 6440TIP3    H119326   3.325   4.967   1.600  0.0689  0.7951 -1.1008
 6440TIP3    H219327   3.252   5.080   1.530 -0.8070  1.8498  1.3864
 6441TIP3   OH219328   0.948   0.022   3.138 -0.0256  0.3971  0.0543
 6441TIP3    H119329   1.005   0.075   3.193 -1.8175  2.4766  0.0576
 6441TIP3    H219330   1.006  -0.044   3.100  2.3157  2.1934  0.2597
 6442TIP3   OH219331   1.224   5.189   1.930  0.6220 -0.4627  0.0330
 6442TIP3    H119332   1.179   5.267   1.899  0.6748 -0.9915 -1.4587
 6442TIP3    H219333   1.184   5.169   2.015 -0.0846  0.5915 -0.0435
 6443TIP3   OH219334   5.964   1.192   2.151 -0.2663 -0.3508  0.0343
 6443TIP3    H119335   5.977   1.193   2.056 -3.6595  3.7799 -0.7105
 6443TIP3    H219336   6.007   1.271   2.182 -2.0160  0.1406  1.3363
 6444TIP3   OH219337   3.317   4.232   5.213  0.1386 -0.3375  0.4025
 6444TIP3    H119338   3.294   4.162   5.153  0.6463 -1.1269  1.1020
 6444TIP3    H219339   3.346   4.304   5.157 -3.3214  0.5263 -0.5166
 6445TIP3   OH219340   3.185   5.536   4.270  0.0223 -0.6488 -0.1690
 6445TIP3    H119341   3.182   5.477   4.195  0.9282 -0.9558  0.0190
 6445TIP3    H219342   3.230   5.485   4.338 -1.5010 -0.6737  0.8570
 6446TIP3   OH219343   0.061   2.984   4.497  0.1852 -0.3869 -0.5536
 6446TIP3    H119344   0.007   3.030   4.433 -0.3294 -1.0057 -0.5793
 6446TIP3    H219345   0.000   2.965   4.569  0.9294  0.9799  0.4732
 6447TIP3   OH219346   2.206   0.202   3.267 -0.8287 -0.5189  0.1607
 6447TIP3    H119347   2.138   0.269   3.260 -0.3636 -0.0603  0.0243
 6447TIP3    H219348   2.245   0.217   3.353 -0.0146  0.0703 -0.2998
 6448TIP3   OH219349   2.414   0.331   1.230  0.5636 -0.4367  0.1167
 6448TIP3    H119350   2.470   0.358   1.303  2.6606 -2.0706 -0.7635
 6448TIP3    H219351   2.469   0.270   1.180 -0.8419  0.4701 -2.7126
 6449TIP3   OH219352   4.655   3.141   0.415 -0.1500  0.5917  0.7892
 6449TIP3    H119353   4.714   3.075   0.452 -1.1151  0.0058  1.3188
 6449TIP3    H219354   4.662   3.215   0.475  0.4433  0.7443  0.5483
 6450TIP3   OH219355   2.003   4.259   1.948 -1.3411 -0.4888 -0.8425
 6450TIP3    H119356   1.987   4.166   1.927 -0.5243 -0.3661 -2.1864
 6450TIP3    H219357   2.089   4.277   1.909 -1.2340  0.6920 -0.0942
 6451TIP3   OH219358   3.657   0.902   2.277 -0.2053 -0.0995  0.2965
 6451TIP3    H119359   3.738   0.937   2.313 -1.0143  0.2071  1.9030
 6451TIP3    H219360   3.679   0.879   2.187  1.5734  0.2558  0.6023
 6452TIP3   OH219361   1.065   4.512   1.284  0.3082  0.4354 -0.0623
 6452TIP3    H119362   1.003   4.503   1.211 -0.6508  1.6806  0.5622
 6452TIP3    H219363   1.138   4.562   1.247  1.5939 -2.0450 -1.1367
 6453TIP3   OH219364   5.590   4.180   0.886  0.0035  0.0263 -0.0207
 6453TIP3    H119365   5.638   4.183   0.969  1.6450  0.0395 -0.9129
 6453TIP3    H219366   5.658   4.193   0.819 -1.1955 -0.4829 -1.3907
 6454TIP3   OH219367   5.487   1.839   2.772 -0.1306 -0.3997  0.4125
 6454TIP3    H119368   5.519   1.928   2.787  0.1629 -0.5587  0.7202
 6454TIP3    H219369   5.534   1.809   2.695 -1.5518  0.3721 -0.8256
 6455TIP3   OH219370   5.499   5.427   2.966 -0.3634  0.4689 -0.2109
 6455TIP3    H119371   5.428   5.474   3.010  0.1882  0.7684  0.3867
 6455TIP3    H219372   5.455   5.364   2.910 -1.1169  1.2124 -0.4841
 6456TIP3   OH219373   3.650   1.022   0.084  0.2244 -0.3593  0.1434
 6456TIP3    H119374   3.689   1.035   0.171  0.5171 -0.3068  0.0055
 6456TIP3    H219375   3.558   1.006   0.102  0.0218  0.9950  0.3743
 6457TIP3   OH219376   0.902   5.875   4.076  0.3656  0.2837  0.1816
 6457TIP3    H119377   0.885   5.786   4.045  0.3425  0.3612 -0.0350
 6457TIP3    H219378   0.912   5.926   3.995  0.3333  0.4844  0.3047
 6458TIP3   OH219379   2.890   2.058   4.343  0.4048  0.4340  0.0431
 6458TIP3    H119380   2.893   2.001   4.420 -1.2322 -1.6970 -1.3496
 6458TIP3    H219381   2.975   2.045   4.301  0.5854  0.1431  0.4913
 6459TIP3   OH219382   5.917   1.277   1.225  0.1800 -0.2945 -0.8851
 6459TIP3    H119383   5.983   1.211   1.248  1.6732  1.2441 -0.5036
 6459TIP3    H219384   5.954   1.321   1.148 -0.5735  0.3470 -0.8936
 6460TIP3   OH219385   5.253   3.463   1.945 -0.8610 -0.2294  0.2745
 6460TIP3    H119386   5.340   3.443   1.979 -1.2451 -0.5525  1.0830
 6460TIP3    H219387   5.193   3.444   2.017 -1.4779  1.4867  0.2502
 6461TIP3   OH219388   0.776   5.386   4.482  0.5580  0.1747 -0.8631
 6461TIP3    H119389   0.769   5.337   4.564  0.5227  0.2749 -0.8066
 6461TIP3    H219390   0.738   5.471   4.501  2.3671  0.9171 -0.4114
 6462TIP3   OH219391   2.906   3.121   3.253 -0.1180 -0.0726 -0.1481
 6462TIP3    H119392   2.826   3.082   3.218 -1.7102  0.5582  2.5528
 6462TIP3    H219393   2.977   3.073   3.210 -1.8727 -0.5454 -2.7562
 6463TIP3   OH219394   2.686   0.908   1.876  0.1421  0.2615 -0.0639
 6463TIP3    H119395   2.663   0.879   1.788  1.8782  1.3130 -0.9250
 6463TIP3    H219396   2.701   0.828   1.925  0.9779 -0.3320 -1.2597
 6464TIP3   OH219397   3.138   2.640   3.151  0.2742  0.0284 -0.5275
 6464TIP3    H119398   3.077   2.661   3.222 -0.2416 -0.6723 -0.7472
 6464TIP3    H219399   3.083   2.597   3.085  1.0343 -0.7646 -0.6636
 6465TIP3   OH219400   2.292   4.918   2.155 -0.2235 -0.8928 -0.2542
 6465TIP3    H119401   2.365   4.875   2.109 -1.4007 -1.9271 -1.2395
 6465TIP3    H219402   2.251   4.847   2.205  0.5151  0.0533  1.7763
 6466TIP3   OH219403   3.792   1.871   1.293 -0.5001  0.0237  0.1009
 6466TIP3    H119404   3.734   1.889   1.367 -0.8289  3.2929 -0.8252
 6466TIP3    H219405   3.734   1.845   1.222 -0.4263 -0.4861  0.2202
 6467TIP3   OH219406   5.720   1.366   3.883 -0.0960  0.5110 -0.1292
 6467TIP3    H119407   5.645   1.333   3.834 -0.4096 -0.9968  1.2505
 6467TIP3    H219408   5.682   1.408   3.960  0.3743 -2.3170  1.8282
 6468TIP3   OH219409   3.090   3.668   1.766  0.5030  0.0496 -0.0720
 6468TIP3    H119410   3.176   3.710   1.768  1.1214 -1.1348  2.4537
 6468TIP3    H219411   3.085   3.619   1.849 -2.0246 -1.0918 -0.7916
 6469TIP3   OH219412   0.166   4.750   1.121 -0.6418  0.2245 -0.0790
 6469TIP3    H119413   0.249   4.735   1.076 -0.9557  0.1363 -0.6366
 6469TIP3    H219414   0.148   4.668   1.168 -0.0977  0.4691  0.5728
 6470TIP3   OH219415   2.287   1.122   0.572 -0.3783  0.1433  0.6280
 6470TIP3    H119416   2.287   1.095   0.663  0.2972  1.2942  0.9864
 6470TIP3    H219417   2.213   1.075   0.533 -1.4053  0.5541  2.0186
 6471TIP3   OH219418   5.246   3.638   3.985 -0.3516  0.2599 -0.7212
 6471TIP3    H119419   5.271   3.618   4.076 -1.6004  1.1937 -0.1482
 6471TIP3    H219420   5.263   3.732   3.976  2.1393 -0.2336 -2.2829
 6472TIP3   OH219421   3.941   4.993   3.818 -0.0389 -0.0053  0.0464
 6472TIP3    H119422   3.897   5.069   3.779 -3.5570 -1.7922  0.0997
 6472TIP3    H219423   3.980   4.947   3.743 -2.0235 -0.5347 -0.7354
 6473TIP3   OH219424   0.805   3.601   2.269  0.1510 -0.1515 -0.1948
 6473TIP3    H119425   0.788   3.536   2.201  2.5484  1.1647 -2.2621
 6473TIP3    H219426   0.900   3.612   2.268 -0.1119  3.6557 -0.3640
 6474TIP3   OH219427   6.265   1.647   4.949 -0.0999 -0.6214 -0.0307
 6474TIP3    H119428   6.259   1.732   4.905 -0.2256 -1.4260 -1.6659
 6474TIP3    H219429   6.358   1.625   4.946  0.2191  0.2765  2.0950
 6475TIP3   OH219430   2.901   2.795   2.843 -0.6592 -0.1633 -0.4322
 6475TIP3    H119431   2.859   2.759   2.766  1.3093 -2.3050 -0.6344
 6475TIP3    H219432   2.917   2.719   2.899 -1.0046  1.1781  1.5935
 6476TIP3   OH219433   1.261   0.366   4.582 -0.4036  0.5880 -0.3495
 6476TIP3    H119434   1.194   0.303   4.555  0.0625 -0.6565  1.2806
 6476TIP3    H219435   1.343   0.316   4.580 -0.1078  0.9417  1.5629
 6477TIP3   OH219436   2.699   5.411   2.373  0.0551  0.4759 -0.4245
 6477TIP3    H119437   2.777   5.446   2.331 -0.7706  1.4798 -1.1854
 6477TIP3    H219438   2.627   5.466   2.341 -1.0829 -0.8944 -0.3470
 6478TIP3   OH219439   3.463   3.762   3.958  0.2614  0.3857 -0.0850
 6478TIP3    H119440   3.487   3.810   4.038 -1.1755  0.6589  0.2182
 6478TIP3    H219441   3.532   3.784   3.896  1.5305 -0.0062  1.1363
 6479TIP3   OH219442   5.957   1.071   4.056 -0.0636 -0.0244  0.0583
 6479TIP3    H119443   6.002   0.988   4.069 -1.1165 -0.3950  1.6074
 6479TIP3    H219444   5.899   1.056   3.980 -0.3364 -0.7479  0.4034
 6480TIP3   OH219445   1.807   0.089   3.268  0.0773  0.7346 -0.4232
 6480TIP3    H119446   1.753   0.129   3.337 -0.9922  0.8096 -1.2849
 6480TIP3    H219447   1.747   0.032   3.220  1.3527 -1.3010  0.2200
 6481TIP3   OH219448   3.320   3.991   0.576  0.1735 -0.6883 -0.0798
 6481TIP3    H119449   3.281   3.920   0.627  0.7347 -0.4883  0.6419
 6481TIP3    H219450   3.318   4.066   0.635  1.3400 -0.5922 -0.1372
 6482TIP3   OH219451   5.090   1.612   3.259  0.0341  0.2645 -0.1124
 6482TIP3    H119452   5.119   1.567   3.179 -0.0795  0.6563 -0.3787
 6482TIP3    H219453   5.075   1.541   3.322 -1.3375 -0.1786 -0.8950
 6483TIP3   OH219454   1.631   1.381   5.070 -0.7019 -0.2228  0.3028
 6483TIP3    H119455   1.710   1.328   5.060  0.0638  0.3570  2.6802
 6483TIP3    H219456   1.581   1.338   5.139 -1.7245  0.2779 -0.1070
 6484TIP3   OH219457   5.004   5.609   2.036  0.4400  0.2375 -0.5207
 6484TIP3    H119458   5.068   5.624   1.967  0.5456  1.0957 -0.2519
 6484TIP3    H219459   5.051   5.629   2.117  0.1184 -0.0898 -0.2491
 6485TIP3   OH219460   1.841   5.831   0.322  0.4469  0.4171 -0.3605
 6485TIP3    H119461   1.790   5.910   0.307  0.1606  0.7297  1.9288
 6485TIP3    H219462   1.777   5.766   0.349  1.0968  0.5535  1.6322
 6486TIP3   OH219463   2.845   3.205   3.938 -0.3698  0.1169 -0.1520
 6486TIP3    H119464   2.759   3.245   3.952 -0.0513  0.5478  0.6116
 6486TIP3    H219465   2.894   3.269   3.887 -0.0162  0.5178  0.6727
 6487TIP3   OH219466   0.440   2.530   3.035 -0.5256 -0.0109 -0.1427
 6487TIP3    H119467   0.514   2.589   3.048 -0.7862  0.2646  0.1289
 6487TIP3    H219468   0.407   2.512   3.123 -0.2868 -0.7796 -0.2051
 6488TIP3   OH219469   2.818   1.230   2.850 -1.0658  0.1964 -0.0992
 6488TIP3    H119470   2.752   1.248   2.918  0.4567 -2.1159  2.1462
 6488TIP3    H219471   2.801   1.140   2.823 -0.4332  0.4622 -1.4598
 6489TIP3   OH219472   0.503   2.752   3.856 -0.4460  0.0769  0.5004
 6489TIP3    H119473   0.471   2.703   3.932 -0.5517  1.0573  1.1034
 6489TIP3    H219474   0.432   2.813   3.836 -0.1599  0.2465 -0.0152
 6490TIP3   OH219475   5.150   3.691   0.174  0.0014  0.0763  0.2337
 6490TIP3    H119476   5.137   3.617   0.232  0.4349 -1.4720 -1.5577
 6490TIP3    H219477   5.203   3.657   0.102 -0.6409  1.8560 -1.1650
 6491TIP3   OH219478   3.008   5.577   3.884 -0.3630 -0.3543 -0.2874
 6491TIP3    H119479   3.005   5.592   3.789 -1.5234 -0.6683 -0.3205
 6491TIP3    H219480   3.073   5.508   3.896 -0.5490 -0.6492 -0.9211
 6492TIP3   OH219481   0.172   0.660   2.887  0.6909  0.1845 -0.2395
 6492TIP3    H119482   0.158   0.715   2.809  1.9319  1.0979  0.1368
 6492TIP3    H219483   0.129   0.708   2.958  2.0811  0.9067  0.1575
 6493TIP3   OH219484   2.614   4.728   4.802  0.5975  0.0268  0.7356
 6493TIP3    H119485   2.655   4.704   4.886  2.2965  0.4941  0.0718
 6493TIP3    H219486   2.649   4.814   4.782 -1.2657  0.7526  0.4304
 6494TIP3   OH219487   1.171   3.965   3.672  0.7272  0.0065  0.5085
 6494TIP3    H119488   1.194   4.040   3.727  0.4463 -0.2253  0.9584
 6494TIP3    H219489   1.246   3.906   3.678  0.6384 -0.0841  0.7736
 6495TIP3   OH219490   5.073   4.351   4.264  0.2288 -0.0224  0.2921
 6495TIP3    H119491   5.031   4.436   4.251 -0.4234 -0.5663 -1.4065
 6495TIP3    H219492   5.073   4.339   4.359 -0.9907  1.2200  0.4900
 6496TIP3   OH219493   5.292   0.374   3.809 -0.0441 -0.1301  0.0792
 6496TIP3    H119494   5.227   0.344   3.874  0.4665 -0.2505  0.5448
 6496TIP3    H219495   5.301   0.301   3.749 -1.4254  0.4324 -0.8558
 6497TIP3   OH219496   0.305   0.043   4.887 -0.1773 -0.6674 -0.3322
 6497TIP3    H119497   0.242  -0.029   4.887  0.5704 -1.3390 -1.1480
 6497TIP3    H219498   0.252   0.121   4.872 -0.7933 -1.2442 -1.2060
 6498TIP3   OH219499   0.734   4.774   2.026 -0.1396  0.0935 -0.2171
 6498TIP3    H119500   0.785   4.837   2.078 -1.5026 -0.8562  2.4872
 6498TIP3    H219501   0.780   4.691   2.037 -0.4093 -0.1073 -0.5952
 6499TIP3   OH219502   4.152   1.127   0.959  0.5854  0.2350 -0.2988
 6499TIP3    H119503   4.075   1.164   0.918  0.4022 -1.0705 -1.1893
 6499TIP3    H219504   4.125   1.039   0.986  1.4813  0.1062  0.2253
 6500TIP3   OH219505   5.671   5.253   0.711 -0.3252  0.3087  0.4992
 6500TIP3    H119506   5.733   5.283   0.645 -0.7065  0.4191  0.1850
 6500TIP3    H219507   5.724   5.236   0.789 -0.1253  1.9751  0.7567
 6501TIP3   OH219508   5.629   2.567   5.002 -0.6160 -0.0091  0.1597
 6501TIP3    H119509   5.640   2.482   5.045 -0.1677 -0.1586 -0.2516
 6501TIP3    H219510   5.557   2.608   5.050  0.2090  0.0437  1.3988
 6502TIP3   OH219511   2.481   1.237   1.030 -0.6269  0.4720 -0.5312
 6502TIP3    H119512   2.409   1.242   1.093 -0.3130  3.6436 -0.2591
 6502TIP3    H219513   2.560   1.245   1.083  0.0166 -2.2399 -0.9093
 6503TIP3   OH219514   2.449   5.337   3.770  0.4867  0.3849  0.1851
 6503TIP3    H119515   2.413   5.309   3.854  0.0882 -0.0789 -0.1375
 6503TIP3    H219516   2.408   5.279   3.706 -0.3756  1.7195 -0.5072
 6504TIP3   OH219517   6.252   0.414   1.781 -0.0492  0.4574 -0.4563
 6504TIP3    H119518   6.295   0.499   1.793 -0.1247  0.5167 -0.5928
 6504TIP3    H219519   6.180   0.415   1.843  1.3125 -0.4627  1.2155
 6505TIP3   OH219520   4.108   3.310   1.118  0.1347 -0.4739  0.6603
 6505TIP3    H119521   4.113   3.402   1.093  2.7188 -0.3377  1.3880
 6505TIP3    H219522   4.142   3.307   1.207  1.3751 -2.2680  0.1826
 6506TIP3   OH219523   2.496   3.675   3.781 -0.1179 -0.1301 -0.4304
 6506TIP3    H119524   2.557   3.601   3.778 -0.8714 -0.7959 -0.0416
 6506TIP3    H219525   2.535   3.741   3.725  0.3783 -0.9987 -1.1424
 6507TIP3   OH219526   0.043   1.127   2.383 -0.2776  0.1732  0.8132
 6507TIP3    H119527   0.016   1.160   2.297  0.6521  0.6660  0.6944
 6507TIP3    H219528   0.027   1.033   2.379  3.0561 -0.4620 -1.2632
 6508TIP3   OH219529   2.331   5.843   2.226  0.5000  0.3394 -0.3564
 6508TIP3    H119530   2.245   5.833   2.268  0.9002 -3.3425 -0.0589
 6508TIP3    H219531   2.389   5.869   2.298  0.3549 -1.4550  0.4658
 6509TIP3   OH219532   1.304   1.910   1.993 -0.2519 -0.1854 -0.0813
 6509TIP3    H119533   1.216   1.886   2.023 -0.4581 -0.3280 -0.7865
 6509TIP3    H219534   1.353   1.927   2.074 -1.7226  2.8479  0.3085
 6510TIP3   OH219535   4.761   5.675   1.699  0.2845  0.1741 -0.3081
 6510TIP3    H119536   4.816   5.752   1.712 -0.6217  0.3049  4.6681
 6510TIP3    H219537   4.675   5.710   1.675  0.7025  0.4162 -1.4982
 6511TIP3   OH219538   2.512   0.993   0.812  0.5645  0.4801 -0.2786
 6511TIP3    H119539   2.526   1.010   0.905  0.2836  1.5003 -0.4071
 6511TIP3    H219540   2.417   0.986   0.803  0.6478 -0.7758 -0.3113
 6512TIP3   OH219541   5.568   4.043   1.775  0.2583 -0.2580 -0.1702
 6512TIP3    H119542   5.569   4.139   1.781 -1.1435 -0.3353  2.9357
 6512TIP3    H219543   5.520   4.025   1.694  0.9691  1.6102 -1.0756
 6513TIP3   OH219544   3.627   4.871   2.089 -0.5390  0.0226  0.0414
 6513TIP3    H119545   3.603   4.940   2.151  0.2578 -0.1280  0.5278
 6513TIP3    H219546   3.620   4.913   2.003 -0.9997  0.4233  0.2701
 6514TIP3   OH219547   4.644   2.171   0.327 -0.2879 -0.0553  0.2643
 6514TIP3    H119548   4.734   2.138   0.321 -0.4005 -0.2596 -0.4698
 6514TIP3    H219549   4.653   2.265   0.307  0.0013  0.3464  2.1235
 6515TIP3   OH219550   6.125   1.104   1.246 -0.3169 -0.5533  0.2880
 6515TIP3    H119551   6.197   1.062   1.199  0.5925  1.2134  0.0301
 6515TIP3    H219552   6.167   1.168   1.302 -1.7022  0.8417 -0.2002
 6516TIP3   OH219553   0.544   4.957   0.655  0.4623 -0.2119  0.2840
 6516TIP3    H119554   0.459   4.923   0.684  0.5072 -1.5177 -0.9377
 6516TIP3    H219555   0.605   4.885   0.672  0.6813 -0.6065 -1.8367
 6517TIP3   OH219556   5.850   5.267   0.920 -0.1922  0.3353  0.7830
 6517TIP3    H119557   5.934   5.290   0.881  0.0617  1.2816  1.8446
 6517TIP3    H219558   5.873   5.229   1.005 -0.8372  0.8619  1.2021
 6518TIP3   OH219559   4.692   1.578   1.777 -0.0139 -0.3122  0.0974
 6518TIP3    H119560   4.612   1.542   1.816 -0.3112 -0.0337 -0.2459
 6518TIP3    H219561   4.749   1.595   1.852  0.6298 -2.6136  0.2268
 6519TIP3   OH219562   2.203   2.031   1.551  0.5955 -0.2478  0.0508
 6519TIP3    H119563   2.219   2.125   1.556 -0.3976  0.1034 -2.1422
 6519TIP3    H219564   2.247   1.995   1.628 -1.0681  2.2252  2.3259
 6520TIP3   OH219565   5.203   4.300   2.533 -0.0946 -0.2091 -0.0357
 6520TIP3    H119566   5.143   4.276   2.463  0.6195  0.1721 -0.8047
 6520TIP3    H219567   5.164   4.263   2.613 -1.9941  1.1060 -0.2927
 6521TIP3   OH219568   4.210   3.356   4.418 -0.4094 -0.0617 -0.0765
 6521TIP3    H119569   4.242   3.336   4.330  0.3721  1.6617 -0.2373
 6521TIP3    H219570   4.115   3.345   4.412 -0.3777  0.1233 -1.1753
 6522TIP3   OH219571   1.049   3.425   1.060 -0.2432 -0.1303  0.3210
 6522TIP3    H119572   0.960   3.390   1.057 -0.7071  0.8176 -4.0577
 6522TIP3    H219573   1.104   3.349   1.078 -1.6863 -1.7884 -1.7415
 6523TIP3   OH219574   4.848   3.118   1.336 -0.1869  0.2674 -0.1138
 6523TIP3    H119575   4.851   3.085   1.245 -1.5836  1.2964 -0.5631
 6523TIP3    H219576   4.804   3.048   1.385 -0.5629  0.2341 -0.4907
 6524TIP3   OH219577   6.221   0.644   0.708 -0.3685  0.3643 -0.3541
 6524TIP3    H119578   6.162   0.700   0.760 -0.7602  0.1759 -0.5900
 6524TIP3    H219579   6.178   0.636   0.623  0.3401  0.7834 -0.7583
 6525TIP3   OH219580   1.988   5.777   3.878  0.4927  0.4437  0.1410
 6525TIP3    H119581   2.011   5.704   3.935  0.7390  0.3512 -0.0745
 6525TIP3    H219582   2.028   5.756   3.794  0.4776  0.7760  0.0474
 6526TIP3   OH219583   3.160   4.546   0.941  0.0873  0.1153 -0.3388
 6526TIP3    H119584   3.127   4.529   1.029 -1.1501 -0.2446 -0.8444
 6526TIP3    H219585   3.247   4.583   0.954 -0.8638  1.9942  1.1098
 6527TIP3   OH219586   2.232   2.098   0.944  0.4939  0.5502  0.1828
 6527TIP3    H119587   2.247   2.005   0.966  0.9447  0.6607  0.3671
 6527TIP3    H219588   2.141   2.113   0.966  0.0008 -0.2378 -1.2231
 6528TIP3   OH219589   0.083   4.789   4.995 -0.1516  0.2430  0.3540
 6528TIP3    H119590   0.006   4.833   5.032  0.6082  2.4081 -0.4718
 6528TIP3    H219591   0.154   4.807   5.057  0.6441  2.0951 -0.9939
 6529TIP3   OH219592   0.404   3.244   5.091  0.4179  0.1364  0.2480
 6529TIP3    H119593   0.449   3.192   5.158  0.8239  0.1727  0.0059
 6529TIP3    H219594   0.393   3.183   5.018  1.8879  0.6962 -0.4599
 6530TIP3   OH219595   6.272   3.831   1.272  0.2449 -0.1240 -0.3739
 6530TIP3    H119596   6.305   3.849   1.184  0.7054 -1.5285 -0.5210
 6530TIP3    H219597   6.177   3.824   1.261  0.3213 -0.5154 -0.8162
 6531TIP3   OH219598   3.271   4.660   3.182  0.1519  0.0402  0.2125
 6531TIP3    H119599   3.221   4.583   3.155 -0.5315 -0.6257  2.9620
 6531TIP3    H219600   3.224   4.734   3.144 -0.6573 -0.7913 -0.4488
 6532TIP3   OH219601   1.956   5.046   2.177  0.5917  0.2089 -0.5181
 6532TIP3    H119602   2.041   5.089   2.174  0.4118  0.8256  1.6150
 6532TIP3    H219603   1.900   5.100   2.121  1.2652  0.6203 -0.8016
 6533TIP3   OH219604   4.911   2.811   2.387 -0.1336  0.9950  0.3758
 6533TIP3    H119605   4.991   2.812   2.440 -0.7235 -0.5604  1.3471
 6533TIP3    H219606   4.844   2.852   2.442 -0.7273 -0.5411  0.8300
 6534TIP3   OH219607   2.900   2.115   0.820  0.0735 -0.5324 -0.6764
 6534TIP3    H119608   2.965   2.089   0.754  0.2127 -1.2183 -0.2801
 6534TIP3    H219609   2.820   2.069   0.795  0.8136 -2.9429  1.0876
 6535TIP3   OH219610   0.807   0.336   0.581 -0.1467 -0.5775 -0.3729
 6535TIP3    H119611   0.736   0.273   0.593  0.8048 -1.3251  1.9225
 6535TIP3    H219612   0.870   0.291   0.525 -0.5931 -0.6732 -0.8018
 6536TIP3   OH219613   1.736   5.371   1.008  0.3782 -0.3116  0.1127
 6536TIP3    H119614   1.720   5.373   0.914  0.4943  0.8288  0.1105
 6536TIP3    H219615   1.676   5.303   1.041  0.1513 -0.5314 -0.7398
 6537TIP3   OH219616   3.235   4.088   1.324  0.3554  0.2733 -0.7211
 6537TIP3    H119617   3.199   4.151   1.261 -0.3796  0.2053 -0.3886
 6537TIP3    H219618   3.273   4.142   1.393 -1.0615  0.4045  0.0129
 6538TIP3   OH219619   1.958   1.882   4.782 -0.6144  0.1419 -0.3163
 6538TIP3    H119620   2.037   1.861   4.832 -0.7134  0.6161  0.0466
 6538TIP3    H219621   1.890   1.827   4.820 -0.4064 -0.4885 -0.8251
 6539TIP3   OH219622   5.059   0.913   3.411  1.4027  0.2296 -0.5805
 6539TIP3    H119623   5.007   0.975   3.358 -0.3283  0.9952  1.8483
 6539TIP3    H219624   5.011   0.906   3.493  2.5745 -2.9411 -0.0342
 6540TIP3   OH219625   3.300   2.657   3.740 -0.1301  0.1295  0.1515
 6540TIP3    H119626   3.390   2.654   3.710 -0.2855  2.6241 -0.7823
 6540TIP3    H219627   3.248   2.676   3.662 -1.2804  0.2670  0.9133
 6541TIP3   OH219628   4.379   2.433   3.140  0.2060  0.5373  0.4603
 6541TIP3    H119629   4.398   2.377   3.065 -0.5207 -1.0075  1.3889
 6541TIP3    H219630   4.286   2.420   3.159  0.6200 -0.0698  2.3498
 6542TIP3   OH219631   1.777   5.222   0.404  0.7240 -0.2550  0.2256
 6542TIP3    H119632   1.751   5.280   0.475 -1.4754  1.4860 -1.8495
 6542TIP3    H219633   1.865   5.252   0.379  0.3619  0.9822  0.3977
 6543TIP3   OH219634   0.682   3.999   4.139 -0.6581  0.1170  0.2618
 6543TIP3    H119635   0.619   3.933   4.111 -0.9267  1.2877 -2.1560
 6543TIP3    H219636   0.640   4.082   4.117  0.5362  1.0384  1.3029
 6544TIP3   OH219637   2.741   4.212   4.262 -0.0835  0.1997  0.2793
 6544TIP3    H119638   2.751   4.239   4.171 -0.6206 -0.7231 -0.0680
 6544TIP3    H219639   2.829   4.190   4.290  0.4790  2.6995  0.7451
 6545TIP3   OH219640   0.594   5.681   0.248  0.0295 -0.2292 -0.0302
 6545TIP3    H119641   0.639   5.629   0.315  0.2360  0.0675  0.0639
 6545TIP3    H219642   0.660   5.744   0.218  0.1205 -0.7420 -0.9360
 6546TIP3   OH219643   5.397   4.858   1.231 -0.1117  0.0799  0.3887
 6546TIP3    H119644   5.450   4.812   1.296 -2.0197 -3.0031 -0.0042
 6546TIP3    H219645   5.460   4.892   1.168  1.5789  0.0424  1.9875
 6547TIP3   OH219646   0.109   5.056   0.069 -0.4654 -0.3354  0.5815
 6547TIP3    H119647   0.171   5.123   0.097 -1.7690  0.8053  0.8599
 6547TIP3    H219648   0.163   4.988   0.029  0.7494  1.9907 -2.0642
 6548TIP3   OH219649   1.429   5.979   3.688 -0.4158 -0.0555  0.2393
 6548TIP3    H119650   1.462   5.967   3.777 -0.3384 -1.5828  0.0305
 6548TIP3    H219651   1.502   6.017   3.640 -0.4130  0.6526  0.7783
 6549TIP3   OH219652   0.398   3.660   5.036 -0.1793  0.0902 -0.0417
 6549TIP3    H119653   0.471   3.721   5.020 -0.5564  0.4043 -0.5882
 6549TIP3    H219654   0.325   3.716   5.060 -0.1187 -0.2611  0.9859
 6550TIP3   OH219655   6.322   1.477   0.264 -0.0613 -0.4326  0.1892
 6550TIP3    H119656   6.406   1.522   0.260 -0.0538 -0.5120 -1.5876
 6550TIP3    H219657   6.258   1.541   0.232 -0.3306 -1.0551 -0.5568
 6551TIP3   OH219658   2.021   5.535   4.058  0.2581  0.4488 -0.1120
 6551TIP3    H119659   1.944   5.535   4.115 -0.6320 -0.7868 -1.2691
 6551TIP3    H219660   1.987   5.512   3.972  1.6572  1.8078 -1.0580
 6552TIP3   OH219661   4.906   2.588   3.179 -0.4301 -0.2088 -0.1295
 6552TIP3    H119662   4.839   2.531   3.142 -0.3102  0.3587 -1.2541
 6552TIP3    H219663   4.989   2.548   3.152 -0.3409  0.1096 -0.3350
 6553TIP3   OH219664   2.713   2.724   1.679  0.3036  0.1924 -0.6457
 6553TIP3    H119665   2.673   2.793   1.732 -0.6536 -1.6550  1.1682
 6553TIP3    H219666   2.774   2.680   1.738 -0.2001 -1.4342 -1.2609
 6554TIP3   OH219667   0.044   0.686   1.537  0.2049  0.3615  0.3233
 6554TIP3    H119668  -0.039   0.734   1.537 -0.2163 -0.2601  2.4229
 6554TIP3    H219669   0.045   0.641   1.621  2.2213 -0.4690 -0.1003
 6555TIP3   OH219670   1.286   3.643   0.014  0.1159  0.0926 -0.3695
 6555TIP3    H119671   1.355   3.609   0.071 -0.2448 -1.8245 -1.0081
 6555TIP3    H219672   1.217   3.671   0.074 -0.3884 -2.1804  0.2130
 6556TIP3   OH219673   5.986   3.801   1.272  0.4947 -0.1508  0.3133
 6556TIP3    H119674   5.895   3.810   1.246 -0.0696 -0.9470  1.8993
 6556TIP3    H219675   5.996   3.708   1.294  1.7677 -0.1318 -0.0796
 6557TIP3   OH219676   1.801   4.745   4.000  0.9074 -0.1109  0.3856
 6557TIP3    H119677   1.724   4.695   4.027  0.7276  0.2664  0.5798
 6557TIP3    H219678   1.830   4.790   4.080  0.7182  0.5570  0.0890
 6558TIP3   OH219679   2.798   4.709   3.159 -0.4073 -0.6550 -0.0086
 6558TIP3    H119680   2.787   4.698   3.065 -0.4467  0.5220 -0.1511
 6558TIP3    H219681   2.796   4.804   3.173 -0.3948 -0.8138  1.1741
 6559TIP3   OH219682   4.860   1.894   2.193 -0.3632  0.2433  0.3580
 6559TIP3    H119683   4.886   1.893   2.101 -0.8172 -3.6376  0.1248
 6559TIP3    H219684   4.766   1.913   2.191 -0.5140 -0.5191 -0.0537
 6560TIP3   OH219685   4.474   1.893   2.336  0.1395  0.2252 -0.6217
 6560TIP3    H119686   4.492   1.873   2.244  1.0129 -1.3555 -0.1257
 6560TIP3    H219687   4.516   1.823   2.385  0.1900  1.3602  1.0323
 6561TIP3   OH219688   0.008   4.156   0.373 -0.3205  0.0531  0.3417
 6561TIP3    H119689  -0.013   4.164   0.466  1.3738 -1.0581  0.8694
 6561TIP3    H219690   0.095   4.195   0.365 -0.7203  0.7354 -0.9251
 6562TIP3   OH219691   5.605   4.915   1.047  0.1156 -0.2809  0.2323
 6562TIP3    H119692   5.598   4.866   0.965 -1.4968  2.2805 -1.3110
 6562TIP3    H219693   5.695   4.946   1.050  0.3382 -0.8631 -0.2700
 6563TIP3   OH219694   2.809   3.080   1.236 -0.1298 -0.0235 -0.1869
 6563TIP3    H119695   2.729   3.130   1.249 -1.9456 -2.5890 -0.6902
 6563TIP3    H219696   2.806   3.012   1.304  2.9566  1.2361  1.4089
 6564TIP3   OH219697   0.880   0.256   0.159 -0.3771 -0.5376 -0.2883
 6564TIP3    H119698   0.829   0.196   0.214 -0.5459  0.6552  0.9177
 6564TIP3    H219699   0.832   0.258   0.076 -3.9572  2.3867  1.5042
 6565TIP3   OH219700   3.531   2.214   3.293  0.2099 -0.0849  0.2747
 6565TIP3    H119701   3.506   2.301   3.323 -1.8111 -0.2117 -0.8339
 6565TIP3    H219702   3.480   2.155   3.349  1.0614 -0.5504  0.5763
 6566TIP3   OH219703   1.088   5.354   3.376  0.1407 -0.0832 -0.1912
 6566TIP3    H119704   1.040   5.354   3.293 -0.6743  1.7935  0.2401
 6566TIP3    H219705   1.097   5.446   3.399  0.7468 -0.5469  1.5838
 6567TIP3   OH219706   5.355   4.750   4.041  0.2272 -0.6743 -0.1796
 6567TIP3    H119707   5.390   4.833   4.008 -0.0486  0.0285  1.2191
 6567TIP3    H219708   5.425   4.687   4.024  0.5448 -0.1146 -1.0387
 6568TIP3   OH219709   1.112   0.674   3.053 -0.2191 -0.2649  0.2305
 6568TIP3    H119710   1.084   0.594   3.009  1.6522  0.1187 -1.8836
 6568TIP3    H219711   1.105   0.655   3.146 -0.2572 -2.7076 -0.2162
 6569TIP3   OH219712   2.473   3.365   4.635 -0.5725  0.5707  0.3085
 6569TIP3    H119713   2.421   3.293   4.599  0.1974 -0.3770  1.0574
 6569TIP3    H219714   2.450   3.440   4.580 -2.7336  0.2103  0.6204
 6570TIP3   OH219715   2.645   5.195   0.594  0.1373 -0.1690 -0.1510
 6570TIP3    H119716   2.729   5.233   0.620 -1.1560  2.1890  0.8895
 6570TIP3    H219717   2.662   5.157   0.508  2.2792  0.1528  0.0664
 6571TIP3   OH219718   3.893   3.960   2.846  0.3482 -0.5128 -0.1267
 6571TIP3    H119719   3.960   3.970   2.779 -0.8950  1.0948 -1.2003
 6571TIP3    H219720   3.941   3.961   2.929  1.7819 -1.1351 -0.9132
 6572TIP3   OH219721   5.444   2.723   4.138  0.7956 -0.0853  0.0534
 6572TIP3    H119722   5.390   2.655   4.097 -0.6367 -0.4405  2.3563
 6572TIP3    H219723   5.381   2.789   4.167  1.9678  1.1938 -0.2070
 6573TIP3   OH219724   1.151   5.054   5.183 -0.6542  0.0036  0.3335
 6573TIP3    H119725   1.097   5.133   5.186  0.5985  0.9298 -0.5195
 6573TIP3    H219726   1.088   4.982   5.184 -1.8432  1.0141  0.6295
 6574TIP3   OH219727   5.202   1.818   4.197 -0.3570  0.0769  0.0469
 6574TIP3    H119728   5.133   1.771   4.244 -0.6887  0.1546 -0.3541
 6574TIP3    H219729   5.156   1.863   4.126  0.1331 -0.0415 -0.3529
 6575TIP3   OH219730   2.486   4.161   3.678  0.1667  0.4850  0.1432
 6575TIP3    H119731   2.474   4.108   3.599 -0.2330  0.6545  0.0883
 6575TIP3    H219732   2.408   4.216   3.682  1.1049  1.9322 -0.4573
 6576TIP3   OH219733   3.673   3.304   1.893  0.0766 -0.4376  0.1183
 6576TIP3    H119734   3.692   3.211   1.896 -0.7960 -0.6091  0.7463
 6576TIP3    H219735   3.578   3.310   1.901  0.0679  0.4815 -0.4585
 6577TIP3   OH219736   4.911   0.269   1.894 -0.3107 -0.2563  0.1882
 6577TIP3    H119737   4.844   0.296   1.957 -0.7271  0.1162 -0.4036
 6577TIP3    H219738   4.899   0.174   1.886 -1.6178 -0.0255 -0.8567
 6578TIP3   OH219739   2.890   4.513   4.155  0.6948  0.1325  0.0484
 6578TIP3    H119740   2.864   4.439   4.101 -0.5494  0.8421 -0.3815
 6578TIP3    H219741   2.959   4.557   4.105  0.8982 -0.2891 -0.0464
 6579TIP3   OH219742   0.880   3.047   4.124 -0.1209  0.1663  0.0798
 6579TIP3    H119743   0.801   2.995   4.118 -2.7830  3.9766 -3.1677
 6579TIP3    H219744   0.943   3.004   4.067 -0.8310 -1.4198  0.4581
 6580TIP3   OH219745   1.078   5.122   1.154  0.1576 -0.9068  0.4508
 6580TIP3    H119746   1.146   5.064   1.121  1.3319  0.5418  0.2237
 6580TIP3    H219747   1.103   5.139   1.245  0.9367  0.7360 -0.0293
 6581TIP3   OH219748   1.117   2.181   1.288 -0.0447  0.5160 -0.4374
 6581TIP3    H119749   1.029   2.171   1.251  0.0333  0.7217 -0.6804
 6581TIP3    H219750   1.117   2.125   1.365  0.3146 -1.2421 -1.6520
 6582TIP3   OH219751   4.151   1.318   0.085  0.5760 -0.3833 -0.2988
 6582TIP3    H119752   4.186   1.237   0.048 -0.2986 -1.1826  0.5489
 6582TIP3    H219753   4.137   1.297   0.178  1.1828  1.0340  0.1316
 6583TIP3   OH219754   2.725   3.313   4.723  0.0990 -0.1850  0.7407
 6583TIP3    H119755   2.750   3.391   4.772 -0.6282  0.0269  0.7934
 6583TIP3    H219756   2.644   3.338   4.678  1.0520 -0.1980 -1.0331
 6584TIP3   OH219757   2.698   0.284   1.795  0.0499 -0.2651  0.0971
 6584TIP3    H119758   2.625   0.329   1.753  0.0933 -1.7796 -1.7322
 6584TIP3    H219759   2.767   0.284   1.728  0.9281 -0.8273  0.9756
 6585TIP3   OH219760   0.543   0.308   0.308  0.4259  0.4039  0.4757
 6585TIP3    H119761   0.597   0.229   0.313 -1.1130 -1.0788 -2.7819
 6585TIP3    H219762   0.548   0.335   0.217 -2.0993  1.8085  0.6500
 6586TIP3   OH219763   1.475   5.591   2.110  0.1924 -0.2361  0.3152
 6586TIP3    H119764   1.491   5.556   2.023  1.0494 -2.3032  1.2358
 6586TIP3    H219765   1.433   5.676   2.095  0.9268 -0.2269 -2.0916
 6587TIP3   OH219766   5.346   0.707   0.678  0.1629  0.1624 -0.1924
 6587TIP3    H119767   5.342   0.638   0.612 -2.4147  1.6197 -1.7066
 6587TIP3    H219768   5.422   0.759   0.655  0.1405 -0.2027 -1.1071
 6588TIP3   OH219769   4.845   3.582   2.600 -0.2022 -0.2928 -0.5639
 6588TIP3    H119770   4.802   3.617   2.678  0.2818 -0.3265 -0.2756
 6588TIP3    H219771   4.820   3.490   2.597  1.2272 -0.7619  0.5926
 6589TIP3   OH219772   5.393   1.074   2.648 -0.1699  0.5264 -0.4053
 6589TIP3    H119773   5.337   1.109   2.579  0.2787  0.2240 -0.9199
 6589TIP3    H219774   5.387   1.140   2.718 -1.0908  0.5427 -0.4817
 6590TIP3   OH219775   6.064   2.483   2.232 -0.0786 -0.2475 -0.0996
 6590TIP3    H119776   6.092   2.400   2.272 -0.0984 -0.4037 -0.4028
 6590TIP3    H219777   5.990   2.459   2.177 -0.1851  0.0011 -0.0636
 6591TIP3   OH219778   0.835   5.851   4.326 -0.0975 -0.1558 -0.3942
 6591TIP3    H119779   0.872   5.847   4.238  0.7174 -0.3392 -0.0503
 6591TIP3    H219780   0.892   5.795   4.379  0.6913  1.5860  0.6989
 6592TIP3   OH219781   5.226   1.832   2.807  0.2615 -0.2867  0.3787
 6592TIP3    H119782   5.170   1.839   2.730 -1.6146  1.9287  1.8171
 6592TIP3    H219783   5.304   1.883   2.786  0.7834 -1.5046 -0.7921
 6593TIP3   OH219784   5.409   4.494   2.584  0.0297 -0.3034  0.5515
 6593TIP3    H119785   5.380   4.519   2.672 -0.1504 -0.1496  0.4476
 6593TIP3    H219786   5.337   4.440   2.550  0.9276 -2.0281  1.2482
 6594TIP3   OH219787   0.945   0.721   0.133  0.3827  0.0375 -0.0673
 6594TIP3    H119788   1.001   0.753   0.203 -0.0504  0.7736 -0.0551
 6594TIP3    H219789   0.889   0.655   0.175 -0.2664  0.8790  0.4169
 6595TIP3   OH219790   2.303   0.632   2.331  0.3197  0.2642  0.1767
 6595TIP3    H119791   2.313   0.612   2.424  0.4633  1.7416  0.4983
 6595TIP3    H219792   2.385   0.605   2.291  0.2213 -0.4617  0.4608
 6596TIP3   OH219793   1.028   0.961   4.496 -0.2989 -0.6638  0.1584
 6596TIP3    H119794   1.010   0.997   4.409  0.7229 -0.3905  0.0474
 6596TIP3    H219795   1.008   0.867   4.488 -1.6392 -0.3793  0.0574
 6597TIP3   OH219796   3.879   5.497   5.078 -0.1821 -0.2469 -0.2776
 6597TIP3    H119797   3.842   5.518   4.992 -1.0754  0.5901  0.2928
 6597TIP3    H219798   3.821   5.430   5.113 -1.0565  0.8787  0.5082
 6598TIP3   OH219799   0.284   2.917   2.195 -0.1619  0.2871  0.6214
 6598TIP3    H119800   0.256   3.000   2.154 -0.1451 -0.1912 -0.3912
 6598TIP3    H219801   0.220   2.901   2.263 -0.5859  0.7739  0.3429
 6599TIP3   OH219802   5.544   3.859   4.789  0.4624 -0.7506 -0.4361
 6599TIP3    H119803   5.570   3.951   4.802  0.0223 -0.8543  1.4202
 6599TIP3    H219804   5.529   3.826   4.877  0.1808 -2.5023 -1.1124
 6600TIP3   OH219805   2.438   5.548   2.590 -0.0396 -0.3794 -0.1200
 6600TIP3    H119806   2.367   5.522   2.530 -0.6799  1.7837 -0.3795
 6600TIP3    H219807   2.447   5.642   2.576  1.2717 -0.2030  1.6655
 6601TIP3   OH219808   5.982   3.496   0.517  0.2679 -0.6403 -0.3239
 6601TIP3    H119809   5.991   3.551   0.439 -1.5974 -1.8783 -1.5011
 6601TIP3    H219810   5.903   3.528   0.560  0.9307 -0.3850  0.7463
 6602TIP3   OH219811   1.944   2.224   3.999  0.0765 -0.4236  0.4182
 6602TIP3    H119812   1.928   2.304   4.049 -0.0480  0.4426 -0.9714
 6602TIP3    H219813   1.928   2.153   4.062  1.3129  0.6318  1.9945
 6603TIP3   OH219814   0.068   2.773   0.663  0.4312  0.2005  0.2860
 6603TIP3    H119815  -0.002   2.834   0.640  0.6660  0.7551  0.9987
 6603TIP3    H219816   0.080   2.719   0.584 -0.5084  0.3654  0.0174
 6604TIP3   OH219817   4.008   3.686   1.877  0.3595  0.3455  0.2050
 6604TIP3    H119818   3.997   3.720   1.788  1.0191 -0.2649 -0.1210
 6604TIP3    H219819   3.969   3.598   1.874 -0.2904  0.6056  0.7266
 6605TIP3   OH219820   3.262   3.092   3.054  0.5985 -0.1959 -0.3748
 6605TIP3    H119821   3.180   3.045   3.071  0.6126  0.0645  0.4427
 6605TIP3    H219822   3.246   3.138   2.972  0.1105 -0.5587 -0.4941
 6606TIP3   OH219823   5.531   4.557   3.920 -0.1152 -0.1384  0.0500
 6606TIP3    H119824   5.621   4.578   3.947  0.6424 -0.9951 -1.6195
 6606TIP3    H219825   5.541   4.524   3.831 -2.3319  1.6215 -0.9234
 6607TIP3   OH219826   3.425   2.910   1.861  0.0425 -0.0607  0.0816
 6607TIP3    H119827   3.379   2.977   1.810  0.4142  0.8140  0.8711
 6607TIP3    H219828   3.492   2.876   1.801 -0.6758 -0.3129 -0.5919
 6608TIP3   OH219829   2.287   5.120   4.519 -0.0094 -0.1537  0.2548
 6608TIP3    H119830   2.232   5.192   4.548  0.4166  0.3685 -0.2140
 6608TIP3    H219831   2.366   5.126   4.574  0.2978  0.1271 -0.2125
 6609TIP3   OH219832   1.655   5.632   1.070 -0.3467 -0.2038 -0.7738
 6609TIP3    H119833   1.636   5.634   0.977 -0.5684 -0.3825 -0.7340
 6609TIP3    H219834   1.665   5.539   1.090  0.4369 -0.1297 -0.7658
 6610TIP3   OH219835   2.309   5.273   2.694  0.6983 -0.5596 -0.2666
 6610TIP3    H119836   2.269   5.209   2.636  0.9422 -1.0192  0.0689
 6610TIP3    H219837   2.401   5.276   2.667  0.5419  0.1973 -0.7681
 6611TIP3   OH219838   1.313   2.599   4.281 -0.1217 -0.0422 -0.2784
 6611TIP3    H119839   1.260   2.545   4.339 -1.3343 -0.9023 -2.0842
 6611TIP3    H219840   1.337   2.540   4.209 -1.7651  1.8273 -2.5073
 6612TIP3   OH219841   4.144   2.821   3.689 -0.2054  0.0801 -0.1114
 6612TIP3    H119842   4.104   2.862   3.766 -2.1526 -0.0660 -1.0125
 6612TIP3    H219843   4.097   2.857   3.615  0.8242 -0.7159 -1.1899
 6613TIP3   OH219844   4.494   5.606   1.626 -0.5444  0.8381  0.0264
 6613TIP3    H119845   4.476   5.541   1.558 -0.5455  0.7591  0.1032
 6613TIP3    H219846   4.517   5.685   1.577 -1.7548  1.1359 -0.0935
 6614TIP3   OH219847   1.351   1.092   1.146 -0.3226 -0.2356 -0.2235
 6614TIP3    H119848   1.316   1.003   1.150  0.2177 -0.4815 -0.6962
 6614TIP3    H219849   1.387   1.108   1.233  0.0616 -0.6893 -0.2948
 6615TIP3   OH219850   3.805   0.710   1.543  0.1617  0.7798 -0.2336
 6615TIP3    H119851   3.852   0.732   1.624  1.0179 -2.4527  0.2645
 6615TIP3    H219852   3.726   0.665   1.573  0.8618 -1.1334 -1.1603
 6616TIP3   OH219853   4.569   0.489   3.337  0.2440  0.0969  0.4270
 6616TIP3    H119854   4.499   0.461   3.395  1.2454  1.4689  2.4290
 6616TIP3    H219855   4.528   0.492   3.250 -1.4920 -1.4074  1.1270
 6617TIP3   OH219856   2.366   4.875   3.926 -0.3354  0.0318  0.0121
 6617TIP3    H119857   2.439   4.938   3.921  0.4541 -0.6113  2.1112
 6617TIP3    H219858   2.296   4.923   3.969 -0.4192  0.0533 -0.1499
 6618TIP3   OH219859   4.280   4.260   1.673 -0.5043  0.1382 -0.5906
 6618TIP3    H119860   4.305   4.334   1.728 -1.2709  0.4047 -0.5993
 6618TIP3    H219861   4.211   4.215   1.722 -0.4692 -0.2180 -0.8629
 6619TIP3   OH219862   0.023   0.129   0.982 -0.1948  1.0004  0.1936
 6619TIP3    H119863   0.090   0.133   1.050 -1.0335  1.4403  1.0199
 6619TIP3    H219864   0.057   0.065   0.919  0.2118 -0.0845  1.4645
 6620TIP3   OH219865   1.239   3.023   3.549 -0.1312  0.4915  0.0512
 6620TIP3    H119866   1.252   2.934   3.517 -0.3270 -0.0434  1.4272
 6620TIP3    H219867   1.175   3.061   3.488 -0.1177 -0.3214 -0.4859
 6621TIP3   OH219868   5.322   3.116   0.909  0.1723  0.0929 -0.1657
 6621TIP3    H119869   5.400   3.145   0.957  0.6857  0.0817 -0.9774
 6621TIP3    H219870   5.251   3.171   0.942  0.4273 -0.1887  0.9026
 6622TIP3   OH219871   4.725   4.409   0.319 -0.7276 -0.1676 -0.1907
 6622TIP3    H119872   4.706   4.328   0.367  0.1594 -1.0637 -1.3005
 6622TIP3    H219873   4.765   4.467   0.384  0.0452 -1.1994  0.2780
 6623TIP3   OH219874   5.581   1.016   0.276 -0.2201  0.2387  0.6922
 6623TIP3    H119875   5.625   0.949   0.329 -0.6038  0.4136  1.2436
 6623TIP3    H219876   5.494   0.980   0.259  0.3351 -0.4040 -0.9711
 6624TIP3   OH219877   5.667   1.041   0.878 -0.7981 -0.3579 -0.2374
 6624TIP3    H119878   5.725   1.034   0.953 -1.3826  0.1222  0.2646
 6624TIP3    H219879   5.726   1.053   0.803 -0.1665 -1.6559  0.0145
 6625TIP3   OH219880   1.837   0.782   3.426  0.4269 -0.9535 -0.7578
 6625TIP3    H119881   1.750   0.817   3.445  0.3734 -1.1897 -0.5603
 6625TIP3    H219882   1.864   0.827   3.346  0.9088  0.5491  0.1969
 6626TIP3   OH219883   0.771   5.873   0.254 -0.7612 -0.4456  0.8124
 6626TIP3    H119884   0.865   5.853   0.250 -0.5654 -0.0522  2.6299
 6626TIP3    H219885   0.764   5.964   0.226 -0.4230 -0.0987  1.8034
 6627TIP3   OH219886   5.419   2.908   3.004  0.0942 -0.2902  0.0351
 6627TIP3    H119887   5.329   2.926   2.975 -0.9850 -2.8932  1.4413
 6627TIP3    H219888   5.459   2.995   3.013 -3.0540  1.1450  1.7097
 6628TIP3   OH219889   0.401   3.896   0.461  0.7684 -0.7015 -0.6300
 6628TIP3    H119890   0.429   3.823   0.405 -1.5614 -2.3557  0.2318
 6628TIP3    H219891   0.364   3.960   0.400  1.1492 -1.0516 -1.2383
 6629TIP3   OH219892   5.421   4.518   1.391  0.2764  0.6113  0.3372
 6629TIP3    H119893   5.452   4.429   1.411 -2.0475 -0.0811  1.1810
 6629TIP3    H219894   5.333   4.505   1.356 -0.1413  2.6022  0.5343
 6630TIP3   OH219895   1.321   1.157   4.284  0.4540  0.1521 -0.0239
 6630TIP3    H119896   1.271   1.177   4.205 -0.0058 -0.7091  0.0382
 6630TIP3    H219897   1.387   1.225   4.288  0.8969 -0.1486 -1.5099
 6631TIP3   OH219898   5.934   0.301   0.799 -0.5314 -0.2055 -0.4527
 6631TIP3    H119899   5.919   0.395   0.800  0.6743  0.0055  0.5411
 6631TIP3    H219900   6.023   0.291   0.764 -0.7560 -0.9963 -0.8219
 6632TIP3   OH219901   1.160   4.544   1.939  0.6426 -0.0740 -0.0574
 6632TIP3    H119902   1.131   4.633   1.960 -1.1586 -0.7042  0.2407
 6632TIP3    H219903   1.108   4.487   1.995  1.3694 -1.3581 -0.6395
 6633TIP3   OH219904   0.580   1.692   2.395 -0.0450 -0.0740 -0.2961
 6633TIP3    H119905   0.644   1.760   2.372 -1.0627  0.4584 -1.7030
 6633TIP3    H219906   0.623   1.610   2.369 -0.5523  0.3989 -2.9262
 6634TIP3   OH219907   3.936   2.104   4.099  0.1441  0.2547  0.2782
 6634TIP3    H119908   3.841   2.090   4.100  0.2950 -1.1558  2.3350
 6634TIP3    H219909   3.951   2.170   4.167  0.8071 -1.8177  2.2924
 6635TIP3   OH219910   2.566   1.998   2.185 -0.5279 -0.2107 -0.2579
 6635TIP3    H119911   2.551   1.904   2.183  0.8580 -0.4435 -0.3921
 6635TIP3    H219912   2.648   2.011   2.138 -0.5405  1.0339  0.0129
 6636TIP3   OH219913   1.891   2.254   2.605  0.3564  0.8452 -0.1200
 6636TIP3    H119914   1.834   2.212   2.670 -0.5882 -0.9783 -1.9999
 6636TIP3    H219915   1.975   2.262   2.648 -0.0294 -1.0293  1.1121
 6637TIP3   OH219916   5.420   0.846   3.612  0.3127  0.3851 -0.3444
 6637TIP3    H119917   5.341   0.853   3.665  0.7219  3.4479  0.0526
 6637TIP3    H219918   5.389   0.824   3.525 -0.9605  1.0281 -0.0747
 6638TIP3   OH219919   1.839   4.142   1.510 -0.3137  0.1763  0.1520
 6638TIP3    H119920   1.832   4.166   1.418 -0.4791 -1.6255 -0.3266
 6638TIP3    H219921   1.926   4.172   1.536  0.2351 -0.4431 -0.9385
 6639TIP3   OH219922   3.340   0.996   3.762 -0.8968  0.6333 -0.0205
 6639TIP3    H119923   3.367   1.070   3.816  1.0572 -0.4709  0.6316
 6639TIP3    H219924   3.406   0.992   3.693 -0.4298 -0.9999  0.4718
 6640TIP3   OH219925   3.945   1.122   3.564  0.3810  0.2812  0.1234
 6640TIP3    H119926   3.931   1.150   3.654 -0.0446  1.8405 -0.4085
 6640TIP3    H219927   4.040   1.116   3.555  0.4112 -0.8724  0.9403
   6.35162   5.98837   5.18608   0.00000   0.00000  -2.11721   0.00000  -2.11721  -2.99419
