Title t= 382.00000 step= 191000
19942
    1ASP      N    1   0.975   2.149   3.592
    1ASP    HT1    2   0.915   2.067   3.570
    1ASP    HT2    3   0.958   2.217   3.515
    1ASP    HT3    4   0.941   2.193   3.680
    1ASP     CA    5   1.103   2.080   3.615
    1ASP     HA    6   1.156   2.173   3.632
    1ASP     CB    7   1.098   1.984   3.738
    1ASP    HB1    8   1.050   1.885   3.722
    1ASP    HB2    9   1.039   2.031   3.820
    1ASP     CG   10   1.236   1.946   3.796
    1ASP    OD1   11   1.241   1.880   3.903
    1ASP    OD2   12   1.338   1.992   3.744
    1ASP      C   13   1.159   2.009   3.485
    1ASP      O   14   1.187   2.078   3.391
    2ALA      N   15   1.168   1.880   3.487
    2ALA     HN   16   1.135   1.833   3.568
    2ALA     CA   17   1.207   1.790   3.374
    2ALA     HA   18   1.314   1.802   3.370
    2ALA     CB   19   1.184   1.645   3.418
    2ALA    HB1   20   1.233   1.616   3.513
    2ALA    HB2   21   1.212   1.578   3.333
    2ALA    HB3   22   1.074   1.632   3.429
    2ALA      C   23   1.144   1.809   3.237
    2ALA      O   24   1.037   1.874   3.227
    3ASP      N   25   1.212   1.754   3.131
    3ASP     HN   26   1.293   1.698   3.148
    3ASP     CA   27   1.164   1.772   2.989
    3ASP     HA   28   1.145   1.877   2.977
    3ASP     CB   29   1.269   1.722   2.889
    3ASP    HB1   30   1.230   1.684   2.793
    3ASP    HB2   31   1.316   1.638   2.944
    3ASP     CG   32   1.374   1.820   2.846
    3ASP    OD1   33   1.492   1.787   2.811
    3ASP    OD2   34   1.322   1.929   2.819
    3ASP      C   35   1.031   1.693   2.964
    3ASP      O   36   1.003   1.592   3.033
    4GLY      N   37   0.942   1.749   2.872
    4GLY     HN   38   0.967   1.826   2.814
    4GLY     CA   39   0.811   1.683   2.851
    4GLY    HA1   40   0.759   1.764   2.802
    4GLY    HA2   41   0.776   1.645   2.946
    4GLY      C   42   0.821   1.564   2.756
    4GLY      O   43   0.933   1.506   2.741
    5PRO      N   44   0.714   1.518   2.689
    5PRO     CD   45   0.575   1.556   2.720
    5PRO    HD1   46   0.562   1.663   2.693
    5PRO    HD2   47   0.560   1.534   2.828
    5PRO     CA   48   0.717   1.411   2.591
    5PRO     HA   49   0.714   1.319   2.647
    5PRO     CB   50   0.575   1.412   2.530
    5PRO    HB1   51   0.539   1.310   2.507
    5PRO    HB2   52   0.572   1.476   2.439
    5PRO     CG   53   0.485   1.461   2.633
    5PRO    HG1   54   0.396   1.508   2.586
    5PRO    HG2   55   0.457   1.376   2.698
    5PRO      C   56   0.839   1.390   2.494
    5PRO      O   57   0.868   1.478   2.410
    6GLY      N   58   0.899   1.270   2.496
    6GLY     HN   59   0.871   1.213   2.573
    6GLY     CA   60   0.992   1.230   2.395
    6GLY    HA1   61   1.041   1.139   2.425
    6GLY    HA2   62   1.069   1.301   2.370
    6GLY      C   63   0.918   1.189   2.272
    6GLY      O   64   0.791   1.184   2.261
    7ASP      N   65   1.004   1.157   2.178
    7ASP     HN   66   1.100   1.165   2.201
    7ASP     CA   67   0.978   1.100   2.044
    7ASP     HA   68   0.961   1.186   1.981
    7ASP     CB   69   1.100   1.036   1.973
    7ASP    HB1   70   1.070   0.992   1.876
    7ASP    HB2   71   1.156   0.965   2.038
    7ASP     CG   72   1.203   1.143   1.927
    7ASP    OD1   73   1.307   1.096   1.871
    7ASP    OD2   74   1.178   1.267   1.941
    7ASP      C   75   0.849   1.012   2.035
    7ASP      O   76   0.820   0.927   2.117
    8PRO      N   77   0.757   1.022   1.943
    8PRO     CD   78   0.775   1.108   1.823
    8PRO    HD1   79   0.876   1.091   1.779
    8PRO    HD2   80   0.769   1.217   1.844
    8PRO     CA   81   0.620   0.969   1.956
    8PRO     HA   82   0.572   0.989   2.050
    8PRO     CB   83   0.543   1.041   1.838
    8PRO    HB1   84   0.505   1.135   1.885
    8PRO    HB2   85   0.451   0.992   1.798
    8PRO     CG   86   0.655   1.062   1.737
    8PRO    HG1   87   0.685   0.964   1.693
    8PRO    HG2   88   0.631   1.138   1.660
    8PRO      C   89   0.607   0.816   1.954
    8PRO      O   90   0.515   0.759   2.010
    9ASP      N   91   0.695   0.749   1.877
    9ASP     HN   92   0.765   0.805   1.834
    9ASP     CA   93   0.695   0.606   1.858
    9ASP     HA   94   0.598   0.566   1.886
    9ASP     CB   95   0.733   0.565   1.708
    9ASP    HB1   96   0.737   0.454   1.697
    9ASP    HB2   97   0.825   0.615   1.673
    9ASP     CG   98   0.630   0.610   1.607
    9ASP    OD1   99   0.666   0.630   1.487
    9ASP    OD2  100   0.513   0.624   1.645
    9ASP      C  101   0.804   0.550   1.949
    9ASP      O  102   0.823   0.426   1.956
   10ALA      N  103   0.864   0.639   2.036
   10ALA     HN  104   0.851   0.738   2.038
   10ALA     CA  105   0.965   0.581   2.130
   10ALA     HA  106   1.034   0.518   2.075
   10ALA     CB  107   1.057   0.688   2.190
   10ALA    HB1  108   1.121   0.643   2.269
   10ALA    HB2  109   0.989   0.758   2.243
   10ALA    HB3  110   1.117   0.742   2.114
   10ALA      C  111   0.889   0.508   2.238
   10ALA      O  112   0.775   0.543   2.274
   11GLY      N  113   0.944   0.396   2.289
   11GLY     HN  114   1.031   0.361   2.256
   11GLY     CA  115   0.878   0.298   2.368
   11GLY    HA1  116   0.775   0.291   2.337
   11GLY    HA2  117   0.879   0.331   2.471
   11GLY      C  118   0.928   0.154   2.352
   11GLY    OT1  119   1.022   0.134   2.267
   11GLY    OT2  120   0.859   0.064   2.399
   12LIT    LIT  121   2.155   1.508   0.013
   13LIT    LIT  122   1.940   3.118   1.613
   14LIT    LIT  123   5.138   5.728   3.467
   15LIT    LIT  124   2.269   1.269   2.549
   16LIT    LIT  125   4.008   5.955   2.150
   17LIT    LIT  126   1.623   4.125   2.479
   18LIT    LIT  127   5.996   4.770   1.454
   19LIT    LIT  128   0.449   0.424   0.320
   20LIT    LIT  129   2.471   0.656   4.927
   21LIT    LIT  130   3.008   4.583   3.941
   22LIT    LIT  131   3.088   2.714   1.261
   23LIT    LIT  132   1.702   2.400   3.637
   24LIT    LIT  133   2.299   5.692   3.881
   25LIT    LIT  134   4.805   1.294   1.649
   26LIT    LIT  135   4.991   3.795   0.693
   27LIT    LIT  136   5.240   5.943   2.947
   28LIT    LIT  137   1.242   1.900   4.084
   29LIT    LIT  138   2.104   4.238   3.331
   30LIT    LIT  139   1.784   2.306   2.125
   31LIT    LIT  140   4.905   1.292   4.937
   32LIT    LIT  141   4.288   2.998   2.239
   33LIT    LIT  142   4.584   1.446   2.998
   34CLA    CLA  143   5.944   3.616   1.968
   35CLA    CLA  144   3.138   5.744   3.972
   36CLA    CLA  145   3.815   1.318   4.989
   37CLA    CLA  146   1.753   0.309   3.861
   38CLA    CLA  147   1.637   3.799   5.076
   39CLA    CLA  148   1.639   2.839   1.324
   40CLA    CLA  149   1.976   0.934   4.414
   41CLA    CLA  150   2.009   2.173   1.357
   42CLA    CLA  151   1.963   4.173   1.188
   43CLA    CLA  152   2.741   3.512   2.311
   44CLA    CLA  153   4.742   4.183   3.743
   45CLA    CLA  154   0.269   5.717   2.341
   46CLA    CLA  155   3.696   5.445   2.907
   47CLA    CLA  156   4.766   3.802   0.672
   48CLA    CLA  157   3.170   3.932   4.409
   49CLA    CLA  158   6.331   5.150   0.273
   50CLA    CLA  159   3.326   1.372   3.993
   51CLA    CLA  160   1.548   0.787   1.720
   52TIP3   OH2  161   4.919   1.035   2.880
   52TIP3    H1  162   4.892   0.983   2.955
   52TIP3    H2  163   4.924   1.125   2.913
   53TIP3   OH2  164   2.060   1.804   5.099
   53TIP3    H1  165   1.981   1.762   5.065
   53TIP3    H2  166   2.079   1.757   5.180
   54TIP3   OH2  167   1.519   4.213   1.250
   54TIP3    H1  168   1.597   4.231   1.303
   54TIP3    H2  169   1.480   4.136   1.291
   55TIP3   OH2  170   4.932   5.263   5.043
   55TIP3    H1  171   4.907   5.311   4.964
   55TIP3    H2  172   5.026   5.249   5.034
   56TIP3   OH2  173   5.366   0.914   1.559
   56TIP3    H1  174   5.452   0.942   1.525
   56TIP3    H2  175   5.372   0.929   1.653
   57TIP3   OH2  176   1.329   3.312   2.140
   57TIP3    H1  177   1.389   3.256   2.091
   57TIP3    H2  178   1.242   3.275   2.123
   58TIP3   OH2  179  -0.004   3.260   3.252
   58TIP3    H1  180   0.080   3.299   3.276
   58TIP3    H2  181  -0.045   3.239   3.336
   59TIP3   OH2  182   1.046   5.001   0.718
   59TIP3    H1  183   0.954   5.025   0.710
   59TIP3    H2  184   1.093   5.069   0.669
   60TIP3   OH2  185   1.490   0.117   3.021
   60TIP3    H1  186   1.418   0.174   3.048
   60TIP3    H2  187   1.544   0.170   2.964
   61TIP3   OH2  188   4.975   3.636   2.301
   61TIP3    H1  189   4.957   3.682   2.218
   61TIP3    H2  190   4.919   3.680   2.365
   62TIP3   OH2  191   5.113   3.425   3.561
   62TIP3    H1  192   5.087   3.510   3.525
   62TIP3    H2  193   5.203   3.438   3.590
   63TIP3   OH2  194   3.533   1.556   4.149
   63TIP3    H1  195   3.469   1.517   4.089
   63TIP3    H2  196   3.484   1.618   4.201
   64TIP3   OH2  197   3.341   4.734   1.365
   64TIP3    H1  198   3.336   4.754   1.272
   64TIP3    H2  199   3.264   4.680   1.383
   65TIP3   OH2  200   5.142   4.167   4.313
   65TIP3    H1  201   5.055   4.164   4.272
   65TIP3    H2  202   5.165   4.260   4.315
   66TIP3   OH2  203   3.206   1.597   4.162
   66TIP3    H1  204   3.234   1.518   4.116
   66TIP3    H2  205   3.281   1.656   4.157
   67TIP3   OH2  206   1.771   5.336   0.631
   67TIP3    H1  207   1.761   5.283   0.552
   67TIP3    H2  208   1.818   5.414   0.602
   68TIP3   OH2  209   2.630   0.924   0.795
   68TIP3    H1  210   2.644   0.858   0.863
   68TIP3    H2  211   2.632   0.874   0.713
   69TIP3   OH2  212   2.468   5.066   2.711
   69TIP3    H1  213   2.521   5.136   2.673
   69TIP3    H2  214   2.378   5.098   2.705
   70TIP3   OH2  215   2.540   5.661   3.497
   70TIP3    H1  216   2.617   5.700   3.455
   70TIP3    H2  217   2.553   5.566   3.488
   71TIP3   OH2  218   5.380   4.765   3.118
   71TIP3    H1  219   5.351   4.697   3.056
   71TIP3    H2  220   5.413   4.716   3.193
   72TIP3   OH2  221   2.319   5.857   4.644
   72TIP3    H1  222   2.305   5.763   4.631
   72TIP3    H2  223   2.271   5.878   4.724
   73TIP3   OH2  224   0.890   5.865   1.279
   73TIP3    H1  225   0.822   5.875   1.212
   73TIP3    H2  226   0.965   5.828   1.232
   74TIP3   OH2  227   4.342   1.928   4.913
   74TIP3    H1  228   4.273   1.898   4.973
   74TIP3    H2  229   4.327   1.880   4.832
   75TIP3   OH2  230   1.118   4.067   0.409
   75TIP3    H1  231   1.055   4.105   0.347
   75TIP3    H2  232   1.199   4.061   0.360
   76TIP3   OH2  233   0.417   0.822   1.474
   76TIP3    H1  234   0.490   0.872   1.437
   76TIP3    H2  235   0.458   0.758   1.532
   77TIP3   OH2  236   1.013   0.813   3.731
   77TIP3    H1  237   0.942   0.762   3.692
   77TIP3    H2  238   0.981   0.903   3.731
   78TIP3   OH2  239   5.662   1.889   0.152
   78TIP3    H1  240   5.577   1.927   0.127
   78TIP3    H2  241   5.681   1.928   0.237
   79TIP3   OH2  242   5.230   1.301   2.976
   79TIP3    H1  243   5.282   1.247   2.917
   79TIP3    H2  244   5.235   1.389   2.938
   80TIP3   OH2  245   0.594   4.345   0.174
   80TIP3    H1  246   0.580   4.277   0.240
   80TIP3    H2  247   0.551   4.422   0.210
   81TIP3   OH2  248   5.844   2.606   2.853
   81TIP3    H1  249   5.931   2.620   2.891
   81TIP3    H2  250   5.785   2.601   2.928
   82TIP3   OH2  251   1.325   1.186   1.612
   82TIP3    H1  252   1.344   1.153   1.700
   82TIP3    H2  253   1.323   1.281   1.621
   83TIP3   OH2  254   0.108   1.884   4.155
   83TIP3    H1  255   0.078   1.902   4.066
   83TIP3    H2  256   0.030   1.850   4.199
   84TIP3   OH2  257   3.814   1.005   4.982
   84TIP3    H1  258   3.833   1.099   4.984
   84TIP3    H2  259   3.720   1.000   4.966
   85TIP3   OH2  260   1.048   3.851   3.543
   85TIP3    H1  261   1.082   3.775   3.591
   85TIP3    H2  262   1.125   3.891   3.504
   86TIP3   OH2  263   0.259   2.143   1.611
   86TIP3    H1  264   0.245   2.119   1.519
   86TIP3    H2  265   0.183   2.108   1.656
   87TIP3   OH2  266   6.052   0.050   0.277
   87TIP3    H1  267   6.022  -0.037   0.249
   87TIP3    H2  268   6.081   0.037   0.368
   88TIP3   OH2  269   5.964   1.483   1.300
   88TIP3    H1  270   5.997   1.570   1.321
   88TIP3    H2  271   6.029   1.447   1.239
   89TIP3   OH2  272   6.356   1.850   3.414
   89TIP3    H1  273   6.330   1.821   3.502
   89TIP3    H2  274   6.292   1.918   3.392
   90TIP3   OH2  275   5.855   0.465   2.451
   90TIP3    H1  276   5.933   0.411   2.436
   90TIP3    H2  277   5.795   0.441   2.381
   91TIP3   OH2  278   3.864   4.572   3.307
   91TIP3    H1  279   3.874   4.482   3.339
   91TIP3    H2  280   3.954   4.606   3.305
   92TIP3   OH2  281   1.535   5.173   4.567
   92TIP3    H1  282   1.610   5.149   4.513
   92TIP3    H2  283   1.556   5.139   4.654
   93TIP3   OH2  284   3.448   3.251   0.841
   93TIP3    H1  285   3.515   3.209   0.787
   93TIP3    H2  286   3.480   3.340   0.854
   94TIP3   OH2  287   3.158   5.360   2.206
   94TIP3    H1  288   3.239   5.410   2.203
   94TIP3    H2  289   3.172   5.296   2.276
   95TIP3   OH2  290   0.838   4.007   1.238
   95TIP3    H1  291   0.901   4.010   1.166
   95TIP3    H2  292   0.798   4.093   1.239
   96TIP3   OH2  293   5.587   3.443   0.036
   96TIP3    H1  294   5.624   3.383   0.101
   96TIP3    H2  295   5.660   3.463  -0.023
   97TIP3   OH2  296   3.999   1.956   4.203
   97TIP3    H1  297   3.957   2.003   4.131
   97TIP3    H2  298   4.091   1.979   4.196
   98TIP3   OH2  299   2.932   0.957   4.992
   98TIP3    H1  300   2.846   0.962   5.035
   98TIP3    H2  301   2.967   1.046   4.998
   99TIP3   OH2  302   3.366   1.162   3.722
   99TIP3    H1  303   3.424   1.089   3.744
   99TIP3    H2  304   3.378   1.225   3.793
  100TIP3   OH2  305   5.022   1.381   3.684
  100TIP3    H1  306   5.092   1.419   3.738
  100TIP3    H2  307   4.944   1.386   3.738
  101TIP3   OH2  308   4.148   3.751   4.531
  101TIP3    H1  309   4.219   3.740   4.594
  101TIP3    H2  310   4.114   3.839   4.548
  102TIP3   OH2  311   2.483   5.095   0.555
  102TIP3    H1  312   2.413   5.159   0.541
  102TIP3    H2  313   2.533   5.130   0.629
  103TIP3   OH2  314   4.074   3.077   3.741
  103TIP3    H1  315   3.985   3.065   3.710
  103TIP3    H2  316   4.065   3.126   3.823
  104TIP3   OH2  317   4.434   1.147   2.730
  104TIP3    H1  318   4.357   1.145   2.673
  104TIP3    H2  319   4.467   1.057   2.728
  105TIP3   OH2  320   0.777   3.502   0.177
  105TIP3    H1  321   0.727   3.583   0.170
  105TIP3    H2  322   0.868   3.530   0.184
  106TIP3   OH2  323   0.730   3.955   2.198
  106TIP3    H1  324   0.690   4.027   2.149
  106TIP3    H2  325   0.786   3.998   2.262
  107TIP3   OH2  326   0.923   5.092   4.904
  107TIP3    H1  327   0.896   5.075   4.814
  107TIP3    H2  328   0.913   5.008   4.948
  108TIP3   OH2  329   5.509   1.976   3.654
  108TIP3    H1  330   5.476   1.974   3.564
  108TIP3    H2  331   5.572   1.904   3.658
  109TIP3   OH2  332   1.627   4.835   5.157
  109TIP3    H1  333   1.543   4.819   5.200
  109TIP3    H2  334   1.622   4.925   5.125
  110TIP3   OH2  335   2.117   1.177   0.711
  110TIP3    H1  336   2.208   1.160   0.734
  110TIP3    H2  337   2.080   1.091   0.694
  111TIP3   OH2  338   1.939   3.695   1.345
  111TIP3    H1  339   1.875   3.639   1.390
  111TIP3    H2  340   1.894   3.779   1.334
  112TIP3   OH2  341   1.408   2.126   3.250
  112TIP3    H1  342   1.364   2.133   3.165
  112TIP3    H2  343   1.338   2.106   3.312
  113TIP3   OH2  344   0.428   2.875   0.395
  113TIP3    H1  345   0.388   2.949   0.440
  113TIP3    H2  346   0.520   2.900   0.385
  114TIP3   OH2  347   1.267   4.613   1.750
  114TIP3    H1  348   1.300   4.527   1.778
  114TIP3    H2  349   1.302   4.674   1.815
  115TIP3   OH2  350   0.176   2.312   3.894
  115TIP3    H1  351   0.236   2.366   3.844
  115TIP3    H2  352   0.099   2.367   3.907
  116TIP3   OH2  353   1.410   0.190   1.175
  116TIP3    H1  354   1.476   0.145   1.228
  116TIP3    H2  355   1.434   0.282   1.180
  117TIP3   OH2  356   1.394   4.373   1.829
  117TIP3    H1  357   1.437   4.367   1.744
  117TIP3    H2  358   1.406   4.287   1.869
  118TIP3   OH2  359   2.271   3.412   2.315
  118TIP3    H1  360   2.264   3.482   2.380
  118TIP3    H2  361   2.186   3.368   2.318
  119TIP3   OH2  362   3.852   5.285   2.251
  119TIP3    H1  363   3.816   5.247   2.332
  119TIP3    H2  364   3.811   5.234   2.181
  120TIP3   OH2  365   6.193   2.122   0.357
  120TIP3    H1  366   6.153   2.089   0.438
  120TIP3    H2  367   6.247   2.050   0.325
  121TIP3   OH2  368   5.450   0.083   2.690
  121TIP3    H1  369   5.443   0.015   2.758
  121TIP3    H2  370   5.531   0.129   2.711
  122TIP3   OH2  371   1.238   0.728   2.767
  122TIP3    H1  372   1.221   0.678   2.847
  122TIP3    H2  373   1.332   0.720   2.753
  123TIP3   OH2  374   2.277   5.071   2.191
  123TIP3    H1  375   2.329   5.080   2.271
  123TIP3    H2  376   2.274   5.159   2.154
  124TIP3   OH2  377   1.915   5.276   0.868
  124TIP3    H1  378   1.864   5.288   0.788
  124TIP3    H2  379   1.849   5.262   0.936
  125TIP3   OH2  380   4.409   4.274   1.114
  125TIP3    H1  381   4.445   4.188   1.135
  125TIP3    H2  382   4.480   4.322   1.072
  126TIP3   OH2  383   0.661   1.948   0.471
  126TIP3    H1  384   0.737   1.918   0.520
  126TIP3    H2  385   0.696   2.008   0.405
  127TIP3   OH2  386   2.361   3.013   3.884
  127TIP3    H1  387   2.293   2.972   3.831
  127TIP3    H2  388   2.442   2.969   3.857
  128TIP3   OH2  389   2.491   0.836   4.261
  128TIP3    H1  390   2.400   0.865   4.271
  128TIP3    H2  391   2.504   0.831   4.166
  129TIP3   OH2  392   0.515   2.358   1.503
  129TIP3    H1  393   0.606   2.342   1.476
  129TIP3    H2  394   0.510   2.323   1.592
  130TIP3   OH2  395   0.400   3.981   5.065
  130TIP3    H1  396   0.345   4.030   5.126
  130TIP3    H2  397   0.342   3.960   4.992
  131TIP3   OH2  398   1.930   4.877   4.271
  131TIP3    H1  399   1.987   4.875   4.194
  131TIP3    H2  400   1.930   4.787   4.304
  132TIP3   OH2  401   2.594   4.422   0.748
  132TIP3    H1  402   2.569   4.377   0.829
  132TIP3    H2  403   2.591   4.354   0.681
  133TIP3   OH2  404   2.272   0.763   3.976
  133TIP3    H1  405   2.229   0.846   3.954
  133TIP3    H2  406   2.365   0.783   3.978
  134TIP3   OH2  407   3.153   3.899   1.098
  134TIP3    H1  408   3.224   3.963   1.101
  134TIP3    H2  409   3.117   3.898   1.187
  135TIP3   OH2  410   1.076   3.191   2.954
  135TIP3    H1  411   0.990   3.220   2.924
  135TIP3    H2  412   1.066   3.098   2.971
  136TIP3   OH2  413   5.059   3.275   2.570
  136TIP3    H1  414   4.986   3.324   2.609
  136TIP3    H2  415   5.029   3.184   2.570
  137TIP3   OH2  416   4.240   1.031   0.770
  137TIP3    H1  417   4.203   0.959   0.822
  137TIP3    H2  418   4.171   1.052   0.707
  138TIP3   OH2  419   1.607   1.242   5.022
  138TIP3    H1  420   1.549   1.315   5.003
  138TIP3    H2  421   1.569   1.168   4.974
  139TIP3   OH2  422   0.108   3.858   2.897
  139TIP3    H1  423   0.061   3.942   2.891
  139TIP3    H2  424   0.096   3.818   2.811
  140TIP3   OH2  425   6.378   4.578   2.591
  140TIP3    H1  426   6.284   4.567   2.582
  140TIP3    H2  427   6.393   4.672   2.586
  141TIP3   OH2  428   4.786   3.082   1.972
  141TIP3    H1  429   4.743   3.041   2.047
  141TIP3    H2  430   4.875   3.048   1.974
  142TIP3   OH2  431   0.939   5.860   0.901
  142TIP3    H1  432   0.857   5.892   0.937
  142TIP3    H2  433   0.987   5.825   0.976
  143TIP3   OH2  434   0.219   1.118   1.924
  143TIP3    H1  435   0.167   1.059   1.870
  143TIP3    H2  436   0.241   1.067   2.002
  144TIP3   OH2  437   3.835   5.710   4.849
  144TIP3    H1  438   3.869   5.799   4.855
  144TIP3    H2  439   3.899   5.657   4.897
  145TIP3   OH2  440   0.494   3.686   2.026
  145TIP3    H1  441   0.559   3.718   1.963
  145TIP3    H2  442   0.487   3.592   2.007
  146TIP3   OH2  443   2.419   4.843   5.083
  146TIP3    H1  444   2.419   4.928   5.038
  146TIP3    H2  445   2.370   4.785   5.025
  147TIP3   OH2  446   3.262   2.981   0.155
  147TIP3    H1  447   3.204   2.917   0.115
  147TIP3    H2  448   3.350   2.956   0.127
  148TIP3   OH2  449   4.691   3.910   2.668
  148TIP3    H1  450   4.598   3.899   2.688
  148TIP3    H2  451   4.695   3.990   2.616
  149TIP3   OH2  452   1.780   0.223   3.377
  149TIP3    H1  453   1.768   0.168   3.454
  149TIP3    H2  454   1.693   0.260   3.360
  150TIP3   OH2  455   4.293   1.632   3.273
  150TIP3    H1  456   4.219   1.677   3.315
  150TIP3    H2  457   4.306   1.554   3.326
  151TIP3   OH2  458   4.428   1.029   1.813
  151TIP3    H1  459   4.372   1.051   1.887
  151TIP3    H2  460   4.494   0.970   1.849
  152TIP3   OH2  461   6.290   5.895   1.830
  152TIP3    H1  462   6.371   5.932   1.795
  152TIP3    H2  463   6.316   5.810   1.865
  153TIP3   OH2  464   5.449   5.050   3.817
  153TIP3    H1  465   5.367   5.098   3.807
  153TIP3    H2  466   5.509   5.091   3.755
  154TIP3   OH2  467   0.604   3.378   5.163
  154TIP3    H1  468   0.564   3.429   5.093
  154TIP3    H2  469   0.695   3.365   5.135
  155TIP3   OH2  470   5.859   5.371   2.494
  155TIP3    H1  471   5.832   5.331   2.411
  155TIP3    H2  472   5.934   5.426   2.470
  156TIP3   OH2  473   0.522   1.701   5.102
  156TIP3    H1  474   0.440   1.747   5.120
  156TIP3    H2  475   0.504   1.649   5.024
  157TIP3   OH2  476   5.099   0.377   1.498
  157TIP3    H1  477   5.097   0.472   1.497
  157TIP3    H2  478   5.175   0.354   1.550
  158TIP3   OH2  479   3.288   5.893   4.442
  158TIP3    H1  480   3.271   5.936   4.526
  158TIP3    H2  481   3.208   5.909   4.391
  159TIP3   OH2  482   3.441   5.242   1.443
  159TIP3    H1  483   3.412   5.301   1.374
  159TIP3    H2  484   3.481   5.168   1.396
  160TIP3   OH2  485   1.684   3.279   1.075
  160TIP3    H1  486   1.644   3.364   1.093
  160TIP3    H2  487   1.619   3.215   1.104
  161TIP3   OH2  488   3.341   5.778   1.320
  161TIP3    H1  489   3.424   5.826   1.311
  161TIP3    H2  490   3.345   5.740   1.408
  162TIP3   OH2  491   5.851   5.019   0.377
  162TIP3    H1  492   5.940   4.987   0.387
  162TIP3    H2  493   5.838   5.027   0.282
  163TIP3   OH2  494   3.293   4.865   3.859
  163TIP3    H1  495   3.238   4.868   3.937
  163TIP3    H2  496   3.360   4.800   3.879
  164TIP3   OH2  497   0.732   3.920   0.097
  164TIP3    H1  498   0.684   3.854   0.147
  164TIP3    H2  499   0.821   3.916   0.131
  165TIP3   OH2  500   2.361   2.084   2.806
  165TIP3    H1  501   2.279   2.074   2.855
  165TIP3    H2  502   2.423   2.027   2.852
  166TIP3   OH2  503   1.625   2.747   4.629
  166TIP3    H1  504   1.709   2.790   4.613
  166TIP3    H2  505   1.647   2.670   4.682
  167TIP3   OH2  506   0.245   2.043   1.224
  167TIP3    H1  507   0.237   1.961   1.274
  167TIP3    H2  508   0.334   2.072   1.240
  168TIP3   OH2  509   3.887   0.417   4.869
  168TIP3    H1  510   3.792   0.406   4.867
  168TIP3    H2  511   3.913   0.376   4.952
  169TIP3   OH2  512   4.037   0.089   4.059
  169TIP3    H1  513   4.011   0.025   3.993
  169TIP3    H2  514   4.099   0.043   4.115
  170TIP3   OH2  515   4.899   0.143   2.819
  170TIP3    H1  516   4.959   0.110   2.753
  170TIP3    H2  517   4.860   0.221   2.780
  171TIP3   OH2  518   2.488   3.531   0.618
  171TIP3    H1  519   2.533   3.489   0.545
  171TIP3    H2  520   2.403   3.488   0.622
  172TIP3   OH2  521   0.582   4.992   5.042
  172TIP3    H1  522   0.601   5.084   5.061
  172TIP3    H2  523   0.667   4.948   5.049
  173TIP3   OH2  524   3.025   3.858   3.477
  173TIP3    H1  525   2.944   3.841   3.526
  173TIP3    H2  526   3.080   3.781   3.494
  174TIP3   OH2  527   5.099   2.108   4.757
  174TIP3    H1  528   5.061   2.165   4.691
  174TIP3    H2  529   5.045   2.029   4.756
  175TIP3   OH2  530   2.677   2.686   1.334
  175TIP3    H1  531   2.662   2.692   1.428
  175TIP3    H2  532   2.686   2.593   1.316
  176TIP3   OH2  533   1.488   1.274   2.826
  176TIP3    H1  534   1.423   1.212   2.859
  176TIP3    H2  535   1.572   1.234   2.846
  177TIP3   OH2  536   5.579   2.196   4.601
  177TIP3    H1  537   5.486   2.182   4.585
  177TIP3    H2  538   5.605   2.260   4.534
  178TIP3   OH2  539   5.305   1.949   1.185
  178TIP3    H1  540   5.349   2.012   1.127
  178TIP3    H2  541   5.268   2.003   1.255
  179TIP3   OH2  542   6.103   0.718   4.689
  179TIP3    H1  543   6.137   0.725   4.778
  179TIP3    H2  544   6.154   0.781   4.638
  180TIP3   OH2  545   1.350   4.929   0.386
  180TIP3    H1  546   1.386   4.846   0.354
  180TIP3    H2  547   1.427   4.983   0.405
  181TIP3   OH2  548   1.550   0.694   2.225
  181TIP3    H1  549   1.641   0.711   2.247
  181TIP3    H2  550   1.554   0.647   2.142
  182TIP3   OH2  551   2.952   0.789   1.010
  182TIP3    H1  552   2.996   0.769   0.928
  182TIP3    H2  553   2.925   0.703   1.044
  183TIP3   OH2  554   5.085   0.442   0.684
  183TIP3    H1  555   5.131   0.386   0.746
  183TIP3    H2  556   5.084   0.528   0.726
  184TIP3   OH2  557   2.083   1.458   0.951
  184TIP3    H1  558   1.988   1.456   0.958
  184TIP3    H2  559   2.100   1.479   0.859
  185TIP3   OH2  560   2.808   5.170   2.962
  185TIP3    H1  561   2.822   5.128   2.878
  185TIP3    H2  562   2.722   5.210   2.956
  186TIP3   OH2  563   3.086   5.153   2.816
  186TIP3    H1  564   3.096   5.244   2.786
  186TIP3    H2  565   3.125   5.152   2.903
  187TIP3   OH2  566   2.470   2.455   3.608
  187TIP3    H1  567   2.415   2.390   3.650
  187TIP3    H2  568   2.525   2.405   3.548
  188TIP3   OH2  569   5.317   5.575   2.639
  188TIP3    H1  570   5.264   5.552   2.562
  188TIP3    H2  571   5.311   5.498   2.695
  189TIP3   OH2  572   5.516   1.595   1.491
  189TIP3    H1  573   5.525   1.688   1.467
  189TIP3    H2  574   5.422   1.578   1.484
  190TIP3   OH2  575   1.270   1.727   4.461
  190TIP3    H1  576   1.192   1.781   4.466
  190TIP3    H2  577   1.342   1.789   4.454
  191TIP3   OH2  578   2.384   5.186   2.427
  191TIP3    H1  579   2.300   5.230   2.444
  191TIP3    H2  580   2.446   5.257   2.414
  192TIP3   OH2  581   5.460   4.157   4.338
  192TIP3    H1  582   5.424   4.190   4.421
  192TIP3    H2  583   5.512   4.230   4.304
  193TIP3   OH2  584   5.833   2.391   4.838
  193TIP3    H1  585   5.872   2.385   4.925
  193TIP3    H2  586   5.741   2.413   4.855
  194TIP3   OH2  587   0.099   1.086   0.966
  194TIP3    H1  588   0.157   1.121   1.033
  194TIP3    H2  589   0.093   1.156   0.901
  195TIP3   OH2  590   3.264   1.529   0.347
  195TIP3    H1  591   3.246   1.621   0.326
  195TIP3    H2  592   3.301   1.493   0.267
  196TIP3   OH2  593   5.708   0.416   0.717
  196TIP3    H1  594   5.659   0.493   0.746
  196TIP3    H2  595   5.718   0.364   0.797
  197TIP3   OH2  596   3.583   3.156   4.849
  197TIP3    H1  597   3.569   3.075   4.800
  197TIP3    H2  598   3.557   3.133   4.939
  198TIP3   OH2  599   5.407   5.350   4.340
  198TIP3    H1  600   5.363   5.416   4.394
  198TIP3    H2  601   5.457   5.401   4.276
  199TIP3   OH2  602   5.917   5.773   3.337
  199TIP3    H1  603   5.982   5.842   3.335
  199TIP3    H2  604   5.966   5.693   3.316
  200TIP3   OH2  605   5.038   1.023   0.939
  200TIP3    H1  606   4.997   1.015   0.853
  200TIP3    H2  607   5.025   0.937   0.980
  201TIP3   OH2  608   0.189   3.577   2.166
  201TIP3    H1  609   0.113   3.532   2.130
  201TIP3    H2  610   0.264   3.541   2.118
  202TIP3   OH2  611   1.162   4.060   2.100
  202TIP3    H1  612   1.257   4.071   2.106
  202TIP3    H2  613   1.126   4.126   2.158
  203TIP3   OH2  614   3.657   3.148   0.722
  203TIP3    H1  615   3.686   3.239   0.709
  203TIP3    H2  616   3.734   3.104   0.759
  204TIP3   OH2  617   4.343   3.802   0.735
  204TIP3    H1  618   4.303   3.726   0.777
  204TIP3    H2  619   4.358   3.864   0.806
  205TIP3   OH2  620   1.981   1.914   4.337
  205TIP3    H1  621   1.898   1.953   4.311
  205TIP3    H2  622   1.977   1.825   4.303
  206TIP3   OH2  623   2.657   5.680   2.226
  206TIP3    H1  624   2.728   5.676   2.291
  206TIP3    H2  625   2.674   5.605   2.169
  207TIP3   OH2  626   2.856   0.084   0.516
  207TIP3    H1  627   2.945   0.083   0.551
  207TIP3    H2  628   2.807   0.028   0.576
  208TIP3   OH2  629   0.174   5.051   5.208
  208TIP3    H1  630   0.153   5.022   5.119
  208TIP3    H2  631   0.110   5.006   5.263
  209TIP3   OH2  632   6.357   4.642   1.307
  209TIP3    H1  633   6.280   4.691   1.277
  209TIP3    H2  634   6.431   4.692   1.274
  210TIP3   OH2  635   1.859   2.230   4.912
  210TIP3    H1  636   1.955   2.225   4.921
  210TIP3    H2  637   1.826   2.219   5.001
  211TIP3   OH2  638   3.045   5.285   0.599
  211TIP3    H1  639   3.018   5.204   0.555
  211TIP3    H2  640   3.087   5.255   0.680
  212TIP3   OH2  641   6.130   0.375   3.120
  212TIP3    H1  642   6.037   0.390   3.104
  212TIP3    H2  643   6.161   0.458   3.157
  213TIP3   OH2  644   0.667   1.556   4.107
  213TIP3    H1  645   0.721   1.618   4.056
  213TIP3    H2  646   0.587   1.546   4.055
  214TIP3   OH2  647   5.442   0.561   2.104
  214TIP3    H1  648   5.392   0.613   2.041
  214TIP3    H2  649   5.496   0.503   2.051
  215TIP3   OH2  650   3.299   2.874   1.582
  215TIP3    H1  651   3.246   2.812   1.631
  215TIP3    H2  652   3.273   2.960   1.617
  216TIP3   OH2  653   4.425   4.521   4.434
  216TIP3    H1  654   4.399   4.518   4.526
  216TIP3    H2  655   4.465   4.607   4.423
  217TIP3   OH2  656   5.883   2.876   3.770
  217TIP3    H1  657   5.859   2.969   3.776
  217TIP3    H2  658   5.839   2.844   3.691
  218TIP3   OH2  659   0.362   5.820   0.583
  218TIP3    H1  660   0.383   5.881   0.654
  218TIP3    H2  661   0.384   5.868   0.503
  219TIP3   OH2  662   3.390   0.344   0.994
  219TIP3    H1  663   3.468   0.375   0.948
  219TIP3    H2  664   3.418   0.333   1.085
  220TIP3   OH2  665   5.313   2.909   3.400
  220TIP3    H1  666   5.238   2.907   3.340
  220TIP3    H2  667   5.296   2.984   3.457
  221TIP3   OH2  668   5.949   3.734   4.002
  221TIP3    H1  669   6.001   3.739   3.922
  221TIP3    H2  670   5.900   3.816   4.004
  222TIP3   OH2  671   5.987   2.417   3.895
  222TIP3    H1  672   5.972   2.497   3.944
  222TIP3    H2  673   5.927   2.422   3.820
  223TIP3   OH2  674   6.100   0.464   1.448
  223TIP3    H1  675   6.150   0.540   1.418
  223TIP3    H2  676   6.147   0.433   1.526
  224TIP3   OH2  677   4.851   2.159   1.728
  224TIP3    H1  678   4.838   2.221   1.799
  224TIP3    H2  679   4.892   2.083   1.769
  225TIP3   OH2  680   5.591   4.189   3.629
  225TIP3    H1  681   5.660   4.223   3.573
  225TIP3    H2  682   5.624   4.105   3.660
  226TIP3   OH2  683   2.300   2.128   3.145
  226TIP3    H1  684   2.350   2.076   3.082
  226TIP3    H2  685   2.223   2.158   3.096
  227TIP3   OH2  686   0.478   0.592   1.273
  227TIP3    H1  687   0.561   0.549   1.294
  227TIP3    H2  688   0.494   0.685   1.289
  228TIP3   OH2  689   6.269   1.416   4.816
  228TIP3    H1  690   6.313   1.496   4.786
  228TIP3    H2  691   6.305   1.347   4.761
  229TIP3   OH2  692   1.861   1.088   1.714
  229TIP3    H1  693   1.817   1.079   1.799
  229TIP3    H2  694   1.815   1.028   1.656
  230TIP3   OH2  695   3.909   4.303   3.653
  230TIP3    H1  696   3.946   4.379   3.696
  230TIP3    H2  697   3.849   4.266   3.718
  231TIP3   OH2  698   4.714   4.736   2.400
  231TIP3    H1  699   4.701   4.708   2.309
  231TIP3    H2  700   4.632   4.714   2.444
  232TIP3   OH2  701   0.723   3.741   1.881
  232TIP3    H1  702   0.733   3.832   1.910
  232TIP3    H2  703   0.718   3.748   1.785
  233TIP3   OH2  704   4.025   2.044   2.728
  233TIP3    H1  705   4.000   2.077   2.814
  233TIP3    H2  706   3.967   1.969   2.713
  234TIP3   OH2  707   2.738   3.843   4.403
  234TIP3    H1  708   2.724   3.860   4.496
  234TIP3    H2  709   2.792   3.764   4.401
  235TIP3   OH2  710   3.855   4.979   1.126
  235TIP3    H1  711   3.834   4.943   1.212
  235TIP3    H2  712   3.842   5.073   1.135
  236TIP3   OH2  713   0.672   4.338   4.203
  236TIP3    H1  714   0.589   4.336   4.154
  236TIP3    H2  715   0.734   4.379   4.143
  237TIP3   OH2  716   1.996   5.505   3.620
  237TIP3    H1  717   2.088   5.533   3.618
  237TIP3    H2  718   1.950   5.571   3.569
  238TIP3   OH2  719   0.315   3.499   2.410
  238TIP3    H1  720   0.351   3.414   2.384
  238TIP3    H2  721   0.290   3.540   2.327
  239TIP3   OH2  722   4.927   5.045   3.160
  239TIP3    H1  723   4.877   5.125   3.147
  239TIP3    H2  724   5.012   5.063   3.120
  240TIP3   OH2  725   3.843   0.382   2.474
  240TIP3    H1  726   3.844   0.453   2.410
  240TIP3    H2  727   3.896   0.414   2.547
  241TIP3   OH2  728   5.056   1.401   0.649
  241TIP3    H1  729   5.076   1.468   0.584
  241TIP3    H2  730   5.138   1.352   0.658
  242TIP3   OH2  731   4.768   4.648   1.507
  242TIP3    H1  732   4.707   4.612   1.443
  242TIP3    H2  733   4.853   4.643   1.465
  243TIP3   OH2  734   0.539   5.698   3.982
  243TIP3    H1  735   0.444   5.690   3.979
  243TIP3    H2  736   0.555   5.793   3.981
  244TIP3   OH2  737   0.487   4.907   4.770
  244TIP3    H1  738   0.396   4.934   4.782
  244TIP3    H2  739   0.528   4.923   4.855
  245TIP3   OH2  740   0.487   2.163   0.148
  245TIP3    H1  741   0.523   2.251   0.161
  245TIP3    H2  742   0.466   2.159   0.054
  246TIP3   OH2  743   1.739   5.346   1.826
  246TIP3    H1  744   1.644   5.332   1.828
  246TIP3    H2  745   1.760   5.357   1.734
  247TIP3   OH2  746   2.420   2.168   4.570
  247TIP3    H1  747   2.425   2.104   4.641
  247TIP3    H2  748   2.491   2.229   4.587
  248TIP3   OH2  749   5.004   3.505   4.739
  248TIP3    H1  750   5.098   3.494   4.752
  248TIP3    H2  751   4.998   3.579   4.679
  249TIP3   OH2  752   6.159   1.428   2.408
  249TIP3    H1  753   6.160   1.335   2.432
  249TIP3    H2  754   6.243   1.462   2.439
  250TIP3   OH2  755   0.069   4.938   0.814
  250TIP3    H1  756   0.063   4.913   0.721
  250TIP3    H2  757   0.163   4.939   0.833
  251TIP3   OH2  758   3.123   1.944   0.433
  251TIP3    H1  759   3.079   1.866   0.467
  251TIP3    H2  760   3.056   1.991   0.385
  252TIP3   OH2  761   4.120   4.712   2.447
  252TIP3    H1  762   4.210   4.700   2.416
  252TIP3    H2  763   4.097   4.801   2.417
  253TIP3   OH2  764   3.538   2.972   0.552
  253TIP3    H1  765   3.574   3.020   0.627
  253TIP3    H2  766   3.595   2.995   0.479
  254TIP3   OH2  767   1.681   5.546   1.366
  254TIP3    H1  768   1.753   5.577   1.311
  254TIP3    H2  769   1.602   5.573   1.319
  255TIP3   OH2  770   2.166   1.805   4.028
  255TIP3    H1  771   2.109   1.765   4.093
  255TIP3    H2  772   2.143   1.762   3.946
  256TIP3   OH2  773   6.221   5.520   2.943
  256TIP3    H1  774   6.221   5.603   2.991
  256TIP3    H2  775   6.310   5.487   2.953
  257TIP3   OH2  776   1.088   4.550   4.123
  257TIP3    H1  777   1.110   4.457   4.135
  257TIP3    H2  778   1.160   4.597   4.166
  258TIP3   OH2  779   4.872   4.249   0.039
  258TIP3    H1  780   4.853   4.177   0.099
  258TIP3    H2  781   4.967   4.247   0.027
  259TIP3   OH2  782   1.337   1.116   4.625
  259TIP3    H1  783   1.399   1.043   4.634
  259TIP3    H2  784   1.286   1.113   4.706
  260TIP3   OH2  785   5.237   0.041   2.017
  260TIP3    H1  786   5.179  -0.029   2.049
  260TIP3    H2  787   5.180   0.099   1.968
  261TIP3   OH2  788   2.831   3.260   3.512
  261TIP3    H1  789   2.769   3.303   3.570
  261TIP3    H2  790   2.777   3.210   3.451
  262TIP3   OH2  791   0.818   4.495   2.304
  262TIP3    H1  792   0.741   4.542   2.273
  262TIP3    H2  793   0.885   4.513   2.239
  263TIP3   OH2  794   2.677   2.130   3.273
  263TIP3    H1  795   2.596   2.180   3.285
  263TIP3    H2  796   2.734   2.161   3.343
  264TIP3   OH2  797   5.040   5.775   2.440
  264TIP3    H1  798   5.105   5.719   2.399
  264TIP3    H2  799   5.059   5.863   2.407
  265TIP3   OH2  800   5.553   2.601   5.041
  265TIP3    H1  801   5.464   2.637   5.047
  265TIP3    H2  802   5.543   2.509   5.068
  266TIP3   OH2  803   0.896   0.618   3.061
  266TIP3    H1  804   0.931   0.613   3.150
  266TIP3    H2  805   0.805   0.589   3.069
  267TIP3   OH2  806   2.673   3.468   5.091
  267TIP3    H1  807   2.622   3.437   5.165
  267TIP3    H2  808   2.616   3.455   5.015
  268TIP3   OH2  809   2.949   3.652   3.659
  268TIP3    H1  810   2.903   3.683   3.738
  268TIP3    H2  811   3.021   3.599   3.693
  269TIP3   OH2  812   1.917   4.190   3.368
  269TIP3    H1  813   1.836   4.242   3.370
  269TIP3    H2  814   1.897   4.113   3.422
  270TIP3   OH2  815   6.177   0.481   2.788
  270TIP3    H1  816   6.123   0.531   2.849
  270TIP3    H2  817   6.145   0.391   2.795
  271TIP3   OH2  818   3.225   5.693   2.319
  271TIP3    H1  819   3.256   5.761   2.260
  271TIP3    H2  820   3.282   5.618   2.303
  272TIP3   OH2  821   4.588   4.467   2.231
  272TIP3    H1  822   4.658   4.511   2.183
  272TIP3    H2  823   4.511   4.475   2.175
  273TIP3   OH2  824   6.013   3.994   1.068
  273TIP3    H1  825   5.969   4.026   0.989
  273TIP3    H2  826   5.970   3.910   1.087
  274TIP3   OH2  827   4.226   4.680   1.632
  274TIP3    H1  828   4.243   4.632   1.713
  274TIP3    H2  829   4.270   4.764   1.643
  275TIP3   OH2  830   5.643   5.243   2.673
  275TIP3    H1  831   5.637   5.276   2.762
  275TIP3    H2  832   5.712   5.296   2.632
  276TIP3   OH2  833   3.466   0.806   3.858
  276TIP3    H1  834   3.390   0.770   3.902
  276TIP3    H2  835   3.535   0.740   3.870
  277TIP3   OH2  836   4.381   4.417   0.364
  277TIP3    H1  837   4.463   4.400   0.318
  277TIP3    H2  838   4.314   4.374   0.312
  278TIP3   OH2  839   6.044   4.080   1.979
  278TIP3    H1  840   6.137   4.071   2.001
  278TIP3    H2  841   5.997   4.057   2.059
  279TIP3   OH2  842   6.150   5.348   1.345
  279TIP3    H1  843   6.183   5.418   1.402
  279TIP3    H2  844   6.206   5.351   1.268
  280TIP3   OH2  845   2.802   5.174   1.016
  280TIP3    H1  846   2.897   5.166   1.029
  280TIP3    H2  847   2.772   5.084   1.003
  281TIP3   OH2  848   2.282   5.057   4.440
  281TIP3    H1  849   2.282   5.001   4.362
  281TIP3    H2  850   2.262   4.998   4.512
  282TIP3   OH2  851   2.434   4.045   0.693
  282TIP3    H1  852   2.384   4.115   0.736
  282TIP3    H2  853   2.486   4.007   0.764
  283TIP3   OH2  854   2.404   4.444   2.353
  283TIP3    H1  855   2.446   4.450   2.267
  283TIP3    H2  856   2.406   4.350   2.373
  284TIP3   OH2  857   0.814   1.069   4.575
  284TIP3    H1  858   0.789   0.978   4.563
  284TIP3    H2  859   0.761   1.117   4.512
  285TIP3   OH2  860   4.434   0.528   5.113
  285TIP3    H1  861   4.529   0.520   5.104
  285TIP3    H2  862   4.414   0.617   5.085
  286TIP3   OH2  863   4.624   0.035   2.877
  286TIP3    H1  864   4.585   0.021   2.791
  286TIP3    H2  865   4.709   0.074   2.858
  287TIP3   OH2  866   6.302   4.732   1.681
  287TIP3    H1  867   6.386   4.777   1.673
  287TIP3    H2  868   6.317   4.668   1.751
  288TIP3   OH2  869   3.847   4.245   2.651
  288TIP3    H1  870   3.776   4.273   2.593
  288TIP3    H2  871   3.923   4.236   2.593
  289TIP3   OH2  872   0.395   2.692   2.074
  289TIP3    H1  873   0.326   2.742   2.116
  289TIP3    H2  874   0.475   2.717   2.120
  290TIP3   OH2  875   4.000   1.737   3.104
  290TIP3    H1  876   4.009   1.755   3.198
  290TIP3    H2  877   3.916   1.692   3.096
  291TIP3   OH2  878   0.387   3.432   2.016
  291TIP3    H1  879   0.460   3.398   2.067
  291TIP3    H2  880   0.409   3.414   1.925
  292TIP3   OH2  881   1.294   0.632   3.062
  292TIP3    H1  882   1.388   0.644   3.063
  292TIP3    H2  883   1.277   0.570   3.133
  293TIP3   OH2  884   4.271   1.907   1.124
  293TIP3    H1  885   4.288   1.973   1.192
  293TIP3    H2  886   4.240   1.957   1.049
  294TIP3   OH2  887   6.098   4.867   1.314
  294TIP3    H1  888   6.139   4.840   1.232
  294TIP3    H2  889   6.082   4.961   1.304
  295TIP3   OH2  890   5.503   0.889   2.602
  295TIP3    H1  891   5.557   0.819   2.566
  295TIP3    H2  892   5.422   0.885   2.551
  296TIP3   OH2  893   2.846   2.201   4.193
  296TIP3    H1  894   2.785   2.214   4.120
  296TIP3    H2  895   2.790   2.180   4.268
  297TIP3   OH2  896   4.270   5.244   0.490
  297TIP3    H1  897   4.308   5.158   0.508
  297TIP3    H2  898   4.345   5.299   0.469
  298TIP3   OH2  899   5.313   0.344   2.971
  298TIP3    H1  900   5.269   0.331   2.887
  298TIP3    H2  901   5.388   0.399   2.950
  299TIP3   OH2  902   0.628   2.467   2.360
  299TIP3    H1  903   0.534   2.485   2.352
  299TIP3    H2  904   0.641   2.387   2.311
  300TIP3   OH2  905   4.523   2.451   2.113
  300TIP3    H1  906   4.511   2.537   2.073
  300TIP3    H2  907   4.435   2.412   2.112
  301TIP3   OH2  908   1.483   4.908   2.713
  301TIP3    H1  909   1.510   4.843   2.649
  301TIP3    H2  910   1.564   4.955   2.735
  302TIP3   OH2  911   1.787   4.894   4.711
  302TIP3    H1  912   1.852   4.960   4.687
  302TIP3    H2  913   1.711   4.945   4.740
  303TIP3   OH2  914   5.488   1.188   3.188
  303TIP3    H1  915   5.482   1.249   3.115
  303TIP3    H2  916   5.501   1.244   3.265
  304TIP3   OH2  917   2.241   3.823   2.088
  304TIP3    H1  918   2.224   3.822   2.182
  304TIP3    H2  919   2.304   3.752   2.074
  305TIP3   OH2  920   0.979   1.145   0.982
  305TIP3    H1  921   0.966   1.051   0.973
  305TIP3    H2  922   1.005   1.175   0.895
  306TIP3   OH2  923   5.789   4.378   3.058
  306TIP3    H1  924   5.872   4.415   3.089
  306TIP3    H2  925   5.811   4.331   2.978
  307TIP3   OH2  926   3.709   5.653   1.358
  307TIP3    H1  927   3.688   5.680   1.447
  307TIP3    H2  928   3.760   5.573   1.369
  308TIP3   OH2  929   3.152   0.523   1.670
  308TIP3    H1  930   3.170   0.616   1.659
  308TIP3    H2  931   3.160   0.486   1.583
  309TIP3   OH2  932   4.990   0.058   2.384
  309TIP3    H1  933   5.064   0.078   2.442
  309TIP3    H2  934   4.917   0.043   2.443
  310TIP3   OH2  935   6.030   3.278   3.757
  310TIP3    H1  936   6.017   3.327   3.676
  310TIP3    H2  937   6.006   3.339   3.826
  311TIP3   OH2  938   0.912   5.317   4.491
  311TIP3    H1  939   0.850   5.287   4.558
  311TIP3    H2  940   0.902   5.255   4.419
  312TIP3   OH2  941   2.426   0.441   0.655
  312TIP3    H1  942   2.393   0.481   0.735
  312TIP3    H2  943   2.362   0.375   0.632
  313TIP3   OH2  944   3.676   4.164   1.608
  313TIP3    H1  945   3.606   4.099   1.599
  313TIP3    H2  946   3.661   4.225   1.535
  314TIP3   OH2  947   4.150   3.754   1.042
  314TIP3    H1  948   4.150   3.849   1.033
  314TIP3    H2  949   4.204   3.737   1.119
  315TIP3   OH2  950   4.035   3.207   1.417
  315TIP3    H1  951   4.083   3.254   1.485
  315TIP3    H2  952   4.097   3.197   1.345
  316TIP3   OH2  953   4.961   2.475   3.533
  316TIP3    H1  954   4.958   2.483   3.628
  316TIP3    H2  955   5.055   2.478   3.512
  317TIP3   OH2  956   2.366   2.106   5.100
  317TIP3    H1  957   2.365   2.165   5.176
  317TIP3    H2  958   2.400   2.024   5.135
  318TIP3   OH2  959   3.253   0.479   2.117
  318TIP3    H1  960   3.205   0.397   2.125
  318TIP3    H2  961   3.194   0.537   2.068
  319TIP3   OH2  962   3.077   1.974   1.718
  319TIP3    H1  963   3.003   1.914   1.706
  319TIP3    H2  964   3.155   1.920   1.699
  320TIP3   OH2  965   1.491   3.132   2.008
  320TIP3    H1  966   1.481   3.037   2.020
  320TIP3    H2  967   1.524   3.141   1.918
  321TIP3   OH2  968   4.678   2.631   2.321
  321TIP3    H1  969   4.632   2.570   2.263
  321TIP3    H2  970   4.743   2.673   2.265
  322TIP3   OH2  971   2.899   1.823   4.739
  322TIP3    H1  972   2.916   1.823   4.833
  322TIP3    H2  973   2.878   1.915   4.719
  323TIP3   OH2  974   5.941   3.053   2.900
  323TIP3    H1  975   5.899   2.972   2.872
  323TIP3    H2  976   5.882   3.089   2.967
  324TIP3   OH2  977   5.728   4.614   2.906
  324TIP3    H1  978   5.721   4.564   2.988
  324TIP3    H2  979   5.785   4.561   2.851
  325TIP3   OH2  980   4.244   5.432   3.633
  325TIP3    H1  981   4.237   5.518   3.592
  325TIP3    H2  982   4.203   5.443   3.719
  326TIP3   OH2  983   1.288   5.009   3.149
  326TIP3    H1  984   1.260   5.043   3.234
  326TIP3    H2  985   1.371   5.055   3.132
  327TIP3   OH2  986   5.366   4.563   0.139
  327TIP3    H1  987   5.313   4.510   0.080
  327TIP3    H2  988   5.383   4.506   0.214
  328TIP3   OH2  989   6.146   2.827   3.164
  328TIP3    H1  990   6.071   2.819   3.223
  328TIP3    H2  991   6.216   2.862   3.219
  329TIP3   OH2  992   1.572   0.837   5.051
  329TIP3    H1  993   1.654   0.833   5.002
  329TIP3    H2  994   1.514   0.891   4.997
  330TIP3   OH2  995   5.407   4.168   1.768
  330TIP3    H1  996   5.416   4.081   1.728
  330TIP3    H2  997   5.448   4.160   1.853
  331TIP3   OH2  998   2.705   1.952   1.181
  331TIP3    H1  999   2.708   2.025   1.120
  331TIP3    H2 1000   2.639   1.893   1.145
  332TIP3   OH2 1001   3.093   0.114   3.369
  332TIP3    H1 1002   3.131   0.137   3.284
  332TIP3    H2 1003   3.124   0.181   3.429
  333TIP3   OH2 1004   0.239   4.717   0.725
  333TIP3    H1 1005   0.308   4.652   0.742
  333TIP3    H2 1006   0.286   4.795   0.696
  334TIP3   OH2 1007   3.995   3.346   0.462
  334TIP3    H1 1008   3.974   3.297   0.542
  334TIP3    H2 1009   3.945   3.427   0.469
  335TIP3   OH2 1010   3.055   2.625   1.439
  335TIP3    H1 1011   3.063   2.530   1.448
  335TIP3    H2 1012   3.055   2.658   1.529
  336TIP3   OH2 1013   4.806   0.380   1.273
  336TIP3    H1 1014   4.774   0.439   1.205
  336TIP3    H2 1015   4.801   0.293   1.234
  337TIP3   OH2 1016   4.193   3.554   3.603
  337TIP3    H1 1017   4.133   3.490   3.566
  337TIP3    H2 1018   4.280   3.516   3.591
  338TIP3   OH2 1019   5.621   2.179   1.957
  338TIP3    H1 1020   5.632   2.107   2.019
  338TIP3    H2 1021   5.614   2.136   1.871
  339TIP3   OH2 1022   2.809   0.160  -0.021
  339TIP3    H1 1023   2.827   0.102   0.052
  339TIP3    H2 1024   2.734   0.213   0.008
  340TIP3   OH2 1025   3.266   1.648   3.182
  340TIP3    H1 1026   3.174   1.636   3.159
  340TIP3    H2 1027   3.264   1.687   3.269
  341TIP3   OH2 1028   5.371   2.612   2.150
  341TIP3    H1 1029   5.366   2.517   2.164
  341TIP3    H2 1030   5.417   2.645   2.227
  342TIP3   OH2 1031   0.611   2.540   2.617
  342TIP3    H1 1032   0.645   2.516   2.532
  342TIP3    H2 1033   0.688   2.549   2.673
  343TIP3   OH2 1034   1.176   1.112   4.303
  343TIP3    H1 1035   1.163   1.018   4.302
  343TIP3    H2 1036   1.171   1.136   4.396
  344TIP3   OH2 1037   5.176   2.396  -0.019
  344TIP3    H1 1038   5.197   2.449   0.058
  344TIP3    H2 1039   5.092   2.356   0.001
  345TIP3   OH2 1040   6.058   1.783   1.054
  345TIP3    H1 1041   6.099   1.803   0.970
  345TIP3    H2 1042   5.975   1.831   1.052
  346TIP3   OH2 1043   3.261   3.409   4.837
  346TIP3    H1 1044   3.229   3.349   4.905
  346TIP3    H2 1045   3.235   3.369   4.755
  347TIP3   OH2 1046   1.079   5.286   3.412
  347TIP3    H1 1047   1.017   5.233   3.363
  347TIP3    H2 1048   1.140   5.223   3.450
  348TIP3   OH2 1049   1.863   1.940   1.638
  348TIP3    H1 1050   1.800   1.980   1.579
  348TIP3    H2 1051   1.940   1.924   1.583
  349TIP3   OH2 1052   0.202   0.341   2.843
  349TIP3    H1 1053   0.197   0.404   2.771
  349TIP3    H2 1054   0.111   0.319   2.863
  350TIP3   OH2 1055   4.711   1.818   1.213
  350TIP3    H1 1056   4.682   1.779   1.296
  350TIP3    H2 1057   4.695   1.749   1.148
  351TIP3   OH2 1058   1.651   5.763   2.706
  351TIP3    H1 1059   1.709   5.819   2.654
  351TIP3    H2 1060   1.579   5.820   2.731
  352TIP3   OH2 1061   0.850   1.917   3.535
  352TIP3    H1 1062   0.844   1.829   3.572
  352TIP3    H2 1063   0.780   1.920   3.470
  353TIP3   OH2 1064   4.647   2.181   0.105
  353TIP3    H1 1065   4.634   2.269   0.140
  353TIP3    H2 1066   4.561   2.156   0.070
  354TIP3   OH2 1067   2.454   4.245   0.482
  354TIP3    H1 1068   2.450   4.157   0.521
  354TIP3    H2 1069   2.451   4.229   0.387
  355TIP3   OH2 1070   2.087   4.110   2.331
  355TIP3    H1 1071   2.031   4.042   2.293
  355TIP3    H2 1072   2.102   4.082   2.421
  356TIP3   OH2 1073   5.316   0.819   0.558
  356TIP3    H1 1074   5.284   0.906   0.535
  356TIP3    H2 1075   5.282   0.803   0.646
  357TIP3   OH2 1076   4.688   0.191   4.204
  357TIP3    H1 1077   4.623   0.259   4.224
  357TIP3    H2 1078   4.771   0.227   4.234
  358TIP3   OH2 1079   2.404   5.422   5.081
  358TIP3    H1 1080   2.487   5.400   5.124
  358TIP3    H2 1081   2.342   5.433   5.154
  359TIP3   OH2 1082   4.229   2.986   0.115
  359TIP3    H1 1083   4.136   2.994   0.094
  359TIP3    H2 1084   4.271   3.057   0.065
  360TIP3   OH2 1085   3.748   5.375   0.478
  360TIP3    H1 1086   3.801   5.453   0.498
  360TIP3    H2 1087   3.763   5.317   0.552
  361TIP3   OH2 1088   2.069   2.942   2.985
  361TIP3    H1 1089   2.062   2.870   2.923
  361TIP3    H2 1090   2.155   2.980   2.968
  362TIP3   OH2 1091   2.952   4.904   1.792
  362TIP3    H1 1092   2.987   4.865   1.872
  362TIP3    H2 1093   2.858   4.909   1.807
  363TIP3   OH2 1094   3.885   3.690   3.525
  363TIP3    H1 1095   3.829   3.731   3.591
  363TIP3    H2 1096   3.961   3.748   3.518
  364TIP3   OH2 1097   1.796   3.224   2.620
  364TIP3    H1 1098   1.754   3.154   2.669
  364TIP3    H2 1099   1.784   3.200   2.528
  365TIP3   OH2 1100   2.745   3.248   0.598
  365TIP3    H1 1101   2.680   3.222   0.663
  365TIP3    H2 1102   2.782   3.166   0.566
  366TIP3   OH2 1103   3.438   2.700   1.427
  366TIP3    H1 1104   3.387   2.780   1.434
  366TIP3    H2 1105   3.517   2.717   1.478
  367TIP3   OH2 1106   3.659   2.776   5.145
  367TIP3    H1 1107   3.747   2.769   5.108
  367TIP3    H2 1108   3.631   2.865   5.124
  368TIP3   OH2 1109   3.309   3.345   1.762
  368TIP3    H1 1110   3.215   3.355   1.748
  368TIP3    H2 1111   3.318   3.260   1.805
  369TIP3   OH2 1112   1.507   1.853   4.410
  369TIP3    H1 1113   1.557   1.774   4.431
  369TIP3    H2 1114   1.572   1.924   4.414
  370TIP3   OH2 1115   3.329   1.434   2.301
  370TIP3    H1 1116   3.383   1.480   2.366
  370TIP3    H2 1117   3.321   1.345   2.335
  371TIP3   OH2 1118   5.603   0.541   5.040
  371TIP3    H1 1119   5.617   0.524   4.947
  371TIP3    H2 1120   5.648   0.470   5.085
  372TIP3   OH2 1121   4.532   3.009   0.203
  372TIP3    H1 1122   4.444   2.985   0.173
  372TIP3    H2 1123   4.529   3.104   0.210
  373TIP3   OH2 1124   0.947   5.471   2.330
  373TIP3    H1 1125   0.885   5.492   2.400
  373TIP3    H2 1126   0.905   5.506   2.251
  374TIP3   OH2 1127   1.601   5.448   4.588
  374TIP3    H1 1128   1.528   5.486   4.638
  374TIP3    H2 1129   1.566   5.366   4.554
  375TIP3   OH2 1130   5.254   5.504   0.329
  375TIP3    H1 1131   5.297   5.476   0.410
  375TIP3    H2 1132   5.271   5.433   0.267
  376TIP3   OH2 1133   0.134   1.898   2.225
  376TIP3    H1 1134   0.223   1.919   2.253
  376TIP3    H2 1135   0.107   1.827   2.283
  377TIP3   OH2 1136   0.781   1.179   0.523
  377TIP3    H1 1137   0.859   1.128   0.502
  377TIP3    H2 1138   0.780   1.249   0.457
  378TIP3   OH2 1139   3.920   0.749   0.572
  378TIP3    H1 1140   3.913   0.838   0.537
  378TIP3    H2 1141   4.014   0.729   0.568
  379TIP3   OH2 1142   2.829   4.497   1.179
  379TIP3    H1 1143   2.829   4.482   1.274
  379TIP3    H2 1144   2.745   4.538   1.161
  380TIP3   OH2 1145   4.377   3.338   2.992
  380TIP3    H1 1146   4.461   3.384   2.997
  380TIP3    H2 1147   4.352   3.324   3.083
  381TIP3   OH2 1148   4.475   4.502   1.766
  381TIP3    H1 1149   4.472   4.580   1.822
  381TIP3    H2 1150   4.499   4.431   1.826
  382TIP3   OH2 1151   2.518   1.559   3.490
  382TIP3    H1 1152   2.573   1.629   3.526
  382TIP3    H2 1153   2.430   1.596   3.490
  383TIP3   OH2 1154   2.480   0.736   1.370
  383TIP3    H1 1155   2.489   0.654   1.322
  383TIP3    H2 1156   2.516   0.803   1.311
  384TIP3   OH2 1157   2.619   2.276   4.060
  384TIP3    H1 1158   2.538   2.228   4.076
  384TIP3    H2 1159   2.622   2.342   4.128
  385TIP3   OH2 1160   1.139   1.331   3.135
  385TIP3    H1 1161   1.138   1.363   3.045
  385TIP3    H2 1162   1.064   1.374   3.176
  386TIP3   OH2 1163   2.936   2.155   4.605
  386TIP3    H1 1164   2.981   2.208   4.671
  386TIP3    H2 1165   2.854   2.129   4.647
  387TIP3   OH2 1166   1.811   4.915   3.750
  387TIP3    H1 1167   1.756   4.991   3.768
  387TIP3    H2 1168   1.783   4.850   3.814
  388TIP3   OH2 1169   6.348   2.839   5.086
  388TIP3    H1 1170   6.408   2.874   5.151
  388TIP3    H2 1171   6.267   2.823   5.134
  389TIP3   OH2 1172   6.209   0.204   0.952
  389TIP3    H1 1173   6.244   0.263   0.884
  389TIP3    H2 1174   6.159   0.262   1.010
  390TIP3   OH2 1175   5.153   5.832   0.466
  390TIP3    H1 1176   5.082   5.788   0.512
  390TIP3    H2 1177   5.165   5.782   0.385
  391TIP3   OH2 1178   5.811   4.848   1.479
  391TIP3    H1 1179   5.813   4.919   1.414
  391TIP3    H2 1180   5.746   4.877   1.543
  392TIP3   OH2 1181   3.432   4.310   5.140
  392TIP3    H1 1182   3.446   4.244   5.071
  392TIP3    H2 1183   3.343   4.341   5.125
  393TIP3   OH2 1184   1.878   0.644   1.233
  393TIP3    H1 1185   1.854   0.565   1.185
  393TIP3    H2 1186   1.796   0.691   1.243
  394TIP3   OH2 1187   6.110   1.971   3.863
  394TIP3    H1 1188   6.169   2.047   3.869
  394TIP3    H2 1189   6.056   1.976   3.942
  395TIP3   OH2 1190   5.416   1.999   1.783
  395TIP3    H1 1191   5.398   1.949   1.704
  395TIP3    H2 1192   5.395   2.089   1.760
  396TIP3   OH2 1193   5.832   3.487   4.310
  396TIP3    H1 1194   5.747   3.529   4.323
  396TIP3    H2 1195   5.890   3.558   4.281
  397TIP3   OH2 1196   2.525   2.727   1.784
  397TIP3    H1 1197   2.529   2.733   1.688
  397TIP3    H2 1198   2.592   2.788   1.815
  398TIP3   OH2 1199   2.489   3.275   2.277
  398TIP3    H1 1200   2.561   3.331   2.246
  398TIP3    H2 1201   2.417   3.336   2.293
  399TIP3   OH2 1202   2.382   0.979   0.202
  399TIP3    H1 1203   2.460   1.020   0.166
  399TIP3    H2 1204   2.309   1.030   0.167
  400TIP3   OH2 1205   6.142   0.429   1.750
  400TIP3    H1 1206   6.200   0.448   1.823
  400TIP3    H2 1207   6.139   0.333   1.747
  401TIP3   OH2 1208   0.871   4.429   0.295
  401TIP3    H1 1209   0.786   4.466   0.268
  401TIP3    H2 1210   0.851   4.380   0.375
  402TIP3   OH2 1211   1.179   4.568   1.183
  402TIP3    H1 1212   1.105   4.521   1.144
  402TIP3    H2 1213   1.251   4.506   1.180
  403TIP3   OH2 1214   4.288   3.027   4.989
  403TIP3    H1 1215   4.352   3.027   4.919
  403TIP3    H2 1216   4.289   3.117   5.023
  404TIP3   OH2 1217   1.368   0.904   5.209
  404TIP3    H1 1218   1.464   0.898   5.206
  404TIP3    H2 1219   1.351   0.998   5.221
  405TIP3   OH2 1220   1.338   5.076   1.985
  405TIP3    H1 1221   1.267   5.094   2.047
  405TIP3    H2 1222   1.418   5.101   2.031
  406TIP3   OH2 1223   1.627   3.584   1.201
  406TIP3    H1 1224   1.565   3.626   1.141
  406TIP3    H2 1225   1.572   3.552   1.273
  407TIP3   OH2 1226   3.006   3.901   3.203
  407TIP3    H1 1227   3.075   3.850   3.160
  407TIP3    H2 1228   3.022   3.887   3.297
  408TIP3   OH2 1229   2.578   0.376   2.674
  408TIP3    H1 1230   2.642   0.352   2.608
  408TIP3    H2 1231   2.560   0.294   2.721
  409TIP3   OH2 1232   1.547   3.884   1.396
  409TIP3    H1 1233   1.575   3.833   1.472
  409TIP3    H2 1234   1.626   3.929   1.367
  410TIP3   OH2 1235   3.280   2.968   2.772
  410TIP3    H1 1236   3.317   2.983   2.685
  410TIP3    H2 1237   3.340   2.906   2.813
  411TIP3   OH2 1238   2.679   0.952   5.125
  411TIP3    H1 1239   2.664   1.014   5.196
  411TIP3    H2 1240   2.658   0.867   5.163
  412TIP3   OH2 1241   1.765   2.538   3.774
  412TIP3    H1 1242   1.832   2.597   3.808
  412TIP3    H2 1243   1.699   2.535   3.843
  413TIP3   OH2 1244   1.148   5.700   1.648
  413TIP3    H1 1245   1.185   5.716   1.735
  413TIP3    H2 1246   1.123   5.608   1.649
  414TIP3   OH2 1247   2.287   5.658   4.887
  414TIP3    H1 1248   2.243   5.741   4.909
  414TIP3    H2 1249   2.255   5.596   4.952
  415TIP3   OH2 1250   0.967   0.656   5.015
  415TIP3    H1 1251   0.904   0.675   5.085
  415TIP3    H2 1252   0.948   0.720   4.947
  416TIP3   OH2 1253   5.775   5.257   0.714
  416TIP3    H1 1254   5.820   5.206   0.781
  416TIP3    H2 1255   5.693   5.210   0.698
  417TIP3   OH2 1256   3.474   1.562   4.949
  417TIP3    H1 1257   3.524   1.515   5.015
  417TIP3    H2 1258   3.490   1.655   4.968
  418TIP3   OH2 1259   4.169   0.134   5.224
  418TIP3    H1 1260   4.094   0.187   5.252
  418TIP3    H2 1261   4.237   0.198   5.202
  419TIP3   OH2 1262   1.575   1.720   4.720
  419TIP3    H1 1263   1.634   1.787   4.755
  419TIP3    H2 1264   1.606   1.703   4.632
  420TIP3   OH2 1265   5.685   0.119   2.971
  420TIP3    H1 1266   5.744   0.045   2.953
  420TIP3    H2 1267   5.597   0.084   2.954
  421TIP3   OH2 1268   6.355   5.448   0.370
  421TIP3    H1 1269   6.264   5.478   0.364
  421TIP3    H2 1270   6.353   5.359   0.337
  422TIP3   OH2 1271   3.268   3.655   4.742
  422TIP3    H1 1272   3.303   3.626   4.657
  422TIP3    H2 1273   3.250   3.573   4.789
  423TIP3   OH2 1274   2.225   5.514   0.632
  423TIP3    H1 1275   2.259   5.451   0.695
  423TIP3    H2 1276   2.243   5.599   0.671
  424TIP3   OH2 1277   1.740   2.862   4.333
  424TIP3    H1 1278   1.688   2.934   4.367
  424TIP3    H2 1279   1.710   2.851   4.243
  425TIP3   OH2 1280   4.839   2.060   4.277
  425TIP3    H1 1281   4.919   2.012   4.299
  425TIP3    H2 1282   4.855   2.098   4.191
  426TIP3   OH2 1283   4.700   0.202   2.027
  426TIP3    H1 1284   4.781   0.196   2.078
  426TIP3    H2 1285   4.638   0.247   2.084
  427TIP3   OH2 1286   1.323   5.708   0.302
  427TIP3    H1 1287   1.334   5.624   0.259
  427TIP3    H2 1288   1.341   5.690   0.394
  428TIP3   OH2 1289   1.636   1.585   5.119
  428TIP3    H1 1290   1.549   1.620   5.099
  428TIP3    H2 1291   1.619   1.498   5.155
  429TIP3   OH2 1292   2.406   4.575   3.167
  429TIP3    H1 1293   2.483   4.527   3.197
  429TIP3    H2 1294   2.404   4.560   3.072
  430TIP3   OH2 1295   3.496   4.745   1.811
  430TIP3    H1 1296   3.495   4.674   1.875
  430TIP3    H2 1297   3.425   4.803   1.838
  431TIP3   OH2 1298   3.175   1.199   0.707
  431TIP3    H1 1299   3.106   1.265   0.714
  431TIP3    H2 1300   3.152   1.147   0.630
  432TIP3   OH2 1301   1.302   5.721   1.883
  432TIP3    H1 1302   1.256   5.683   1.958
  432TIP3    H2 1303   1.381   5.668   1.873
  433TIP3   OH2 1304   5.597   4.497   0.509
  433TIP3    H1 1305   5.531   4.473   0.444
  433TIP3    H2 1306   5.586   4.592   0.520
  434TIP3   OH2 1307   1.978   3.154   1.224
  434TIP3    H1 1308   2.007   3.202   1.145
  434TIP3    H2 1309   1.901   3.106   1.195
  435TIP3   OH2 1310   1.946   3.714   0.397
  435TIP3    H1 1311   1.853   3.734   0.406
  435TIP3    H2 1312   1.951   3.654   0.323
  436TIP3   OH2 1313   1.692   3.078   2.824
  436TIP3    H1 1314   1.615   3.134   2.808
  436TIP3    H2 1315   1.663   2.990   2.798
  437TIP3   OH2 1316   0.467   2.553   4.081
  437TIP3    H1 1317   0.451   2.578   3.990
  437TIP3    H2 1318   0.390   2.584   4.129
  438TIP3   OH2 1319   2.852   5.803   0.262
  438TIP3    H1 1320   2.846   5.709   0.279
  438TIP3    H2 1321   2.914   5.835   0.327
  439TIP3   OH2 1322   5.181   0.998   4.752
  439TIP3    H1 1323   5.104   0.945   4.735
  439TIP3    H2 1324   5.166   1.079   4.703
  440TIP3   OH2 1325   6.033   1.347   0.338
  440TIP3    H1 1326   6.001   1.436   0.351
  440TIP3    H2 1327   6.126   1.351   0.363
  441TIP3   OH2 1328   3.643   3.594   0.197
  441TIP3    H1 1329   3.594   3.607   0.116
  441TIP3    H2 1330   3.653   3.682   0.234
  442TIP3   OH2 1331   3.360   0.440   2.662
  442TIP3    H1 1332   3.431   0.407   2.608
  442TIP3    H2 1333   3.280   0.409   2.620
  443TIP3   OH2 1334   6.130   2.258   1.981
  443TIP3    H1 1335   6.151   2.166   1.998
  443TIP3    H2 1336   6.177   2.306   2.049
  444TIP3   OH2 1337   1.356   2.898   2.434
  444TIP3    H1 1338   1.276   2.887   2.486
  444TIP3    H2 1339   1.326   2.939   2.352
  445TIP3   OH2 1340   1.107   4.080   4.162
  445TIP3    H1 1341   1.041   4.028   4.115
  445TIP3    H2 1342   1.168   4.015   4.198
  446TIP3   OH2 1343   5.108   1.439   2.467
  446TIP3    H1 1344   5.150   1.502   2.408
  446TIP3    H2 1345   5.100   1.359   2.415
  447TIP3   OH2 1346   1.417   5.296   3.469
  447TIP3    H1 1347   1.401   5.343   3.387
  447TIP3    H2 1348   1.456   5.213   3.442
  448TIP3   OH2 1349   2.267   1.351   3.742
  448TIP3    H1 1350   2.307   1.282   3.795
  448TIP3    H2 1351   2.273   1.429   3.796
  449TIP3   OH2 1352   4.622   3.157   3.821
  449TIP3    H1 1353   4.589   3.095   3.755
  449TIP3    H2 1354   4.671   3.221   3.770
  450TIP3   OH2 1355   3.811   0.804   3.628
  450TIP3    H1 1356   3.876   0.797   3.557
  450TIP3    H2 1357   3.855   0.855   3.696
  451TIP3   OH2 1358   4.179   4.404   3.099
  451TIP3    H1 1359   4.172   4.336   3.166
  451TIP3    H2 1360   4.252   4.376   3.044
  452TIP3   OH2 1361   1.526   4.770   0.133
  452TIP3    H1 1362   1.607   4.743   0.175
  452TIP3    H2 1363   1.457   4.736   0.190
  453TIP3   OH2 1364   3.493   2.009   0.863
  453TIP3    H1 1365   3.478   2.103   0.851
  453TIP3    H2 1366   3.405   1.971   0.865
  454TIP3   OH2 1367   1.319   5.270   0.140
  454TIP3    H1 1368   1.300   5.269   0.046
  454TIP3    H2 1369   1.277   5.350   0.172
  455TIP3   OH2 1370   1.047   4.312   1.119
  455TIP3    H1 1371   1.132   4.323   1.075
  455TIP3    H2 1372   0.983   4.313   1.047
  456TIP3   OH2 1373   1.726   4.393   4.377
  456TIP3    H1 1374   1.774   4.343   4.442
  456TIP3    H2 1375   1.634   4.377   4.397
  457TIP3   OH2 1376   0.471   2.014   0.970
  457TIP3    H1 1377   0.412   1.939   0.971
  457TIP3    H2 1378   0.505   2.017   0.880
  458TIP3   OH2 1379   0.362   5.511   3.310
  458TIP3    H1 1380   0.408   5.517   3.226
  458TIP3    H2 1381   0.283   5.461   3.290
  459TIP3   OH2 1382   5.302   4.104   3.092
  459TIP3    H1 1383   5.342   4.024   3.125
  459TIP3    H2 1384   5.321   4.169   3.160
  460TIP3   OH2 1385   5.690   2.028   4.984
  460TIP3    H1 1386   5.770   2.057   4.941
  460TIP3    H2 1387   5.658   1.955   4.931
  461TIP3   OH2 1388   0.926   4.086   4.815
  461TIP3    H1 1389   0.910   4.147   4.744
  461TIP3    H2 1390   0.904   4.134   4.895
  462TIP3   OH2 1391   4.280   3.858   3.660
  462TIP3    H1 1392   4.372   3.879   3.676
  462TIP3    H2 1393   4.280   3.764   3.643
  463TIP3   OH2 1394   1.240   0.000   3.850
  463TIP3    H1 1395   1.334   0.019   3.850
  463TIP3    H2 1396   1.202   0.067   3.793
  464TIP3   OH2 1397   3.003   2.218   2.482
  464TIP3    H1 1398   3.059   2.140   2.482
  464TIP3    H2 1399   2.919   2.187   2.517
  465TIP3   OH2 1400   5.346   0.193   1.272
  465TIP3    H1 1401   5.368   0.134   1.200
  465TIP3    H2 1402   5.258   0.224   1.252
  466TIP3   OH2 1403   1.722   5.167   1.097
  466TIP3    H1 1404   1.644   5.221   1.087
  466TIP3    H2 1405   1.768   5.205   1.172
  467TIP3   OH2 1406   2.325   2.137   2.117
  467TIP3    H1 1407   2.393   2.069   2.121
  467TIP3    H2 1408   2.287   2.127   2.030
  468TIP3   OH2 1409   4.647   4.983   2.151
  468TIP3    H1 1410   4.737   4.962   2.123
  468TIP3    H2 1411   4.659   5.047   2.221
  469TIP3   OH2 1412   5.518   4.848   2.023
  469TIP3    H1 1413   5.582   4.831   2.092
  469TIP3    H2 1414   5.433   4.833   2.065
  470TIP3   OH2 1415   5.664   2.461   1.869
  470TIP3    H1 1416   5.602   2.433   1.801
  470TIP3    H2 1417   5.653   2.396   1.939
  471TIP3   OH2 1418   1.858   1.911   0.953
  471TIP3    H1 1419   1.951   1.933   0.959
  471TIP3    H2 1420   1.835   1.924   0.861
  472TIP3   OH2 1421   3.412   5.731   4.799
  472TIP3    H1 1422   3.465   5.730   4.879
  472TIP3    H2 1423   3.474   5.743   4.728
  473TIP3   OH2 1424   0.060   5.947   2.646
  473TIP3    H1 1425  -0.030   5.966   2.673
  473TIP3    H2 1426   0.062   5.852   2.634
  474TIP3   OH2 1427   4.904   1.760   3.554
  474TIP3    H1 1428   4.939   1.825   3.493
  474TIP3    H2 1429   4.861   1.812   3.622
  475TIP3   OH2 1430   4.242   5.536   0.400
  475TIP3    H1 1431   4.324   5.495   0.428
  475TIP3    H2 1432   4.268   5.597   0.331
  476TIP3   OH2 1433   3.225   1.823   2.683
  476TIP3    H1 1434   3.252   1.804   2.773
  476TIP3    H2 1435   3.151   1.883   2.693
  477TIP3   OH2 1436   5.211   5.560   1.987
  477TIP3    H1 1437   5.285   5.537   2.043
  477TIP3    H2 1438   5.157   5.618   2.041
  478TIP3   OH2 1439   4.998   3.162   4.186
  478TIP3    H1 1440   5.079   3.136   4.142
  478TIP3    H2 1441   4.940   3.187   4.115
  479TIP3   OH2 1442   6.137   3.957   2.311
  479TIP3    H1 1443   6.143   3.946   2.406
  479TIP3    H2 1444   6.143   3.868   2.277
  480TIP3   OH2 1445   0.862   1.809   4.298
  480TIP3    H1 1446   0.815   1.888   4.273
  480TIP3    H2 1447   0.793   1.744   4.314
  481TIP3   OH2 1448   1.385   2.323   4.772
  481TIP3    H1 1449   1.379   2.242   4.721
  481TIP3    H2 1450   1.370   2.393   4.708
  482TIP3   OH2 1451   6.086   0.102   1.629
  482TIP3    H1 1452   6.087   0.023   1.683
  482TIP3    H2 1453   6.178   0.128   1.622
  483TIP3   OH2 1454   3.390   2.354   3.001
  483TIP3    H1 1455   3.434   2.284   2.953
  483TIP3    H2 1456   3.314   2.312   3.041
  484TIP3   OH2 1457   0.280   1.204   3.996
  484TIP3    H1 1458   0.248   1.140   4.059
  484TIP3    H2 1459   0.204   1.260   3.979
  485TIP3   OH2 1460   1.403   1.578   0.042
  485TIP3    H1 1461   1.395   1.535   0.127
  485TIP3    H2 1462   1.363   1.517  -0.020
  486TIP3   OH2 1463   2.581   1.346   1.393
  486TIP3    H1 1464   2.659   1.296   1.419
  486TIP3    H2 1465   2.514   1.320   1.456
  487TIP3   OH2 1466   0.379   0.322   1.672
  487TIP3    H1 1467   0.402   0.367   1.753
  487TIP3    H2 1468   0.428   0.369   1.604
  488TIP3   OH2 1469   2.582   0.252   2.065
  488TIP3    H1 1470   2.665   0.251   2.017
  488TIP3    H2 1471   2.555   0.160   2.066
  489TIP3   OH2 1472   1.853   5.609   4.552
  489TIP3    H1 1473   1.835   5.700   4.575
  489TIP3    H2 1474   1.766   5.568   4.548
  490TIP3   OH2 1475   2.908   1.996   2.167
  490TIP3    H1 1476   2.834   2.035   2.214
  490TIP3    H2 1477   2.870   1.963   2.086
  491TIP3   OH2 1478   2.108   5.462   2.229
  491TIP3    H1 1479   2.113   5.406   2.152
  491TIP3    H2 1480   2.180   5.524   2.219
  492TIP3   OH2 1481   2.586   5.937   2.258
  492TIP3    H1 1482   2.615   5.850   2.233
  492TIP3    H2 1483   2.491   5.931   2.259
  493TIP3   OH2 1484   5.919   2.777   1.284
  493TIP3    H1 1485   5.928   2.872   1.284
  493TIP3    H2 1486   5.938   2.751   1.374
  494TIP3   OH2 1487   2.203   5.721   2.469
  494TIP3    H1 1488   2.121   5.714   2.420
  494TIP3    H2 1489   2.184   5.678   2.553
  495TIP3   OH2 1490   3.449   5.155   2.033
  495TIP3    H1 1491   3.463   5.244   2.000
  495TIP3    H2 1492   3.434   5.167   2.127
  496TIP3   OH2 1493   0.881   3.321   2.102
  496TIP3    H1 1494   0.872   3.411   2.069
  496TIP3    H2 1495   0.835   3.322   2.186
  497TIP3   OH2 1496   5.278   2.557   4.761
  497TIP3    H1 1497   5.290   2.463   4.744
  497TIP3    H2 1498   5.203   2.561   4.820
  498TIP3   OH2 1499   4.812   4.619   4.781
  498TIP3    H1 1500   4.842   4.529   4.772
  498TIP3    H2 1501   4.875   4.660   4.841
  499TIP3   OH2 1502   4.941   0.537   1.763
  499TIP3    H1 1503   4.931   0.470   1.830
  499TIP3    H2 1504   5.036   0.546   1.753
  500TIP3   OH2 1505   4.507   4.664   0.096
  500TIP3    H1 1506   4.546   4.580   0.122
  500TIP3    H2 1507   4.413   4.645   0.089
  501TIP3   OH2 1508   1.692   1.140   1.113
  501TIP3    H1 1509   1.608   1.178   1.136
  501TIP3    H2 1510   1.743   1.144   1.194
  502TIP3   OH2 1511   2.696   1.340   3.862
  502TIP3    H1 1512   2.777   1.322   3.813
  502TIP3    H2 1513   2.659   1.253   3.879
  503TIP3   OH2 1514   2.246   2.879   0.326
  503TIP3    H1 1515   2.169   2.888   0.382
  503TIP3    H2 1516   2.316   2.924   0.374
  504TIP3   OH2 1517   5.876   5.098   1.323
  504TIP3    H1 1518   5.903   5.178   1.370
  504TIP3    H2 1519   5.807   5.128   1.265
  505TIP3   OH2 1520   1.027   2.847   4.000
  505TIP3    H1 1521   0.994   2.902   4.071
  505TIP3    H2 1522   0.950   2.799   3.970
  506TIP3   OH2 1523   5.179   0.053   4.021
  506TIP3    H1 1524   5.185  -0.030   3.975
  506TIP3    H2 1525   5.254   0.104   3.988
  507TIP3   OH2 1526   3.160   1.171   1.155
  507TIP3    H1 1527   3.219   1.102   1.183
  507TIP3    H2 1528   3.154   1.231   1.230
  508TIP3   OH2 1529   4.080   0.729   5.046
  508TIP3    H1 1530   4.124   0.803   5.006
  508TIP3    H2 1531   4.118   0.724   5.134
  509TIP3   OH2 1532   1.266   2.868   2.807
  509TIP3    H1 1533   1.200   2.895   2.871
  509TIP3    H2 1534   1.218   2.859   2.725
  510TIP3   OH2 1535   3.125   1.696   2.012
  510TIP3    H1 1536   3.124   1.792   2.002
  510TIP3    H2 1537   3.100   1.663   1.927
  511TIP3   OH2 1538   1.894   1.841   0.600
  511TIP3    H1 1539   1.903   1.754   0.640
  511TIP3    H2 1540   1.813   1.835   0.548
  512TIP3   OH2 1541   1.453   4.136   2.075
  512TIP3    H1 1542   1.486   4.047   2.068
  512TIP3    H2 1543   1.528   4.191   2.054
  513TIP3   OH2 1544   2.990   4.799   3.287
  513TIP3    H1 1545   2.955   4.886   3.270
  513TIP3    H2 1546   2.992   4.756   3.202
  514TIP3   OH2 1547   3.206   3.098   3.867
  514TIP3    H1 1548   3.189   3.077   3.775
  514TIP3    H2 1549   3.189   3.192   3.873
  515TIP3   OH2 1550   2.132   1.025   3.023
  515TIP3    H1 1551   2.201   1.005   2.959
  515TIP3    H2 1552   2.118   0.942   3.068
  516TIP3   OH2 1553   1.993   0.058   1.389
  516TIP3    H1 1554   1.929   0.007   1.439
  516TIP3    H2 1555   2.053   0.093   1.455
  517TIP3   OH2 1556   4.033   0.785   3.793
  517TIP3    H1 1557   4.069   0.819   3.875
  517TIP3    H2 1558   4.080   0.702   3.779
  518TIP3   OH2 1559   4.964   5.835   2.702
  518TIP3    H1 1560   4.893   5.772   2.709
  518TIP3    H2 1561   5.006   5.816   2.619
  519TIP3   OH2 1562   1.926   2.314   2.818
  519TIP3    H1 1563   1.866   2.373   2.773
  519TIP3    H2 1564   2.013   2.340   2.786
  520TIP3   OH2 1565   4.534   4.756   2.730
  520TIP3    H1 1566   4.617   4.719   2.761
  520TIP3    H2 1567   4.472   4.740   2.801
  521TIP3   OH2 1568   4.115   0.490   0.476
  521TIP3    H1 1569   4.168   0.563   0.508
  521TIP3    H2 1570   4.126   0.421   0.541
  522TIP3   OH2 1571   6.158   4.051   3.659
  522TIP3    H1 1572   6.251   4.069   3.674
  522TIP3    H2 1573   6.156   3.994   3.583
  523TIP3   OH2 1574   0.249   0.371   0.688
  523TIP3    H1 1575   0.161   0.346   0.718
  523TIP3    H2 1576   0.253   0.466   0.700
  524TIP3   OH2 1577   1.750   4.736   3.939
  524TIP3    H1 1578   1.754   4.641   3.951
  524TIP3    H2 1579   1.788   4.773   4.019
  525TIP3   OH2 1580   1.519   1.420   4.136
  525TIP3    H1 1581   1.530   1.331   4.169
  525TIP3    H2 1582   1.438   1.451   4.177
  526TIP3   OH2 1583   5.077   5.930   3.026
  526TIP3    H1 1584   5.050   6.019   3.046
  526TIP3    H2 1585   4.997   5.886   2.998
  527TIP3   OH2 1586   4.379   2.430   4.980
  527TIP3    H1 1587   4.462   2.391   5.006
  527TIP3    H2 1588   4.363   2.396   4.892
  528TIP3   OH2 1589   1.492   5.948   0.202
  528TIP3    H1 1590   1.443   5.983   0.128
  528TIP3    H2 1591   1.461   5.858   0.210
  529TIP3   OH2 1592   3.430   4.877   3.443
  529TIP3    H1 1593   3.520   4.845   3.437
  529TIP3    H2 1594   3.399   4.878   3.352
  530TIP3   OH2 1595   3.216   4.403   4.446
  530TIP3    H1 1596   3.224   4.421   4.352
  530TIP3    H2 1597   3.208   4.490   4.486
  531TIP3   OH2 1598   1.616   0.768   1.274
  531TIP3    H1 1599   1.617   0.863   1.286
  531TIP3    H2 1600   1.524   0.745   1.267
  532TIP3   OH2 1601   3.014   2.254   0.492
  532TIP3    H1 1602   2.980   2.342   0.512
  532TIP3    H2 1603   3.008   2.207   0.576
  533TIP3   OH2 1604   0.339   5.742   1.049
  533TIP3    H1 1605   0.298   5.678   0.991
  533TIP3    H2 1606   0.350   5.695   1.132
  534TIP3   OH2 1607   0.915   4.790   1.317
  534TIP3    H1 1608   0.948   4.760   1.232
  534TIP3    H2 1609   0.941   4.722   1.378
  535TIP3   OH2 1610   2.190   4.487   2.539
  535TIP3    H1 1611   2.137   4.560   2.509
  535TIP3    H2 1612   2.245   4.465   2.463
  536TIP3   OH2 1613   2.684   4.973   1.828
  536TIP3    H1 1614   2.615   5.021   1.873
  536TIP3    H2 1615   2.699   4.896   1.882
  537TIP3   OH2 1616   6.142   2.294   2.395
  537TIP3    H1 1617   6.077   2.362   2.409
  537TIP3    H2 1618   6.109   2.218   2.443
  538TIP3   OH2 1619   4.962   1.287   1.800
  538TIP3    H1 1620   4.996   1.202   1.826
  538TIP3    H2 1621   5.036   1.347   1.810
  539TIP3   OH2 1622   5.869   3.733   3.005
  539TIP3    H1 1623   5.957   3.696   3.012
  539TIP3    H2 1624   5.854   3.741   2.911
  540TIP3   OH2 1625   5.586   1.173   2.622
  540TIP3    H1 1626   5.594   1.078   2.610
  540TIP3    H2 1627   5.676   1.205   2.616
  541TIP3   OH2 1628   3.553   3.376   4.004
  541TIP3    H1 1629   3.646   3.355   4.012
  541TIP3    H2 1630   3.524   3.392   4.094
  542TIP3   OH2 1631   3.366   1.742   0.571
  542TIP3    H1 1632   3.449   1.697   0.555
  542TIP3    H2 1633   3.367   1.817   0.512
  543TIP3   OH2 1634   0.239   3.813   2.035
  543TIP3    H1 1635   0.183   3.742   2.067
  543TIP3    H2 1636   0.328   3.778   2.040
  544TIP3   OH2 1637   0.657   4.557   1.146
  544TIP3    H1 1638   0.697   4.642   1.128
  544TIP3    H2 1639   0.705   4.523   1.221
  545TIP3   OH2 1640   3.458   3.343   2.814
  545TIP3    H1 1641   3.375   3.328   2.857
  545TIP3    H2 1642   3.519   3.362   2.885
  546TIP3   OH2 1643   5.548   4.521   3.571
  546TIP3    H1 1644   5.623   4.487   3.523
  546TIP3    H2 1645   5.584   4.542   3.658
  547TIP3   OH2 1646   2.178   2.707   3.337
  547TIP3    H1 1647   2.086   2.684   3.326
  547TIP3    H2 1648   2.218   2.688   3.252
  548TIP3   OH2 1649   1.087   2.268   4.026
  548TIP3    H1 1650   1.143   2.197   4.060
  548TIP3    H2 1651   1.035   2.294   4.102
  549TIP3   OH2 1652   0.531   4.287   3.535
  549TIP3    H1 1653   0.572   4.308   3.619
  549TIP3    H2 1654   0.579   4.340   3.472
  550TIP3   OH2 1655   1.824   5.890   3.874
  550TIP3    H1 1656   1.787   5.814   3.918
  550TIP3    H2 1657   1.786   5.888   3.786
  551TIP3   OH2 1658   1.785   2.347   1.378
  551TIP3    H1 1659   1.853   2.289   1.411
  551TIP3    H2 1660   1.737   2.295   1.314
  552TIP3   OH2 1661   0.511   2.783   2.549
  552TIP3    H1 1662   0.565   2.704   2.559
  552TIP3    H2 1663   0.574   2.852   2.526
  553TIP3   OH2 1664   5.680   0.669   1.636
  553TIP3    H1 1665   5.660   0.733   1.567
  553TIP3    H2 1666   5.733   0.603   1.591
  554TIP3   OH2 1667   1.111   3.579   2.203
  554TIP3    H1 1668   1.083   3.638   2.273
  554TIP3    H2 1669   1.156   3.635   2.140
  555TIP3   OH2 1670   0.163   5.469   4.328
  555TIP3    H1 1671   0.191   5.415   4.401
  555TIP3    H2 1672   0.072   5.491   4.348
  556TIP3   OH2 1673   6.251   5.542   1.529
  556TIP3    H1 1674   6.296   5.585   1.457
  556TIP3    H2 1675   6.320   5.497   1.578
  557TIP3   OH2 1676   5.274   3.394   2.390
  557TIP3    H1 1677   5.199   3.400   2.449
  557TIP3    H2 1678   5.340   3.345   2.440
  558TIP3   OH2 1679   6.289   0.663   1.710
  558TIP3    H1 1680   6.194   0.650   1.707
  558TIP3    H2 1681   6.325   0.574   1.709
  559TIP3   OH2 1682   5.829   5.016   3.493
  559TIP3    H1 1683   5.737   4.996   3.479
  559TIP3    H2 1684   5.846   4.989   3.583
  560TIP3   OH2 1685   0.244   6.031   3.544
  560TIP3    H1 1686   0.209   5.946   3.518
  560TIP3    H2 1687   0.187   6.060   3.616
  561TIP3   OH2 1688   3.784   2.808   1.166
  561TIP3    H1 1689   3.820   2.725   1.198
  561TIP3    H2 1690   3.704   2.820   1.217
  562TIP3   OH2 1691   1.931   3.861   2.306
  562TIP3    H1 1692   1.963   3.782   2.263
  562TIP3    H2 1693   1.887   3.830   2.385
  563TIP3   OH2 1694   4.741   4.882   0.837
  563TIP3    H1 1695   4.824   4.890   0.885
  563TIP3    H2 1696   4.675   4.867   0.904
  564TIP3   OH2 1697   1.824   0.683   2.294
  564TIP3    H1 1698   1.919   0.678   2.280
  564TIP3    H2 1699   1.811   0.647   2.382
  565TIP3   OH2 1700   6.363   1.510   2.950
  565TIP3    H1 1701   6.368   1.510   3.045
  565TIP3    H2 1702   6.385   1.600   2.925
  566TIP3   OH2 1703   2.592   0.927   1.173
  566TIP3    H1 1704   2.527   0.965   1.114
  566TIP3    H2 1705   2.640   1.002   1.208
  567TIP3   OH2 1706   4.258   5.981   0.150
  567TIP3    H1 1707   4.194   5.955   0.084
  567TIP3    H2 1708   4.208   5.982   0.232
  568TIP3   OH2 1709   0.840   4.581   4.528
  568TIP3    H1 1710   0.757   4.582   4.481
  568TIP3    H2 1711   0.901   4.625   4.470
  569TIP3   OH2 1712   3.033   1.249   1.611
  569TIP3    H1 1713   2.954   1.255   1.558
  569TIP3    H2 1714   3.005   1.202   1.690
  570TIP3   OH2 1715   5.357   2.802   0.242
  570TIP3    H1 1716   5.290   2.868   0.261
  570TIP3    H2 1717   5.415   2.804   0.319
  571TIP3   OH2 1718   2.397   3.245   4.204
  571TIP3    H1 1719   2.392   3.241   4.108
  571TIP3    H2 1720   2.410   3.337   4.224
  572TIP3   OH2 1721   4.072   3.648   0.397
  572TIP3    H1 1722   4.069   3.663   0.491
  572TIP3    H2 1723   4.121   3.566   0.388
  573TIP3   OH2 1724   0.184   2.711   0.596
  573TIP3    H1 1725   0.275   2.685   0.610
  573TIP3    H2 1726   0.144   2.709   0.683
  574TIP3   OH2 1727   1.769   5.402   4.201
  574TIP3    H1 1728   1.858   5.408   4.237
  574TIP3    H2 1729   1.760   5.310   4.177
  575TIP3   OH2 1730   5.866   3.241   0.404
  575TIP3    H1 1731   5.955   3.252   0.437
  575TIP3    H2 1732   5.830   3.170   0.457
  576TIP3   OH2 1733   0.441   0.670   3.552
  576TIP3    H1 1734   0.450   0.766   3.553
  576TIP3    H2 1735   0.379   0.653   3.481
  577TIP3   OH2 1736   1.496   3.682   1.610
  577TIP3    H1 1737   1.410   3.724   1.609
  577TIP3    H2 1738   1.477   3.589   1.601
  578TIP3   OH2 1739   5.328   2.946   2.430
  578TIP3    H1 1740   5.299   3.037   2.437
  578TIP3    H2 1741   5.251   2.898   2.402
  579TIP3   OH2 1742   1.142   0.284   2.640
  579TIP3    H1 1743   1.212   0.273   2.576
  579TIP3    H2 1744   1.068   0.318   2.589
  580TIP3   OH2 1745   0.852   4.175   3.558
  580TIP3    H1 1746   0.817   4.100   3.605
  580TIP3    H2 1747   0.797   4.182   3.480
  581TIP3   OH2 1748   4.671   2.821   3.192
  581TIP3    H1 1749   4.734   2.793   3.259
  581TIP3    H2 1750   4.698   2.776   3.113
  582TIP3   OH2 1751   1.565   1.066   2.537
  582TIP3    H1 1752   1.566   1.042   2.444
  582TIP3    H2 1753   1.578   1.160   2.538
  583TIP3   OH2 1754   1.611   4.356   0.752
  583TIP3    H1 1755   1.563   4.307   0.685
  583TIP3    H2 1756   1.693   4.308   0.764
  584TIP3   OH2 1757   0.320   1.005   2.717
  584TIP3    H1 1758   0.375   1.026   2.792
  584TIP3    H2 1759   0.331   0.911   2.705
  585TIP3   OH2 1760   1.161   2.148   5.219
  585TIP3    H1 1761   1.187   2.056   5.220
  585TIP3    H2 1762   1.133   2.164   5.129
  586TIP3   OH2 1763   5.756   1.846   3.693
  586TIP3    H1 1764   5.754   1.909   3.764
  586TIP3    H2 1765   5.756   1.761   3.737
  587TIP3   OH2 1766   2.689   5.160   3.358
  587TIP3    H1 1767   2.662   5.097   3.425
  587TIP3    H2 1768   2.734   5.229   3.406
  588TIP3   OH2 1769   5.479   1.439   4.300
  588TIP3    H1 1770   5.427   1.415   4.222
  588TIP3    H2 1771   5.414   1.473   4.362
  589TIP3   OH2 1772   0.046   0.700   3.605
  589TIP3    H1 1773   0.092   0.744   3.677
  589TIP3    H2 1774   0.100   0.717   3.528
  590TIP3   OH2 1775   3.503   2.925   1.123
  590TIP3    H1 1776   3.465   2.982   1.189
  590TIP3    H2 1777   3.559   2.982   1.070
  591TIP3   OH2 1778   1.374   4.186   4.483
  591TIP3    H1 1779   1.281   4.205   4.471
  591TIP3    H2 1780   1.384   4.166   4.576
  592TIP3   OH2 1781   5.380   1.101   1.330
  592TIP3    H1 1782   5.363   1.035   1.397
  592TIP3    H2 1783   5.384   1.052   1.248
  593TIP3   OH2 1784   0.496   1.284   4.222
  593TIP3    H1 1785   0.417   1.263   4.171
  593TIP3    H2 1786   0.507   1.378   4.212
  594TIP3   OH2 1787   5.739   1.393   4.299
  594TIP3    H1 1788   5.735   1.299   4.314
  594TIP3    H2 1789   5.653   1.416   4.263
  595TIP3   OH2 1790   5.598   2.958   3.360
  595TIP3    H1 1791   5.603   2.863   3.367
  595TIP3    H2 1792   5.504   2.978   3.358
  596TIP3   OH2 1793   0.157   5.259   1.256
  596TIP3    H1 1794   0.145   5.346   1.293
  596TIP3    H2 1795   0.179   5.204   1.331
  597TIP3   OH2 1796   3.683   4.941   3.900
  597TIP3    H1 1797   3.684   4.908   3.811
  597TIP3    H2 1798   3.655   5.032   3.891
  598TIP3   OH2 1799   5.947   2.843   1.992
  598TIP3    H1 1800   6.036   2.835   2.025
  598TIP3    H2 1801   5.934   2.937   1.980
  599TIP3   OH2 1802   3.966   5.994   2.862
  599TIP3    H1 1803   4.005   5.907   2.848
  599TIP3    H2 1804   3.949   5.998   2.956
  600TIP3   OH2 1805   3.842   0.139   0.041
  600TIP3    H1 1806   3.844   0.159  -0.053
  600TIP3    H2 1807   3.755   0.102   0.055
  601TIP3   OH2 1808   5.946   2.804   1.024
  601TIP3    H1 1809   5.951   2.727   0.967
  601TIP3    H2 1810   5.948   2.768   1.113
  602TIP3   OH2 1811   0.476   5.076   1.276
  602TIP3    H1 1812   0.389   5.036   1.287
  602TIP3    H2 1813   0.537   5.007   1.303
  603TIP3   OH2 1814   2.507   1.415   0.368
  603TIP3    H1 1815   2.589   1.458   0.392
  603TIP3    H2 1816   2.521   1.387   0.277
  604TIP3   OH2 1817   3.591   3.187   3.815
  604TIP3    H1 1818   3.580   3.260   3.876
  604TIP3    H2 1819   3.609   3.111   3.870
  605TIP3   OH2 1820   6.072   1.529   0.716
  605TIP3    H1 1821   6.018   1.460   0.755
  605TIP3    H2 1822   6.010   1.584   0.668
  606TIP3   OH2 1823   0.226   2.199   0.990
  606TIP3    H1 1824   0.208   2.141   1.064
  606TIP3    H2 1825   0.290   2.151   0.937
  607TIP3   OH2 1826   5.583   1.403   4.553
  607TIP3    H1 1827   5.675   1.427   4.568
  607TIP3    H2 1828   5.569   1.419   4.460
  608TIP3   OH2 1829   0.812   3.217   0.451
  608TIP3    H1 1830   0.737   3.241   0.397
  608TIP3    H2 1831   0.864   3.297   0.457
  609TIP3   OH2 1832   3.709   4.135   4.610
  609TIP3    H1 1833   3.739   4.213   4.656
  609TIP3    H2 1834   3.653   4.168   4.540
  610TIP3   OH2 1835   6.304   0.401   1.975
  610TIP3    H1 1836   6.246   0.335   2.013
  610TIP3    H2 1837   6.305   0.472   2.040
  611TIP3   OH2 1838   3.252   5.724   1.640
  611TIP3    H1 1839   3.198   5.662   1.688
  611TIP3    H2 1840   3.288   5.782   1.707
  612TIP3   OH2 1841   3.414   0.983   2.244
  612TIP3    H1 1842   3.492   0.930   2.261
  612TIP3    H2 1843   3.428   1.017   2.155
  613TIP3   OH2 1844   6.162   3.737   0.789
  613TIP3    H1 1845   6.078   3.691   0.800
  613TIP3    H2 1846   6.205   3.727   0.874
  614TIP3   OH2 1847   4.360   4.989   0.522
  614TIP3    H1 1848   4.382   4.899   0.498
  614TIP3    H2 1849   4.348   4.986   0.617
  615TIP3   OH2 1850   2.028   1.344   3.198
  615TIP3    H1 1851   1.947   1.381   3.164
  615TIP3    H2 1852   2.034   1.377   3.287
  616TIP3   OH2 1853   1.479   0.829   2.664
  616TIP3    H1 1854   1.502   0.905   2.610
  616TIP3    H2 1855   1.439   0.768   2.602
  617TIP3   OH2 1856   5.175   1.855   0.470
  617TIP3    H1 1857   5.268   1.838   0.488
  617TIP3    H2 1858   5.169   1.950   0.464
  618TIP3   OH2 1859   2.991   0.504   4.432
  618TIP3    H1 1860   3.049   0.570   4.394
  618TIP3    H2 1861   2.911   0.510   4.380
  619TIP3   OH2 1862   2.353   3.111   1.408
  619TIP3    H1 1863   2.337   3.146   1.320
  619TIP3    H2 1864   2.446   3.128   1.424
  620TIP3   OH2 1865   2.533   0.830   3.979
  620TIP3    H1 1866   2.560   0.750   3.933
  620TIP3    H2 1867   2.575   0.901   3.931
  621TIP3   OH2 1868   5.904   4.061   4.226
  621TIP3    H1 1869   5.905   4.151   4.259
  621TIP3    H2 1870   5.989   4.051   4.182
  622TIP3   OH2 1871   0.376   3.052   0.790
  622TIP3    H1 1872   0.469   3.056   0.814
  622TIP3    H2 1873   0.374   3.064   0.695
  623TIP3   OH2 1874   1.633   4.812   0.764
  623TIP3    H1 1875   1.570   4.773   0.824
  623TIP3    H2 1876   1.714   4.819   0.815
  624TIP3   OH2 1877   3.714   5.968   0.990
  624TIP3    H1 1878   3.780   5.935   1.051
  624TIP3    H2 1879   3.755   5.960   0.904
  625TIP3   OH2 1880   0.754   0.335   3.518
  625TIP3    H1 1881   0.788   0.310   3.604
  625TIP3    H2 1882   0.830   0.336   3.461
  626TIP3   OH2 1883   1.109   3.990   1.379
  626TIP3    H1 1884   1.046   3.978   1.309
  626TIP3    H2 1885   1.067   3.951   1.456
  627TIP3   OH2 1886   2.005   2.839   4.860
  627TIP3    H1 1887   1.943   2.853   4.788
  627TIP3    H2 1888   2.034   2.748   4.849
  628TIP3   OH2 1889   0.637   0.701   0.039
  628TIP3    H1 1890   0.723   0.693   0.080
  628TIP3    H2 1891   0.626   0.619  -0.009
  629TIP3   OH2 1892   1.443   2.087   2.646
  629TIP3    H1 1893   1.405   2.025   2.709
  629TIP3    H2 1894   1.479   2.031   2.577
  630TIP3   OH2 1895   3.076   5.192   1.070
  630TIP3    H1 1896   3.139   5.223   1.005
  630TIP3    H2 1897   3.096   5.099   1.081
  631TIP3   OH2 1898   1.459   4.396   3.268
  631TIP3    H1 1899   1.437   4.303   3.275
  631TIP3    H2 1900   1.544   4.404   3.311
  632TIP3   OH2 1901   6.240   0.337   3.490
  632TIP3    H1 1902   6.246   0.253   3.446
  632TIP3    H2 1903   6.303   0.393   3.445
  633TIP3   OH2 1904   1.643   2.523   3.481
  633TIP3    H1 1905   1.661   2.511   3.388
  633TIP3    H2 1906   1.562   2.572   3.484
  634TIP3   OH2 1907   6.176   0.593   4.015
  634TIP3    H1 1908   6.153   0.646   3.938
  634TIP3    H2 1909   6.272   0.598   4.019
  635TIP3   OH2 1910   3.940   3.073   1.185
  635TIP3    H1 1911   3.944   3.073   1.281
  635TIP3    H2 1912   3.849   3.052   1.165
  636TIP3   OH2 1913   4.375   3.935   4.452
  636TIP3    H1 1914   4.392   3.853   4.498
  636TIP3    H2 1915   4.424   3.926   4.370
  637TIP3   OH2 1916   4.736   1.655   2.629
  637TIP3    H1 1917   4.809   1.708   2.596
  637TIP3    H2 1918   4.762   1.565   2.614
  638TIP3   OH2 1919   5.890   4.532   0.539
  638TIP3    H1 1920   5.851   4.618   0.525
  638TIP3    H2 1921   5.820   4.470   0.518
  639TIP3   OH2 1922   3.261   2.488   3.334
  639TIP3    H1 1923   3.298   2.546   3.401
  639TIP3    H2 1924   3.337   2.443   3.297
  640TIP3   OH2 1925   1.644   3.647   4.809
  640TIP3    H1 1926   1.651   3.721   4.749
  640TIP3    H2 1927   1.612   3.686   4.891
  641TIP3   OH2 1928   5.121   2.653   2.850
  641TIP3    H1 1929   5.029   2.638   2.828
  641TIP3    H2 1930   5.120   2.675   2.943
  642TIP3   OH2 1931   2.243   4.546   3.393
  642TIP3    H1 1932   2.293   4.565   3.313
  642TIP3    H2 1933   2.193   4.626   3.409
  643TIP3   OH2 1934   1.888   5.600   1.978
  643TIP3    H1 1935   1.818   5.636   2.033
  643TIP3    H2 1936   1.846   5.534   1.924
  644TIP3   OH2 1937   3.136   5.097   3.870
  644TIP3    H1 1938   3.201   5.029   3.852
  644TIP3    H2 1939   3.177   5.178   3.841
  645TIP3   OH2 1940   3.443   1.477   3.335
  645TIP3    H1 1941   3.404   1.533   3.268
  645TIP3    H2 1942   3.369   1.447   3.388
  646TIP3   OH2 1943   5.183   4.294   2.130
  646TIP3    H1 1944   5.089   4.282   2.113
  646TIP3    H2 1945   5.201   4.383   2.100
  647TIP3   OH2 1946   2.155   1.141   4.841
  647TIP3    H1 1947   2.217   1.119   4.772
  647TIP3    H2 1948   2.101   1.211   4.804
  648TIP3   OH2 1949   4.946   2.040   0.264
  648TIP3    H1 1950   4.923   2.080   0.348
  648TIP3    H2 1951   4.913   1.950   0.272
  649TIP3   OH2 1952   0.649   0.994   3.760
  649TIP3    H1 1953   0.626   1.014   3.850
  649TIP3    H2 1954   0.565   0.988   3.714
  650TIP3   OH2 1955   5.062   3.032   1.982
  650TIP3    H1 1956   5.067   2.940   2.005
  650TIP3    H2 1957   5.110   3.039   1.899
  651TIP3   OH2 1958   5.144   5.976   5.088
  651TIP3    H1 1959   5.156   6.071   5.088
  651TIP3    H2 1960   5.228   5.942   5.056
  652TIP3   OH2 1961   0.300   4.202   3.222
  652TIP3    H1 1962   0.275   4.143   3.293
  652TIP3    H2 1963   0.303   4.146   3.145
  653TIP3   OH2 1964   1.260   4.266   0.897
  653TIP3    H1 1965   1.267   4.283   0.803
  653TIP3    H2 1966   1.267   4.170   0.904
  654TIP3   OH2 1967   0.602   4.608   4.356
  654TIP3    H1 1968   0.562   4.532   4.312
  654TIP3    H2 1969   0.641   4.658   4.285
  655TIP3   OH2 1970   2.695   1.213   2.685
  655TIP3    H1 1971   2.706   1.195   2.591
  655TIP3    H2 1972   2.754   1.286   2.703
  656TIP3   OH2 1973   4.058   5.624   1.311
  656TIP3    H1 1974   4.106   5.687   1.364
  656TIP3    H2 1975   4.124   5.585   1.253
  657TIP3   OH2 1976   2.465   5.654   0.355
  657TIP3    H1 1977   2.490   5.705   0.432
  657TIP3    H2 1978   2.519   5.575   0.360
  658TIP3   OH2 1979   3.370   3.624   3.256
  658TIP3    H1 1980   3.327   3.693   3.206
  658TIP3    H2 1981   3.306   3.598   3.322
  659TIP3   OH2 1982   0.733   1.912   1.947
  659TIP3    H1 1983   0.725   1.858   2.025
  659TIP3    H2 1984   0.701   1.857   1.876
  660TIP3   OH2 1985   2.334   0.836   0.980
  660TIP3    H1 1986   2.345   0.890   0.902
  660TIP3    H2 1987   2.255   0.870   1.022
  661TIP3   OH2 1988   1.846   5.831   3.271
  661TIP3    H1 1989   1.887   5.905   3.315
  661TIP3    H2 1990   1.794   5.870   3.201
  662TIP3   OH2 1991   5.238   1.413   4.170
  662TIP3    H1 1992   5.228   1.502   4.137
  662TIP3    H2 1993   5.188   1.412   4.251
  663TIP3   OH2 1994   2.533   5.383   3.806
  663TIP3    H1 1995   2.524   5.329   3.728
  663TIP3    H2 1996   2.599   5.449   3.782
  664TIP3   OH2 1997   4.890   0.300   3.913
  664TIP3    H1 1998   4.986   0.294   3.910
  664TIP3    H2 1999   4.868   0.274   4.003
  665TIP3   OH2 2000   3.973   1.023   2.271
  665TIP3    H1 2001   4.023   0.947   2.242
  665TIP3    H2 2002   4.032   1.098   2.258
  666TIP3   OH2 2003   5.198   3.719   2.450
  666TIP3    H1 2004   5.131   3.655   2.429
  666TIP3    H2 2005   5.262   3.712   2.379
  667TIP3   OH2 2006   0.935   0.870   0.964
  667TIP3    H1 2007   0.847   0.861   1.001
  667TIP3    H2 2008   0.926   0.839   0.874
  668TIP3   OH2 2009   1.434   2.621   2.388
  668TIP3    H1 2010   1.382   2.698   2.410
  668TIP3    H2 2011   1.389   2.583   2.313
  669TIP3   OH2 2012   1.780   2.316   2.334
  669TIP3    H1 2013   1.813   2.314   2.424
  669TIP3    H2 2014   1.687   2.332   2.342
  670TIP3   OH2 2015   2.642   2.174   3.800
  670TIP3    H1 2016   2.630   2.242   3.867
  670TIP3    H2 2017   2.736   2.158   3.798
  671TIP3   OH2 2018   2.563   5.631   0.989
  671TIP3    H1 2019   2.575   5.540   1.017
  671TIP3    H2 2020   2.507   5.670   1.056
  672TIP3   OH2 2021   0.435   4.406   4.057
  672TIP3    H1 2022   0.370   4.414   4.127
  672TIP3    H2 2023   0.449   4.496   4.027
  673TIP3   OH2 2024   3.820   5.259   3.493
  673TIP3    H1 2025   3.730   5.238   3.470
  673TIP3    H2 2026   3.865   5.266   3.409
  674TIP3   OH2 2027   6.019   1.993   3.583
  674TIP3    H1 2028   6.030   1.983   3.677
  674TIP3    H2 2029   5.929   1.966   3.566
  675TIP3   OH2 2030   5.875   4.167   0.107
  675TIP3    H1 2031   5.837   4.207   0.029
  675TIP3    H2 2032   5.927   4.093   0.073
  676TIP3   OH2 2033   2.305   4.867   0.594
  676TIP3    H1 2034   2.232   4.929   0.598
  676TIP3    H2 2035   2.384   4.922   0.599
  677TIP3   OH2 2036   0.786   4.187   1.507
  677TIP3    H1 2037   0.834   4.104   1.500
  677TIP3    H2 2038   0.854   4.254   1.510
  678TIP3   OH2 2039   0.305   1.274   4.444
  678TIP3    H1 2040   0.254   1.355   4.440
  678TIP3    H2 2041   0.348   1.268   4.358
  679TIP3   OH2 2042   6.122   3.322   1.955
  679TIP3    H1 2043   6.082   3.408   1.946
  679TIP3    H2 2044   6.092   3.273   1.879
  680TIP3   OH2 2045   0.054   1.961   0.389
  680TIP3    H1 2046   0.097   2.046   0.392
  680TIP3    H2 2047   0.111   1.907   0.333
  681TIP3   OH2 2048   0.112   1.436   4.112
  681TIP3    H1 2049   0.203   1.443   4.140
  681TIP3    H2 2050   0.074   1.370   4.170
  682TIP3   OH2 2051   4.213   4.997   4.595
  682TIP3    H1 2052   4.141   5.059   4.600
  682TIP3    H2 2053   4.222   4.963   4.684
  683TIP3   OH2 2054   4.317   4.466   2.066
  683TIP3    H1 2055   4.244   4.434   2.013
  683TIP3    H2 2056   4.313   4.562   2.056
  684TIP3   OH2 2057   3.520   4.099   2.265
  684TIP3    H1 2058   3.544   4.061   2.181
  684TIP3    H2 2059   3.504   4.023   2.322
  685TIP3   OH2 2060   5.220   1.194   3.975
  685TIP3    H1 2061   5.234   1.232   3.888
  685TIP3    H2 2062   5.220   1.269   4.034
  686TIP3   OH2 2063   1.595   4.681   1.167
  686TIP3    H1 2064   1.671   4.711   1.216
  686TIP3    H2 2065   1.630   4.621   1.101
  687TIP3   OH2 2066   0.093   5.686   0.820
  687TIP3    H1 2067   0.102   5.613   0.759
  687TIP3    H2 2068   0.079   5.645   0.905
  688TIP3   OH2 2069   5.320   4.862   3.985
  688TIP3    H1 2070   5.369   4.925   3.932
  688TIP3    H2 2071   5.387   4.811   4.031
  689TIP3   OH2 2072   5.686   1.952   1.677
  689TIP3    H1 2073   5.691   1.947   1.582
  689TIP3    H2 2074   5.633   1.877   1.703
  690TIP3   OH2 2075   0.243   2.842   2.636
  690TIP3    H1 2076   0.309   2.788   2.592
  690TIP3    H2 2077   0.189   2.780   2.685
  691TIP3   OH2 2078   4.230   2.807   3.433
  691TIP3    H1 2079   4.307   2.788   3.380
  691TIP3    H2 2080   4.156   2.798   3.373
  692TIP3   OH2 2081   4.019   2.603   0.059
  692TIP3    H1 2082   3.999   2.695   0.076
  692TIP3    H2 2083   4.071   2.603  -0.021
  693TIP3   OH2 2084   3.812   2.231   0.366
  693TIP3    H1 2085   3.870   2.279   0.307
  693TIP3    H2 2086   3.778   2.159   0.312
  694TIP3   OH2 2087   3.866   4.214   4.345
  694TIP3    H1 2088   3.928   4.163   4.293
  694TIP3    H2 2089   3.908   4.225   4.430
  695TIP3   OH2 2090   3.789   2.153   3.414
  695TIP3    H1 2091   3.794   2.126   3.505
  695TIP3    H2 2092   3.880   2.172   3.389
  696TIP3   OH2 2093   5.944   2.079   1.704
  696TIP3    H1 2094   5.982   2.050   1.786
  696TIP3    H2 2095   5.865   2.025   1.693
  697TIP3   OH2 2096   1.905   5.136   4.629
  697TIP3    H1 2097   1.997   5.157   4.615
  697TIP3    H2 2098   1.869   5.212   4.674
  698TIP3   OH2 2099   0.190   0.246   1.865
  698TIP3    H1 2100   0.196   0.262   1.771
  698TIP3    H2 2101   0.098   0.263   1.887
  699TIP3   OH2 2102   6.125   5.042   3.866
  699TIP3    H1 2103   6.099   4.959   3.906
  699TIP3    H2 2104   6.221   5.036   3.858
  700TIP3   OH2 2105   0.903   0.155   0.438
  700TIP3    H1 2106   0.917   0.061   0.449
  700TIP3    H2 2107   0.843   0.179   0.509
  701TIP3   OH2 2108   3.184   1.702   1.469
  701TIP3    H1 2109   3.234   1.784   1.460
  701TIP3    H2 2110   3.251   1.635   1.482
  702TIP3   OH2 2111   3.444   4.547   2.630
  702TIP3    H1 2112   3.430   4.510   2.543
  702TIP3    H2 2113   3.538   4.559   2.637
  703TIP3   OH2 2114   4.009   1.256   2.749
  703TIP3    H1 2115   3.952   1.259   2.672
  703TIP3    H2 2116   4.031   1.347   2.766
  704TIP3   OH2 2117   6.144   1.069   1.139
  704TIP3    H1 2118   6.177   1.156   1.118
  704TIP3    H2 2119   6.062   1.062   1.091
  705TIP3   OH2 2120   0.691   0.271   1.166
  705TIP3    H1 2121   0.706   0.212   1.240
  705TIP3    H2 2122   0.723   0.356   1.195
  706TIP3   OH2 2123   2.864   3.956   0.996
  706TIP3    H1 2124   2.955   3.979   1.013
  706TIP3    H2 2125   2.842   3.891   1.063
  707TIP3   OH2 2126   4.508   1.052   1.094
  707TIP3    H1 2127   4.549   1.120   1.041
  707TIP3    H2 2128   4.580   1.006   1.136
  708TIP3   OH2 2129   1.818   2.093   4.183
  708TIP3    H1 2130   1.837   2.180   4.147
  708TIP3    H2 2131   1.812   2.036   4.106
  709TIP3   OH2 2132   3.379   5.554   4.005
  709TIP3    H1 2133   3.306   5.615   3.990
  709TIP3    H2 2134   3.341   5.484   4.057
  710TIP3   OH2 2135   6.223   3.586   0.120
  710TIP3    H1 2136   6.257   3.500   0.093
  710TIP3    H2 2137   6.134   3.567   0.152
  711TIP3   OH2 2138   4.626   1.538   0.637
  711TIP3    H1 2139   4.572   1.615   0.656
  711TIP3    H2 2140   4.713   1.561   0.668
  712TIP3   OH2 2141   0.084   5.819   0.543
  712TIP3    H1 2142   0.178   5.817   0.562
  712TIP3    H2 2143   0.043   5.790   0.625
  713TIP3   OH2 2144   0.228   3.926   4.864
  713TIP3    H1 2145   0.229   3.974   4.781
  713TIP3    H2 2146   0.231   3.834   4.839
  714TIP3   OH2 2147   1.549   3.301   3.712
  714TIP3    H1 2148   1.600   3.370   3.670
  714TIP3    H2 2149   1.613   3.233   3.732
  715TIP3   OH2 2150   6.031   1.446   2.720
  715TIP3    H1 2151   5.954   1.429   2.665
  715TIP3    H2 2152   6.004   1.423   2.808
  716TIP3   OH2 2153   2.859   4.700   4.326
  716TIP3    H1 2154   2.931   4.754   4.357
  716TIP3    H2 2155   2.878   4.613   4.361
  717TIP3   OH2 2156   3.031   5.851   0.490
  717TIP3    H1 2157   3.025   5.756   0.504
  717TIP3    H2 2158   3.084   5.883   0.563
  718TIP3   OH2 2159   6.113   5.804   4.485
  718TIP3    H1 2160   6.046   5.865   4.517
  718TIP3    H2 2161   6.088   5.786   4.394
  719TIP3   OH2 2162   4.153   2.231   3.304
  719TIP3    H1 2163   4.136   2.325   3.296
  719TIP3    H2 2164   4.147   2.214   3.398
  720TIP3   OH2 2165   5.407   5.339   3.366
  720TIP3    H1 2166   5.408   5.296   3.281
  720TIP3    H2 2167   5.331   5.301   3.411
  721TIP3   OH2 2168   6.054   2.582   4.128
  721TIP3    H1 2169   6.074   2.642   4.200
  721TIP3    H2 2170   6.010   2.636   4.063
  722TIP3   OH2 2171   1.911   4.881   1.954
  722TIP3    H1 2172   1.997   4.914   1.977
  722TIP3    H2 2173   1.926   4.789   1.929
  723TIP3   OH2 2174   4.385   2.483   1.492
  723TIP3    H1 2175   4.311   2.529   1.453
  723TIP3    H2 2176   4.366   2.390   1.479
  724TIP3   OH2 2177   2.616   4.695   1.158
  724TIP3    H1 2178   2.549   4.711   1.225
  724TIP3    H2 2179   2.566   4.683   1.077
  725TIP3   OH2 2180   0.692   0.611   4.752
  725TIP3    H1 2181   0.659   0.629   4.840
  725TIP3    H2 2182   0.620   0.566   4.708
  726TIP3   OH2 2183   5.133   2.107   0.552
  726TIP3    H1 2184   5.208   2.165   0.542
  726TIP3    H2 2185   5.119   2.101   0.646
  727TIP3   OH2 2186   5.085   4.800   0.280
  727TIP3    H1 2187   5.154   4.817   0.345
  727TIP3    H2 2188   5.132   4.787   0.198
  728TIP3   OH2 2189   3.678   5.604   3.196
  728TIP3    H1 2190   3.669   5.571   3.286
  728TIP3    H2 2191   3.681   5.525   3.142
  729TIP3   OH2 2192   4.064   2.971   5.108
  729TIP3    H1 2193   4.003   2.986   5.036
  729TIP3    H2 2194   4.150   2.967   5.067
  730TIP3   OH2 2195   1.541   0.087   3.937
  730TIP3    H1 2196   1.602   0.017   3.955
  730TIP3    H2 2197   1.595   0.160   3.906
  731TIP3   OH2 2198   6.207   1.424   3.699
  731TIP3    H1 2199   6.273   1.396   3.636
  731TIP3    H2 2200   6.124   1.416   3.653
  732TIP3   OH2 2201   1.667   0.891   4.418
  732TIP3    H1 2202   1.756   0.905   4.386
  732TIP3    H2 2203   1.627   0.978   4.414
  733TIP3   OH2 2204   6.015   3.535   2.567
  733TIP3    H1 2205   6.074   3.460   2.564
  733TIP3    H2 2206   5.928   3.499   2.548
  734TIP3   OH2 2207   3.655   2.512   0.306
  734TIP3    H1 2208   3.616   2.427   0.322
  734TIP3    H2 2209   3.690   2.506   0.217
  735TIP3   OH2 2210   0.734   2.175   3.065
  735TIP3    H1 2211   0.785   2.137   2.993
  735TIP3    H2 2212   0.729   2.269   3.043
  736TIP3   OH2 2213   5.225   1.059   3.220
  736TIP3    H1 2214   5.292   1.069   3.153
  736TIP3    H2 2215   5.222   1.144   3.264
  737TIP3   OH2 2216   4.845   1.388   3.894
  737TIP3    H1 2217   4.867   1.339   3.973
  737TIP3    H2 2218   4.751   1.405   3.901
  738TIP3   OH2 2219   4.836   0.998   3.571
  738TIP3    H1 2220   4.768   0.937   3.545
  738TIP3    H2 2221   4.900   0.995   3.499
  739TIP3   OH2 2222   5.621   0.959   3.145
  739TIP3    H1 2223   5.589   1.048   3.130
  739TIP3    H2 2224   5.598   0.940   3.236
  740TIP3   OH2 2225   2.422   2.023   4.848
  740TIP3    H1 2226   2.385   2.067   4.924
  740TIP3    H2 2227   2.429   1.931   4.874
  741TIP3   OH2 2228   2.872   1.928   0.064
  741TIP3    H1 2229   2.781   1.899   0.066
  741TIP3    H2 2230   2.879   1.990   0.137
  742TIP3   OH2 2231   3.096   3.928   2.844
  742TIP3    H1 2232   3.165   3.955   2.783
  742TIP3    H2 2233   3.143   3.912   2.927
  743TIP3   OH2 2234   0.430   1.551   1.381
  743TIP3    H1 2235   0.334   1.543   1.373
  743TIP3    H2 2236   0.458   1.466   1.414
  744TIP3   OH2 2237   6.287   3.339   4.814
  744TIP3    H1 2238   6.302   3.412   4.754
  744TIP3    H2 2239   6.350   3.273   4.788
  745TIP3   OH2 2240   3.729   1.816   4.627
  745TIP3    H1 2241   3.723   1.720   4.631
  745TIP3    H2 2242   3.789   1.833   4.555
  746TIP3   OH2 2243   4.562   3.898   0.932
  746TIP3    H1 2244   4.559   3.806   0.959
  746TIP3    H2 2245   4.592   3.895   0.841
  747TIP3   OH2 2246   2.450   5.396   1.750
  747TIP3    H1 2247   2.538   5.367   1.725
  747TIP3    H2 2248   2.454   5.491   1.744
  748TIP3   OH2 2249   2.271   0.014   1.685
  748TIP3    H1 2250   2.291  -0.022   1.599
  748TIP3    H2 2251   2.194   0.068   1.670
  749TIP3   OH2 2252   2.880   0.406   0.759
  749TIP3    H1 2253   2.796   0.361   0.759
  749TIP3    H2 2254   2.944   0.337   0.740
  750TIP3   OH2 2255   5.970   1.150   2.238
  750TIP3    H1 2256   6.052   1.106   2.214
  750TIP3    H2 2257   5.956   1.126   2.330
  751TIP3   OH2 2258   1.340   4.784   1.109
  751TIP3    H1 2259   1.425   4.743   1.122
  751TIP3    H2 2260   1.281   4.737   1.167
  752TIP3   OH2 2261   4.666   3.601   4.945
  752TIP3    H1 2262   4.700   3.655   5.016
  752TIP3    H2 2263   4.601   3.545   4.988
  753TIP3   OH2 2264   4.092   4.976   1.438
  753TIP3    H1 2265   4.116   5.000   1.527
  753TIP3    H2 2266   4.005   5.014   1.426
  754TIP3   OH2 2267   2.222   0.948   4.210
  754TIP3    H1 2268   2.158   0.957   4.281
  754TIP3    H2 2269   2.170   0.934   4.131
  755TIP3   OH2 2270   6.320   0.664   1.361
  755TIP3    H1 2271   6.338   0.734   1.423
  755TIP3    H2 2272   6.270   0.705   1.291
  756TIP3   OH2 2273   0.488   5.306   1.426
  756TIP3    H1 2274   0.540   5.270   1.498
  756TIP3    H2 2275   0.481   5.235   1.363
  757TIP3   OH2 2276   1.402   2.275   4.085
  757TIP3    H1 2277   1.339   2.330   4.038
  757TIP3    H2 2278   1.417   2.321   4.168
  758TIP3   OH2 2279   1.552   0.259   4.465
  758TIP3    H1 2280   1.467   0.230   4.430
  758TIP3    H2 2281   1.615   0.235   4.396
  759TIP3   OH2 2282   1.286   3.790   4.701
  759TIP3    H1 2283   1.316   3.760   4.787
  759TIP3    H2 2284   1.353   3.851   4.671
  760TIP3   OH2 2285   0.939   0.787   2.653
  760TIP3    H1 2286   1.017   0.840   2.636
  760TIP3    H2 2287   0.866   0.849   2.643
  761TIP3   OH2 2288   2.344   0.541   2.784
  761TIP3    H1 2289   2.412   0.578   2.728
  761TIP3    H2 2290   2.377   0.455   2.810
  762TIP3   OH2 2291   4.802   2.266   1.983
  762TIP3    H1 2292   4.862   2.280   2.057
  762TIP3    H2 2293   4.760   2.351   1.971
  763TIP3   OH2 2294   2.136   1.348   0.110
  763TIP3    H1 2295   2.157   1.336   0.203
  763TIP3    H2 2296   2.071   1.279   0.092
  764TIP3   OH2 2297   1.176   0.839   3.192
  764TIP3    H1 2298   1.251   0.882   3.233
  764TIP3    H2 2299   1.214   0.777   3.131
  765TIP3   OH2 2300   6.114  -0.003   4.892
  765TIP3    H1 2301   6.201   0.011   4.856
  765TIP3    H2 2302   6.117   0.040   4.978
  766TIP3   OH2 2303   4.462   5.683   2.576
  766TIP3    H1 2304   4.532   5.739   2.608
  766TIP3    H2 2305   4.413   5.738   2.514
  767TIP3   OH2 2306   4.232   1.922   1.400
  767TIP3    H1 2307   4.230   1.888   1.311
  767TIP3    H2 2308   4.241   1.844   1.455
  768TIP3   OH2 2309   4.190   6.007   2.069
  768TIP3    H1 2310   4.232   6.008   1.983
  768TIP3    H2 2311   4.262   6.006   2.132
  769TIP3   OH2 2312   3.981   3.612   3.264
  769TIP3    H1 2313   3.941   3.644   3.345
  769TIP3    H2 2314   4.057   3.670   3.251
  770TIP3   OH2 2315   3.645   0.428   0.931
  770TIP3    H1 2316   3.734   0.437   0.897
  770TIP3    H2 2317   3.607   0.516   0.924
  771TIP3   OH2 2318   4.255   5.944   3.615
  771TIP3    H1 2319   4.204   5.867   3.591
  771TIP3    H2 2320   4.191   6.005   3.651
  772TIP3   OH2 2321   2.502   3.170   1.724
  772TIP3    H1 2322   2.544   3.236   1.779
  772TIP3    H2 2323   2.410   3.196   1.723
  773TIP3   OH2 2324   5.996   3.190   1.116
  773TIP3    H1 2325   5.964   3.234   1.194
  773TIP3    H2 2326   6.090   3.181   1.130
  774TIP3   OH2 2327   1.731   1.998   4.846
  774TIP3    H1 2328   1.756   2.086   4.874
  774TIP3    H2 2329   1.773   1.940   4.909
  775TIP3   OH2 2330   3.610   5.857   2.008
  775TIP3    H1 2331   3.596   5.840   1.915
  775TIP3    H2 2332   3.641   5.773   2.043
  776TIP3   OH2 2333   1.318   0.825   1.927
  776TIP3    H1 2334   1.304   0.918   1.910
  776TIP3    H2 2335   1.386   0.799   1.865
  777TIP3   OH2 2336   1.859   4.809   5.002
  777TIP3    H1 2337   1.834   4.846   4.917
  777TIP3    H2 2338   1.794   4.844   5.063
  778TIP3   OH2 2339   1.527   5.458   0.051
  778TIP3    H1 2340   1.602   5.425   0.001
  778TIP3    H2 2341   1.484   5.380   0.084
  779TIP3   OH2 2342   4.181   3.925   2.411
  779TIP3    H1 2343   4.125   3.982   2.463
  779TIP3    H2 2344   4.255   3.905   2.469
  780TIP3   OH2 2345   4.483   5.552   0.062
  780TIP3    H1 2346   4.515   5.497  -0.010
  780TIP3    H2 2347   4.547   5.538   0.132
  781TIP3   OH2 2348   5.427   5.201   1.589
  781TIP3    H1 2349   5.459   5.256   1.661
  781TIP3    H2 2350   5.407   5.264   1.519
  782TIP3   OH2 2351   6.170   2.873   2.160
  782TIP3    H1 2352   6.104   2.926   2.205
  782TIP3    H2 2353   6.225   2.937   2.114
  783TIP3   OH2 2354   2.307   2.960   4.150
  783TIP3    H1 2355   2.272   3.036   4.197
  783TIP3    H2 2356   2.290   2.979   4.058
  784TIP3   OH2 2357   3.814   2.493   3.039
  784TIP3    H1 2358   3.833   2.572   2.990
  784TIP3    H2 2359   3.792   2.427   2.973
  785TIP3   OH2 2360   1.256   0.089   3.394
  785TIP3    H1 2361   1.340   0.045   3.409
  785TIP3    H2 2362   1.276   0.182   3.404
  786TIP3   OH2 2363   4.791   4.554   3.096
  786TIP3    H1 2364   4.751   4.467   3.091
  786TIP3    H2 2365   4.811   4.565   3.189
  787TIP3   OH2 2366   6.109   0.865   3.766
  787TIP3    H1 2367   6.154   0.919   3.701
  787TIP3    H2 2368   6.155   0.881   3.848
  788TIP3   OH2 2369   0.106   1.612   3.794
  788TIP3    H1 2370   0.071   1.582   3.710
  788TIP3    H2 2371   0.187   1.657   3.772
  789TIP3   OH2 2372   2.434   3.194   0.509
  789TIP3    H1 2373   2.378   3.122   0.540
  789TIP3    H2 2374   2.516   3.151   0.484
  790TIP3   OH2 2375   0.381   3.391   4.631
  790TIP3    H1 2376   0.325   3.389   4.553
  790TIP3    H2 2377   0.456   3.336   4.608
  791TIP3   OH2 2378   3.203   5.249   0.299
  791TIP3    H1 2379   3.198   5.235   0.204
  791TIP3    H2 2380   3.279   5.199   0.327
  792TIP3   OH2 2381   6.308   4.653   0.890
  792TIP3    H1 2382   6.343   4.721   0.833
  792TIP3    H2 2383   6.255   4.598   0.832
  793TIP3   OH2 2384   2.682   1.773   2.770
  793TIP3    H1 2385   2.673   1.793   2.863
  793TIP3    H2 2386   2.599   1.802   2.732
  794TIP3   OH2 2387   4.532   2.418   1.720
  794TIP3    H1 2388   4.483   2.473   1.659
  794TIP3    H2 2389   4.533   2.332   1.679
  795TIP3   OH2 2390   5.873   4.364   0.871
  795TIP3    H1 2391   5.786   4.388   0.840
  795TIP3    H2 2392   5.932   4.421   0.821
  796TIP3   OH2 2393   0.396   5.933   2.949
  796TIP3    H1 2394   0.394   5.969   3.038
  796TIP3    H2 2395   0.331   5.864   2.950
  797TIP3   OH2 2396   0.328   1.800   2.573
  797TIP3    H1 2397   0.235   1.821   2.563
  797TIP3    H2 2398   0.336   1.770   2.664
  798TIP3   OH2 2399   1.855   0.317   4.945
  798TIP3    H1 2400   1.826   0.361   4.866
  798TIP3    H2 2401   1.813   0.365   5.017
  799TIP3   OH2 2402   4.992   4.581   2.163
  799TIP3    H1 2403   4.956   4.514   2.222
  799TIP3    H2 2404   5.040   4.640   2.221
  800TIP3   OH2 2405   1.541   4.200   0.515
  800TIP3    H1 2406   1.550   4.274   0.454
  800TIP3    H2 2407   1.615   4.143   0.492
  801TIP3   OH2 2408   1.328   0.546   3.751
  801TIP3    H1 2409   1.342   0.533   3.845
  801TIP3    H2 2410   1.411   0.523   3.710
  802TIP3   OH2 2411   0.226   4.806   1.617
  802TIP3    H1 2412   0.269   4.732   1.660
  802TIP3    H2 2413   0.261   4.807   1.528
  803TIP3   OH2 2414   2.745   0.925   3.466
  803TIP3    H1 2415   2.796   0.978   3.403
  803TIP3    H2 2416   2.678   0.883   3.412
  804TIP3   OH2 2417   1.193   3.670   1.439
  804TIP3    H1 2418   1.186   3.699   1.348
  804TIP3    H2 2419   1.237   3.742   1.484
  805TIP3   OH2 2420   0.039   1.277   3.878
  805TIP3    H1 2421  -0.024   1.309   3.814
  805TIP3    H2 2422   0.051   1.351   3.938
  806TIP3   OH2 2423   0.139   0.399   1.246
  806TIP3    H1 2424   0.119   0.405   1.340
  806TIP3    H2 2425   0.082   0.465   1.206
  807TIP3   OH2 2426   4.709   0.432   3.533
  807TIP3    H1 2427   4.646   0.400   3.469
  807TIP3    H2 2428   4.759   0.354   3.559
  808TIP3   OH2 2429   5.786   0.006   1.616
  808TIP3    H1 2430   5.743   0.075   1.565
  808TIP3    H2 2431   5.724  -0.014   1.687
  809TIP3   OH2 2432   3.195   5.444   2.807
  809TIP3    H1 2433   3.260   5.505   2.842
  809TIP3    H2 2434   3.112   5.473   2.847
  810TIP3   OH2 2435   6.265   1.329   1.127
  810TIP3    H1 2436   6.287   1.342   1.034
  810TIP3    H2 2437   6.267   1.417   1.165
  811TIP3   OH2 2438   6.327   1.194   4.659
  811TIP3    H1 2439   6.272   1.181   4.582
  811TIP3    H2 2440   6.382   1.116   4.665
  812TIP3   OH2 2441   2.085   5.516   5.000
  812TIP3    H1 2442   2.021   5.586   5.011
  812TIP3    H2 2443   2.041   5.438   5.034
  813TIP3   OH2 2444   2.887   5.673   2.386
  813TIP3    H1 2445   2.916   5.585   2.410
  813TIP3    H2 2446   2.945   5.731   2.435
  814TIP3   OH2 2447   4.008   4.119   2.043
  814TIP3    H1 2448   4.021   4.061   1.968
  814TIP3    H2 2449   4.050   4.201   2.017
  815TIP3   OH2 2450   0.414   4.859   2.842
  815TIP3    H1 2451   0.363   4.779   2.835
  815TIP3    H2 2452   0.505   4.829   2.851
  816TIP3   OH2 2453   3.719   2.411   3.644
  816TIP3    H1 2454   3.688   2.426   3.733
  816TIP3    H2 2455   3.704   2.317   3.629
  817TIP3   OH2 2456   1.086   1.688   2.133
  817TIP3    H1 2457   1.099   1.687   2.228
  817TIP3    H2 2458   1.172   1.664   2.098
  818TIP3   OH2 2459   4.743   4.607   2.057
  818TIP3    H1 2460   4.825   4.641   2.094
  818TIP3    H2 2461   4.740   4.644   1.969
  819TIP3   OH2 2462   1.530   6.016   1.348
  819TIP3    H1 2463   1.582   6.095   1.361
  819TIP3    H2 2464   1.584   5.959   1.294
  820TIP3   OH2 2465   4.562   3.613   2.368
  820TIP3    H1 2466   4.637   3.659   2.406
  820TIP3    H2 2467   4.507   3.593   2.443
  821TIP3   OH2 2468   5.876   5.607   4.510
  821TIP3    H1 2469   5.784   5.619   4.485
  821TIP3    H2 2470   5.925   5.654   4.443
  822TIP3   OH2 2471   6.223   1.292   1.448
  822TIP3    H1 2472   6.289   1.352   1.483
  822TIP3    H2 2473   6.273   1.226   1.400
  823TIP3   OH2 2474   0.488   0.287   3.676
  823TIP3    H1 2475   0.565   0.297   3.619
  823TIP3    H2 2476   0.517   0.318   3.761
  824TIP3   OH2 2477   5.391   0.105   3.852
  824TIP3    H1 2478   5.390   0.196   3.882
  824TIP3    H2 2479   5.368   0.110   3.759
  825TIP3   OH2 2480   3.858   3.345   4.878
  825TIP3    H1 2481   3.934   3.295   4.908
  825TIP3    H2 2482   3.792   3.330   4.945
  826TIP3   OH2 2483   1.457   3.238   3.964
  826TIP3    H1 2484   1.421   3.150   3.952
  826TIP3    H2 2485   1.501   3.258   3.881
  827TIP3   OH2 2486   2.460   0.505   1.195
  827TIP3    H1 2487   2.474   0.493   1.101
  827TIP3    H2 2488   2.371   0.538   1.202
  828TIP3   OH2 2489   4.751   2.896   0.815
  828TIP3    H1 2490   4.740   2.928   0.725
  828TIP3    H2 2491   4.667   2.854   0.836
  829TIP3   OH2 2492   5.656   1.875   0.648
  829TIP3    H1 2493   5.591   1.862   0.578
  829TIP3    H2 2494   5.714   1.800   0.641
  830TIP3   OH2 2495   5.731   3.757   2.153
  830TIP3    H1 2496   5.806   3.732   2.099
  830TIP3    H2 2497   5.676   3.810   2.095
  831TIP3   OH2 2498   5.021   0.767   3.905
  831TIP3    H1 2499   5.050   0.687   3.950
  831TIP3    H2 2500   4.928   0.753   3.888
  832TIP3   OH2 2501   0.774   0.110   2.640
  832TIP3    H1 2502   0.827   0.091   2.562
  832TIP3    H2 2503   0.751   0.024   2.675
  833TIP3   OH2 2504   4.745   1.348   3.049
  833TIP3    H1 2505   4.775   1.339   3.139
  833TIP3    H2 2506   4.822   1.328   2.996
  834TIP3   OH2 2507   5.168   3.403   1.736
  834TIP3    H1 2508   5.185   3.365   1.822
  834TIP3    H2 2509   5.201   3.339   1.674
  835TIP3   OH2 2510   4.708   2.020   1.995
  835TIP3    H1 2511   4.623   2.019   1.951
  835TIP3    H2 2512   4.747   2.104   1.970
  836TIP3   OH2 2513   1.858   1.613   2.322
  836TIP3    H1 2514   1.923   1.583   2.259
  836TIP3    H2 2515   1.799   1.538   2.333
  837TIP3   OH2 2516   4.213   3.337   4.384
  837TIP3    H1 2517   4.165   3.259   4.412
  837TIP3    H2 2518   4.223   3.327   4.289
  838TIP3   OH2 2519   3.108   1.141   3.639
  838TIP3    H1 2520   3.099   1.046   3.628
  838TIP3    H2 2521   3.198   1.153   3.669
  839TIP3   OH2 2522   2.454   2.195   2.591
  839TIP3    H1 2523   2.452   2.152   2.676
  839TIP3    H2 2524   2.404   2.138   2.533
  840TIP3   OH2 2525   6.307   4.137   0.858
  840TIP3    H1 2526   6.384   4.104   0.904
  840TIP3    H2 2527   6.236   4.128   0.921
  841TIP3   OH2 2528   5.116   0.563   4.207
  841TIP3    H1 2529   5.067   0.635   4.247
  841TIP3    H2 2530   5.191   0.606   4.165
  842TIP3   OH2 2531   2.882   5.127   1.530
  842TIP3    H1 2532   2.870   5.039   1.493
  842TIP3    H2 2533   2.977   5.140   1.530
  843TIP3   OH2 2534   4.088   5.342   0.293
  843TIP3    H1 2535   4.120   5.430   0.313
  843TIP3    H2 2536   4.146   5.284   0.342
  844TIP3   OH2 2537   2.611   1.673   2.177
  844TIP3    H1 2538   2.552   1.686   2.103
  844TIP3    H2 2539   2.691   1.636   2.138
  845TIP3   OH2 2540   5.147   5.502   2.399
  845TIP3    H1 2541   5.128   5.408   2.402
  845TIP3    H2 2542   5.104   5.533   2.319
  846TIP3   OH2 2543   0.377   1.917   4.424
  846TIP3    H1 2544   0.458   1.865   4.419
  846TIP3    H2 2545   0.406   2.006   4.407
  847TIP3   OH2 2546   5.855   5.392   3.900
  847TIP3    H1 2547   5.791   5.325   3.923
  847TIP3    H2 2548   5.911   5.350   3.834
  848TIP3   OH2 2549   0.657   5.829   2.912
  848TIP3    H1 2550   0.702   5.903   2.953
  848TIP3    H2 2551   0.568   5.860   2.898
  849TIP3   OH2 2552   2.707   3.498   3.207
  849TIP3    H1 2553   2.635   3.438   3.225
  849TIP3    H2 2554   2.752   3.508   3.291
  850TIP3   OH2 2555   2.706   0.275   1.140
  850TIP3    H1 2556   2.661   0.256   1.222
  850TIP3    H2 2557   2.692   0.197   1.086
  851TIP3   OH2 2558   0.161   5.262   0.802
  851TIP3    H1 2559   0.102   5.212   0.858
  851TIP3    H2 2560   0.248   5.232   0.826
  852TIP3   OH2 2561   3.221   5.748   5.022
  852TIP3    H1 2562   3.179   5.832   5.005
  852TIP3    H2 2563   3.278   5.734   4.946
  853TIP3   OH2 2564   2.786   5.763   0.823
  853TIP3    H1 2565   2.867   5.711   0.820
  853TIP3    H2 2566   2.737   5.726   0.896
  854TIP3   OH2 2567   3.289   4.111   1.428
  854TIP3    H1 2568   3.199   4.079   1.432
  854TIP3    H2 2569   3.281   4.206   1.434
  855TIP3   OH2 2570   4.037   1.487   4.867
  855TIP3    H1 2571   3.969   1.443   4.918
  855TIP3    H2 2572   4.070   1.418   4.808
  856TIP3   OH2 2573   1.014   3.927   3.916
  856TIP3    H1 2574   1.019   3.832   3.928
  856TIP3    H2 2575   1.095   3.960   3.954
  857TIP3   OH2 2576   2.104   3.754   0.123
  857TIP3    H1 2577   2.065   3.676   0.161
  857TIP3    H2 2578   2.131   3.728   0.035
  858TIP3   OH2 2579   3.513   1.890   2.382
  858TIP3    H1 2580   3.574   1.819   2.362
  858TIP3    H2 2581   3.435   1.871   2.330
  859TIP3   OH2 2582   1.451   1.945   0.904
  859TIP3    H1 2583   1.438   1.865   0.853
  859TIP3    H2 2584   1.433   1.919   0.995
  860TIP3   OH2 2585   5.097   4.043   1.402
  860TIP3    H1 2586   5.168   4.008   1.455
  860TIP3    H2 2587   5.046   4.098   1.462
  861TIP3   OH2 2588   3.523   2.722   0.703
  861TIP3    H1 2589   3.601   2.746   0.753
  861TIP3    H2 2590   3.504   2.799   0.649
  862TIP3   OH2 2591   0.482   0.551   4.559
  862TIP3    H1 2592   0.446   0.468   4.592
  862TIP3    H2 2593   0.498   0.534   4.466
  863TIP3   OH2 2594   4.684   1.329   1.482
  863TIP3    H1 2595   4.599   1.370   1.468
  863TIP3    H2 2596   4.728   1.334   1.397
  864TIP3   OH2 2597   4.896   1.817   0.562
  864TIP3    H1 2598   4.949   1.797   0.485
  864TIP3    H2 2599   4.891   1.735   0.611
  865TIP3   OH2 2600   4.736   3.189   4.066
  865TIP3    H1 2601   4.715   3.167   3.976
  865TIP3    H2 2602   4.672   3.256   4.091
  866TIP3   OH2 2603   1.965   5.698   2.351
  866TIP3    H1 2604   1.934   5.781   2.315
  866TIP3    H2 2605   2.006   5.654   2.278
  867TIP3   OH2 2606   3.277   0.383   4.196
  867TIP3    H1 2607   3.236   0.441   4.260
  867TIP3    H2 2608   3.227   0.396   4.116
  868TIP3   OH2 2609   5.624   0.273   0.499
  868TIP3    H1 2610   5.644   0.319   0.580
  868TIP3    H2 2611   5.709   0.250   0.462
  869TIP3   OH2 2612   4.869   3.781   0.348
  869TIP3    H1 2613   4.811   3.794   0.423
  869TIP3    H2 2614   4.944   3.838   0.366
  870TIP3   OH2 2615   4.357   2.511   3.530
  870TIP3    H1 2616   4.402   2.594   3.513
  870TIP3    H2 2617   4.308   2.494   3.449
  871TIP3   OH2 2618   4.508   3.429   5.100
  871TIP3    H1 2619   4.436   3.365   5.093
  871TIP3    H2 2620   4.471   3.501   5.151
  872TIP3   OH2 2621   3.547   3.423   1.227
  872TIP3    H1 2622   3.502   3.383   1.301
  872TIP3    H2 2623   3.502   3.390   1.150
  873TIP3   OH2 2624   0.568   4.435   0.652
  873TIP3    H1 2625   0.609   4.448   0.737
  873TIP3    H2 2626   0.562   4.523   0.614
  874TIP3   OH2 2627   4.605   3.598   2.764
  874TIP3    H1 2628   4.631   3.690   2.775
  874TIP3    H2 2629   4.510   3.599   2.776
  875TIP3   OH2 2630   2.742   1.860   4.036
  875TIP3    H1 2631   2.713   1.896   4.120
  875TIP3    H2 2632   2.831   1.828   4.054
  876TIP3   OH2 2633   2.911   2.579   0.774
  876TIP3    H1 2634   2.926   2.517   0.702
  876TIP3    H2 2635   2.999   2.602   0.804
  877TIP3   OH2 2636   2.136   3.993   2.567
  877TIP3    H1 2637   2.127   3.916   2.622
  877TIP3    H2 2638   2.195   4.051   2.616
  878TIP3   OH2 2639   5.502   5.165   0.950
  878TIP3    H1 2640   5.427   5.107   0.963
  878TIP3    H2 2641   5.465   5.246   0.917
  879TIP3   OH2 2642   1.744   5.325   1.554
  879TIP3    H1 2643   1.762   5.371   1.472
  879TIP3    H2 2644   1.694   5.247   1.528
  880TIP3   OH2 2645   2.629   5.015   3.619
  880TIP3    H1 2646   2.581   5.046   3.696
  880TIP3    H2 2647   2.713   4.985   3.654
  881TIP3   OH2 2648   3.590   5.975   5.042
  881TIP3    H1 2649   3.658   6.002   5.103
  881TIP3    H2 2650   3.570   5.884   5.067
  882TIP3   OH2 2651   2.230   2.211   0.903
  882TIP3    H1 2652   2.150   2.254   0.931
  882TIP3    H2 2653   2.279   2.279   0.856
  883TIP3   OH2 2654   2.540   0.587   3.796
  883TIP3    H1 2655   2.574   0.588   3.706
  883TIP3    H2 2656   2.514   0.496   3.811
  884TIP3   OH2 2657   0.285   3.175   3.027
  884TIP3    H1 2658   0.306   3.267   3.043
  884TIP3    H2 2659   0.319   3.128   3.104
  885TIP3   OH2 2660   1.295   0.505   2.011
  885TIP3    H1 2661   1.389   0.521   2.002
  885TIP3    H2 2662   1.256   0.551   1.937
  886TIP3   OH2 2663   1.142   2.562   2.389
  886TIP3    H1 2664   1.102   2.491   2.338
  886TIP3    H2 2665   1.147   2.635   2.328
  887TIP3   OH2 2666   4.896   3.993   3.530
  887TIP3    H1 2667   4.978   4.008   3.484
  887TIP3    H2 2668   4.902   4.048   3.609
  888TIP3   OH2 2669   1.989   3.302   3.305
  888TIP3    H1 2670   1.961   3.271   3.219
  888TIP3    H2 2671   2.007   3.221   3.354
  889TIP3   OH2 2672   3.112   4.449   3.527
  889TIP3    H1 2673   3.110   4.521   3.464
  889TIP3    H2 2674   3.184   4.393   3.498
  890TIP3   OH2 2675   1.774   3.866   0.712
  890TIP3    H1 2676   1.857   3.825   0.737
  890TIP3    H2 2677   1.709   3.824   0.768
  891TIP3   OH2 2678   1.327   3.395   3.532
  891TIP3    H1 2679   1.406   3.393   3.586
  891TIP3    H2 2680   1.273   3.324   3.567
  892TIP3   OH2 2681   2.686   1.694   3.064
  892TIP3    H1 2682   2.635   1.620   3.096
  892TIP3    H2 2683   2.695   1.752   3.139
  893TIP3   OH2 2684   1.234   1.043   3.390
  893TIP3    H1 2685   1.328   1.059   3.392
  893TIP3    H2 2686   1.206   1.055   3.481
  894TIP3   OH2 2687   0.326   3.664   3.110
  894TIP3    H1 2688   0.368   3.739   3.153
  894TIP3    H2 2689   0.388   3.638   3.042
  895TIP3   OH2 2690   5.131   4.506   0.461
  895TIP3    H1 2691   5.040   4.521   0.438
  895TIP3    H2 2692   5.154   4.579   0.518
  896TIP3   OH2 2693   2.253   0.229   2.788
  896TIP3    H1 2694   2.212   0.154   2.832
  896TIP3    H2 2695   2.342   0.198   2.768
  897TIP3   OH2 2696   0.644   0.227   4.353
  897TIP3    H1 2697   0.625   0.146   4.307
  897TIP3    H2 2698   0.732   0.251   4.324
  898TIP3   OH2 2699   3.418   1.724   1.110
  898TIP3    H1 2700   3.385   1.664   1.042
  898TIP3    H2 2701   3.354   1.717   1.181
  899TIP3   OH2 2702   5.277   1.506   4.909
  899TIP3    H1 2703   5.242   1.589   4.941
  899TIP3    H2 2704   5.325   1.469   4.983
  900TIP3   OH2 2705   1.807   3.491   3.211
  900TIP3    H1 2706   1.862   3.483   3.134
  900TIP3    H2 2707   1.842   3.427   3.273
  901TIP3   OH2 2708   0.666   0.564   1.024
  901TIP3    H1 2709   0.654   0.659   1.023
  901TIP3    H2 2710   0.704   0.546   1.111
  902TIP3   OH2 2711   4.431   1.358   1.110
  902TIP3    H1 2712   4.350   1.335   1.065
  902TIP3    H2 2713   4.500   1.318   1.058
  903TIP3   OH2 2714   0.872   0.451   4.030
  903TIP3    H1 2715   0.961   0.426   4.057
  903TIP3    H2 2716   0.883   0.482   3.940
  904TIP3   OH2 2717   4.430   2.135   0.378
  904TIP3    H1 2718   4.336   2.151   0.368
  904TIP3    H2 2719   4.444   2.049   0.339
  905TIP3   OH2 2720   5.599   4.740   4.113
  905TIP3    H1 2721   5.628   4.817   4.161
  905TIP3    H2 2722   5.635   4.666   4.162
  906TIP3   OH2 2723   6.225   5.755   3.097
  906TIP3    H1 2724   6.148   5.800   3.062
  906TIP3    H2 2725   6.259   5.814   3.164
  907TIP3   OH2 2726   6.075   0.473   4.546
  907TIP3    H1 2727   6.045   0.422   4.621
  907TIP3    H2 2728   6.129   0.542   4.584
  908TIP3   OH2 2729   2.797   2.799   4.025
  908TIP3    H1 2730   2.770   2.853   3.950
  908TIP3    H2 2731   2.867   2.744   3.992
  909TIP3   OH2 2732   3.085   2.519   3.564
  909TIP3    H1 2733   3.121   2.494   3.479
  909TIP3    H2 2734   3.134   2.597   3.589
  910TIP3   OH2 2735   3.923   3.398   1.127
  910TIP3    H1 2736   3.920   3.327   1.063
  910TIP3    H2 2737   3.983   3.367   1.194
  911TIP3   OH2 2738   0.327   3.159   4.370
  911TIP3    H1 2739   0.253   3.125   4.420
  911TIP3    H2 2740   0.400   3.101   4.393
  912TIP3   OH2 2741   2.514   0.299   3.553
  912TIP3    H1 2742   2.605   0.276   3.573
  912TIP3    H2 2743   2.468   0.216   3.557
  913TIP3   OH2 2744   4.838   0.721   0.714
  913TIP3    H1 2745   4.749   0.700   0.684
  913TIP3    H2 2746   4.895   0.677   0.651
  914TIP3   OH2 2747   5.174   0.749   2.734
  914TIP3    H1 2748   5.182   0.844   2.734
  914TIP3    H2 2749   5.225   0.721   2.658
  915TIP3   OH2 2750   3.561   4.387   3.786
  915TIP3    H1 2751   3.596   4.299   3.774
  915TIP3    H2 2752   3.557   4.399   3.881
  916TIP3   OH2 2753   3.618   4.222   1.178
  916TIP3    H1 2754   3.659   4.265   1.253
  916TIP3    H2 2755   3.530   4.259   1.175
  917TIP3   OH2 2756   0.641   3.800   4.827
  917TIP3    H1 2757   0.632   3.881   4.777
  917TIP3    H2 2758   0.597   3.734   4.773
  918TIP3   OH2 2759   0.425   3.644   1.563
  918TIP3    H1 2760   0.462   3.651   1.475
  918TIP3    H2 2761   0.341   3.689   1.557
  919TIP3   OH2 2762   2.093   0.266   0.623
  919TIP3    H1 2763   2.042   0.194   0.658
  919TIP3    H2 2764   2.167   0.224   0.579
  920TIP3   OH2 2765   4.841   3.276   1.060
  920TIP3    H1 2766   4.907   3.211   1.082
  920TIP3    H2 2767   4.810   3.251   0.973
  921TIP3   OH2 2768   3.209   4.661   4.578
  921TIP3    H1 2769   3.245   4.668   4.666
  921TIP3    H2 2770   3.136   4.724   4.576
  922TIP3   OH2 2771   4.210   5.403   4.111
  922TIP3    H1 2772   4.279   5.350   4.150
  922TIP3    H2 2773   4.153   5.426   4.185
  923TIP3   OH2 2774   5.356   1.222   0.382
  923TIP3    H1 2775   5.433   1.173   0.353
  923TIP3    H2 2776   5.302   1.231   0.304
  924TIP3   OH2 2777   2.828   2.495   3.621
  924TIP3    H1 2778   2.918   2.504   3.589
  924TIP3    H2 2779   2.838   2.471   3.713
  925TIP3   OH2 2780   0.831   2.470   1.998
  925TIP3    H1 2781   0.919   2.470   1.961
  925TIP3    H2 2782   0.773   2.464   1.922
  926TIP3   OH2 2783   4.950   3.721   4.587
  926TIP3    H1 2784   4.948   3.736   4.493
  926TIP3    H2 2785   4.924   3.805   4.625
  927TIP3   OH2 2786   3.454   0.734   2.636
  927TIP3    H1 2787   3.415   0.744   2.723
  927TIP3    H2 2788   3.439   0.643   2.613
  928TIP3   OH2 2789   5.543   2.925   4.372
  928TIP3    H1 2790   5.523   2.950   4.462
  928TIP3    H2 2791   5.637   2.906   4.373
  929TIP3   OH2 2792   1.400   1.127   0.980
  929TIP3    H1 2793   1.425   1.127   1.073
  929TIP3    H2 2794   1.318   1.079   0.977
  930TIP3   OH2 2795   3.937   3.947   1.216
  930TIP3    H1 2796   3.923   3.860   1.178
  930TIP3    H2 2797   3.885   4.006   1.161
  931TIP3   OH2 2798   1.808   0.315   1.222
  931TIP3    H1 2799   1.804   0.339   1.315
  931TIP3    H2 2800   1.869   0.242   1.218
  932TIP3   OH2 2801   5.899   4.236   4.483
  932TIP3    H1 2802   5.961   4.307   4.502
  932TIP3    H2 2803   5.831   4.245   4.549
  933TIP3   OH2 2804   4.958   5.751   1.090
  933TIP3    H1 2805   4.924   5.838   1.068
  933TIP3    H2 2806   5.048   5.767   1.117
  934TIP3   OH2 2807   2.420   2.037   0.794
  934TIP3    H1 2808   2.451   1.962   0.844
  934TIP3    H2 2809   2.354   2.078   0.849
  935TIP3   OH2 2810   4.357   4.973   1.642
  935TIP3    H1 2811   4.320   5.039   1.701
  935TIP3    H2 2812   4.366   5.018   1.558
  936TIP3   OH2 2813   4.257   2.544   2.773
  936TIP3    H1 2814   4.291   2.483   2.708
  936TIP3    H2 2815   4.162   2.535   2.768
  937TIP3   OH2 2816   1.942   4.505   4.678
  937TIP3    H1 2817   2.017   4.565   4.674
  937TIP3    H2 2818   1.921   4.501   4.771
  938TIP3   OH2 2819   0.795   5.480   1.170
  938TIP3    H1 2820   0.823   5.529   1.248
  938TIP3    H2 2821   0.876   5.460   1.124
  939TIP3   OH2 2822   6.240   2.551   2.751
  939TIP3    H1 2823   6.216   2.642   2.766
  939TIP3    H2 2824   6.261   2.517   2.838
  940TIP3   OH2 2825   5.191   0.378   2.726
  940TIP3    H1 2826   5.241   0.422   2.657
  940TIP3    H2 2827   5.104   0.365   2.688
  941TIP3   OH2 2828   1.561   0.876   3.923
  941TIP3    H1 2829   1.523   0.899   3.838
  941TIP3    H2 2830   1.485   0.864   3.980
  942TIP3   OH2 2831   1.918   0.275   4.134
  942TIP3    H1 2832   1.869   0.294   4.054
  942TIP3    H2 2833   1.991   0.221   4.104
  943TIP3   OH2 2834   2.923   1.774   2.953
  943TIP3    H1 2835   2.834   1.744   2.973
  943TIP3    H2 2836   2.972   1.695   2.931
  944TIP3   OH2 2837   1.548   1.246   0.081
  944TIP3    H1 2838   1.533   1.322   0.025
  944TIP3    H2 2839   1.461   1.225   0.117
  945TIP3   OH2 2840   1.119   3.212   4.337
  945TIP3    H1 2841   1.099   3.278   4.270
  945TIP3    H2 2842   1.187   3.253   4.391
  946TIP3   OH2 2843   0.014   4.405   3.972
  946TIP3    H1 2844   0.055   4.372   3.892
  946TIP3    H2 2845   0.081   4.461   4.011
  947TIP3   OH2 2846   2.928   0.000   3.903
  947TIP3    H1 2847   2.927   0.001   3.807
  947TIP3    H2 2848   3.018   0.023   3.926
  948TIP3   OH2 2849   0.209   5.684   3.673
  948TIP3    H1 2850   0.262   5.740   3.730
  948TIP3    H2 2851   0.244   5.596   3.686
  949TIP3   OH2 2852   4.096   2.559   1.438
  949TIP3    H1 2853   4.090   2.521   1.526
  949TIP3    H2 2854   4.107   2.653   1.453
  950TIP3   OH2 2855   4.941   0.255   2.154
  950TIP3    H1 2856   4.927   0.348   2.171
  950TIP3    H2 2857   4.985   0.223   2.233
  951TIP3   OH2 2858   2.846   3.505   1.063
  951TIP3    H1 2859   2.771   3.519   1.006
  951TIP3    H2 2860   2.919   3.485   1.004
  952TIP3   OH2 2861   0.882   5.196   2.286
  952TIP3    H1 2862   0.857   5.162   2.371
  952TIP3    H2 2863   0.897   5.289   2.300
  953TIP3   OH2 2864   2.887   4.360   4.948
  953TIP3    H1 2865   2.843   4.301   4.887
  953TIP3    H2 2866   2.819   4.389   5.008
  954TIP3   OH2 2867   3.747   3.339   3.271
  954TIP3    H1 2868   3.699   3.398   3.329
  954TIP3    H2 2869   3.808   3.395   3.224
  955TIP3   OH2 2870   6.244   4.267   0.630
  955TIP3    H1 2871   6.153   4.238   0.619
  955TIP3    H2 2872   6.277   4.215   0.703
  956TIP3   OH2 2873   1.937   2.110   0.609
  956TIP3    H1 2874   1.906   2.019   0.602
  956TIP3    H2 2875   1.921   2.132   0.701
  957TIP3   OH2 2876   2.154   5.885   2.984
  957TIP3    H1 2877   2.208   5.809   3.009
  957TIP3    H2 2878   2.197   5.959   3.026
  958TIP3   OH2 2879   4.848   2.981   3.787
  958TIP3    H1 2880   4.852   2.885   3.793
  958TIP3    H2 2881   4.809   3.008   3.871
  959TIP3   OH2 2882   5.613   0.338   4.104
  959TIP3    H1 2883   5.694   0.307   4.062
  959TIP3    H2 2884   5.599   0.278   4.176
  960TIP3   OH2 2885   6.341   2.356   0.303
  960TIP3    H1 2886   6.279   2.291   0.338
  960TIP3    H2 2887   6.328   2.433   0.358
  961TIP3   OH2 2888   1.539   5.519   2.605
  961TIP3    H1 2889   1.555   5.606   2.641
  961TIP3    H2 2890   1.596   5.513   2.529
  962TIP3   OH2 2891   5.362   1.570   0.265
  962TIP3    H1 2892   5.371   1.535   0.176
  962TIP3    H2 2893   5.345   1.493   0.319
  963TIP3   OH2 2894   5.463   3.094   0.993
  963TIP3    H1 2895   5.493   3.155   1.060
  963TIP3    H2 2896   5.379   3.130   0.964
  964TIP3   OH2 2897   2.991   4.582   4.818
  964TIP3    H1 2898   2.996   4.559   4.725
  964TIP3    H2 2899   2.941   4.511   4.858
  965TIP3   OH2 2900   2.726   4.740   3.383
  965TIP3    H1 2901   2.752   4.691   3.461
  965TIP3    H2 2902   2.808   4.772   3.346
  966TIP3   OH2 2903   5.428   5.044   2.315
  966TIP3    H1 2904   5.421   5.123   2.369
  966TIP3    H2 2905   5.391   4.974   2.369
  967TIP3   OH2 2906   4.228   0.272   4.312
  967TIP3    H1 2907   4.170   0.291   4.239
  967TIP3    H2 2908   4.267   0.187   4.290
  968TIP3   OH2 2909   0.393   0.820   4.002
  968TIP3    H1 2910   0.451   0.870   4.060
  968TIP3    H2 2911   0.349   0.758   4.060
  969TIP3   OH2 2912   3.572   3.200   4.514
  969TIP3    H1 2913   3.646   3.251   4.547
  969TIP3    H2 2914   3.559   3.132   4.580
  970TIP3   OH2 2915   6.176   0.397   3.789
  970TIP3    H1 2916   6.173   0.393   3.694
  970TIP3    H2 2917   6.096   0.444   3.814
  971TIP3   OH2 2918   3.108   1.193   4.226
  971TIP3    H1 2919   3.071   1.231   4.146
  971TIP3    H2 2920   3.186   1.247   4.243
  972TIP3   OH2 2921   2.942   2.566   0.482
  972TIP3    H1 2922   2.877   2.633   0.506
  972TIP3    H2 2923   3.025   2.613   0.478
  973TIP3   OH2 2924   5.792   5.170   2.077
  973TIP3    H1 2925   5.847   5.148   2.152
  973TIP3    H2 2926   5.841   5.139   2.001
  974TIP3   OH2 2927   4.546   1.706   2.320
  974TIP3    H1 2928   4.469   1.677   2.369
  974TIP3    H2 2929   4.563   1.795   2.351
  975TIP3   OH2 2930   3.343   2.160   1.967
  975TIP3    H1 2931   3.431   2.128   1.946
  975TIP3    H2 2932   3.288   2.082   1.962
  976TIP3   OH2 2933   4.511   2.400   2.654
  976TIP3    H1 2934   4.510   2.326   2.593
  976TIP3    H2 2935   4.596   2.442   2.638
  977TIP3   OH2 2936   0.188   1.507   4.582
  977TIP3    H1 2937   0.155   1.560   4.509
  977TIP3    H2 2938   0.189   1.568   4.656
  978TIP3   OH2 2939   4.585   5.793   2.882
  978TIP3    H1 2940   4.493   5.818   2.891
  978TIP3    H2 2941   4.595   5.717   2.940
  979TIP3   OH2 2942   5.699   0.211   0.940
  979TIP3    H1 2943   5.634   0.170   0.997
  979TIP3    H2 2944   5.780   0.165   0.959
  980TIP3   OH2 2945   4.091   2.637   4.269
  980TIP3    H1 2946   4.093   2.594   4.355
  980TIP3    H2 2947   4.000   2.664   4.258
  981TIP3   OH2 2948   2.265   0.662   1.536
  981TIP3    H1 2949   2.315   0.666   1.455
  981TIP3    H2 2950   2.274   0.749   1.575
  982TIP3   OH2 2951   0.743   3.357   1.715
  982TIP3    H1 2952   0.728   3.267   1.684
  982TIP3    H2 2953   0.759   3.407   1.636
  983TIP3   OH2 2954   0.616   5.285   4.252
  983TIP3    H1 2955   0.643   5.367   4.293
  983TIP3    H2 2956   0.679   5.272   4.181
  984TIP3   OH2 2957   1.005   1.922   2.396
  984TIP3    H1 2958   1.089   1.884   2.420
  984TIP3    H2 2959   1.028   1.998   2.342
  985TIP3   OH2 2960   0.501   2.189   4.320
  985TIP3    H1 2961   0.458   2.237   4.391
  985TIP3    H2 2962   0.438   2.191   4.248
  986TIP3   OH2 2963   6.073   0.422   1.050
  986TIP3    H1 2964   5.999   0.481   1.037
  986TIP3    H2 2965   6.148   0.468   1.013
  987TIP3   OH2 2966   1.485   4.122   4.249
  987TIP3    H1 2967   1.444   4.141   4.334
  987TIP3    H2 2968   1.576   4.102   4.271
  988TIP3   OH2 2969   2.912   5.907   2.143
  988TIP3    H1 2970   2.876   5.946   2.223
  988TIP3    H2 2971   2.839   5.906   2.081
  989TIP3   OH2 2972   3.232   5.183   2.414
  989TIP3    H1 2973   3.255   5.249   2.480
  989TIP3    H2 2974   3.206   5.106   2.465
  990TIP3   OH2 2975   1.483   5.512   1.632
  990TIP3    H1 2976   1.410   5.472   1.585
  990TIP3    H2 2977   1.537   5.553   1.564
  991TIP3   OH2 2978   6.274   5.745   1.300
  991TIP3    H1 2979   6.331   5.818   1.323
  991TIP3    H2 2980   6.191   5.765   1.344
  992TIP3   OH2 2981   2.483   5.153   1.942
  992TIP3    H1 2982   2.448   5.217   2.003
  992TIP3    H2 2983   2.407   5.102   1.914
  993TIP3   OH2 2984   4.324   4.041   2.199
  993TIP3    H1 2985   4.277   4.010   2.277
  993TIP3    H2 2986   4.393   3.976   2.186
  994TIP3   OH2 2987   4.539   5.644   0.756
  994TIP3    H1 2988   4.548   5.670   0.847
  994TIP3    H2 2989   4.480   5.709   0.718
  995TIP3   OH2 2990   5.431   4.039   1.189
  995TIP3    H1 2991   5.474   4.122   1.208
  995TIP3    H2 2992   5.337   4.060   1.189
  996TIP3   OH2 2993   2.010   2.401   0.209
  996TIP3    H1 2994   1.972   2.455   0.139
  996TIP3    H2 2995   2.095   2.441   0.226
  997TIP3   OH2 2996   4.868   3.230   4.757
  997TIP3    H1 2997   4.881   3.320   4.726
  997TIP3    H2 2998   4.929   3.223   4.831
  998TIP3   OH2 2999   2.951   1.078   3.883
  998TIP3    H1 3000   2.958   1.122   3.799
  998TIP3    H2 3001   3.040   1.081   3.920
  999TIP3   OH2 3002   0.647   4.661   0.299
  999TIP3    H1 3003   0.556   4.635   0.313
  999TIP3    H2 3004   0.670   4.710   0.377
 1000TIP3   OH2 3005   1.740   2.424   3.198
 1000TIP3    H1 3006   1.761   2.335   3.226
 1000TIP3    H2 3007   1.688   2.412   3.118
 1001TIP3   OH2 3008   1.333   0.859   4.118
 1001TIP3    H1 3009   1.251   0.838   4.072
 1001TIP3    H2 3010   1.335   0.799   4.192
 1002TIP3   OH2 3011   1.680   1.734   1.140
 1002TIP3    H1 3012   1.636   1.665   1.090
 1002TIP3    H2 3013   1.744   1.770   1.078
 1003TIP3   OH2 3014   5.960   5.190   3.701
 1003TIP3    H1 3015   6.001   5.142   3.773
 1003TIP3    H2 3016   6.027   5.196   3.634
 1004TIP3   OH2 3017   1.704   5.219   0.373
 1004TIP3    H1 3018   1.657   5.146   0.414
 1004TIP3    H2 3019   1.725   5.189   0.285
 1005TIP3   OH2 3020   3.675   2.531   3.272
 1005TIP3    H1 3021   3.656   2.617   3.235
 1005TIP3    H2 3022   3.747   2.497   3.218
 1006TIP3   OH2 3023   0.626   5.548   1.403
 1006TIP3    H1 3024   0.607   5.457   1.381
 1006TIP3    H2 3025   0.721   5.550   1.418
 1007TIP3   OH2 3026   2.105   0.670   2.665
 1007TIP3    H1 3027   2.173   0.638   2.723
 1007TIP3    H2 3028   2.031   0.688   2.722
 1008TIP3   OH2 3029   3.140   3.697   1.336
 1008TIP3    H1 3030   3.174   3.636   1.402
 1008TIP3    H2 3031   3.156   3.653   1.252
 1009TIP3   OH2 3032   3.853   4.110   0.520
 1009TIP3    H1 3033   3.805   4.192   0.516
 1009TIP3    H2 3034   3.835   4.067   0.436
 1010TIP3   OH2 3035   0.091   5.966   2.105
 1010TIP3    H1 3036   0.122   5.997   2.190
 1010TIP3    H2 3037   0.105   5.871   2.108
 1011TIP3   OH2 3038   3.155   4.861   4.094
 1011TIP3    H1 3039   3.067   4.863   4.131
 1011TIP3    H2 3040   3.207   4.917   4.151
 1012TIP3   OH2 3041   0.957   2.305   3.362
 1012TIP3    H1 3042   0.960   2.261   3.277
 1012TIP3    H2 3043   0.899   2.380   3.349
 1013TIP3   OH2 3044   4.636   2.093   1.171
 1013TIP3    H1 3045   4.691   2.128   1.101
 1013TIP3    H2 3046   4.669   2.004   1.185
 1014TIP3   OH2 3047   3.254   2.341   0.370
 1014TIP3    H1 3048   3.191   2.285   0.417
 1014TIP3    H2 3049   3.255   2.422   0.421
 1015TIP3   OH2 3050   5.631   3.787   3.524
 1015TIP3    H1 3051   5.634   3.860   3.585
 1015TIP3    H2 3052   5.682   3.718   3.567
 1016TIP3   OH2 3053   3.872   4.989   4.153
 1016TIP3    H1 3054   3.822   5.039   4.088
 1016TIP3    H2 3055   3.808   4.929   4.191
 1017TIP3   OH2 3056   6.020   0.613   3.657
 1017TIP3    H1 3057   5.940   0.616   3.708
 1017TIP3    H2 3058   6.066   0.693   3.680
 1018TIP3   OH2 3059   5.480   4.325   1.171
 1018TIP3    H1 3060   5.432   4.386   1.227
 1018TIP3    H2 3061   5.448   4.344   1.082
 1019TIP3   OH2 3062   4.746   5.251   4.376
 1019TIP3    H1 3063   4.689   5.308   4.427
 1019TIP3    H2 3064   4.808   5.215   4.440
 1020TIP3   OH2 3065   5.679   5.394   3.512
 1020TIP3    H1 3066   5.706   5.471   3.462
 1020TIP3    H2 3067   5.657   5.329   3.445
 1021TIP3   OH2 3068   3.548   5.208   4.855
 1021TIP3    H1 3069   3.572   5.300   4.854
 1021TIP3    H2 3070   3.559   5.181   4.946
 1022TIP3   OH2 3071   2.168   2.907   2.331
 1022TIP3    H1 3072   2.226   2.881   2.260
 1022TIP3    H2 3073   2.090   2.940   2.287
 1023TIP3   OH2 3074   1.303   3.691   3.452
 1023TIP3    H1 3075   1.329   3.620   3.511
 1023TIP3    H2 3076   1.283   3.647   3.369
 1024TIP3   OH2 3077   0.047   1.477   2.531
 1024TIP3    H1 3078   0.111   1.444   2.469
 1024TIP3    H2 3079   0.044   1.410   2.600
 1025TIP3   OH2 3080   4.342   1.029   5.131
 1025TIP3    H1 3081   4.268   1.073   5.090
 1025TIP3    H2 3082   4.308   0.995   5.213
 1026TIP3   OH2 3083   3.803   2.634   4.627
 1026TIP3    H1 3084   3.777   2.588   4.707
 1026TIP3    H2 3085   3.880   2.586   4.596
 1027TIP3   OH2 3086   3.383   4.347   3.565
 1027TIP3    H1 3087   3.433   4.382   3.639
 1027TIP3    H2 3088   3.405   4.404   3.492
 1028TIP3   OH2 3089   3.997   1.685   1.512
 1028TIP3    H1 3090   3.988   1.633   1.592
 1028TIP3    H2 3091   3.985   1.776   1.542
 1029TIP3   OH2 3092   2.151   5.580   4.207
 1029TIP3    H1 3093   2.231   5.600   4.255
 1029TIP3    H2 3094   2.116   5.502   4.250
 1030TIP3   OH2 3095   5.056   0.462   3.085
 1030TIP3    H1 3096   5.069   0.556   3.074
 1030TIP3    H2 3097   5.142   0.424   3.063
 1031TIP3   OH2 3098   1.719   5.347   4.815
 1031TIP3    H1 3099   1.675   5.368   4.898
 1031TIP3    H2 3100   1.685   5.411   4.753
 1032TIP3   OH2 3101   4.986   4.226   2.821
 1032TIP3    H1 3102   5.079   4.241   2.842
 1032TIP3    H2 3103   4.955   4.170   2.891
 1033TIP3   OH2 3104   5.277   1.813   4.787
 1033TIP3    H1 3105   5.187   1.779   4.791
 1033TIP3    H2 3106   5.290   1.834   4.694
 1034TIP3   OH2 3107   5.619   0.232   1.491
 1034TIP3    H1 3108   5.681   0.196   1.428
 1034TIP3    H2 3109   5.587   0.313   1.451
 1035TIP3   OH2 3110   6.119   3.490   3.537
 1035TIP3    H1 3111   6.207   3.520   3.513
 1035TIP3    H2 3112   6.114   3.402   3.500
 1036TIP3   OH2 3113   3.832   0.815   2.713
 1036TIP3    H1 3114   3.767   0.852   2.773
 1036TIP3    H2 3115   3.866   0.890   2.665
 1037TIP3   OH2 3116   4.819   5.625   2.410
 1037TIP3    H1 3117   4.911   5.644   2.428
 1037TIP3    H2 3118   4.779   5.711   2.399
 1038TIP3   OH2 3119   5.672   3.960   3.742
 1038TIP3    H1 3120   5.637   3.925   3.824
 1038TIP3    H2 3121   5.765   3.974   3.759
 1039TIP3   OH2 3122   2.897   4.009   4.263
 1039TIP3    H1 3123   2.977   4.006   4.315
 1039TIP3    H2 3124   2.832   3.961   4.314
 1040TIP3   OH2 3125   4.731   5.152   1.765
 1040TIP3    H1 3126   4.723   5.196   1.849
 1040TIP3    H2 3127   4.823   5.127   1.759
 1041TIP3   OH2 3128   6.089   2.459   0.472
 1041TIP3    H1 3129   6.078   2.523   0.402
 1041TIP3    H2 3130   6.151   2.499   0.533
 1042TIP3   OH2 3131   2.147   0.984   2.015
 1042TIP3    H1 3132   2.077   0.919   2.009
 1042TIP3    H2 3133   2.158   0.999   2.109
 1043TIP3   OH2 3134   1.793   3.238   1.677
 1043TIP3    H1 3135   1.794   3.326   1.714
 1043TIP3    H2 3136   1.711   3.200   1.709
 1044TIP3   OH2 3137   5.165   4.472   4.440
 1044TIP3    H1 3138   5.115   4.522   4.505
 1044TIP3    H2 3139   5.222   4.536   4.398
 1045TIP3   OH2 3140   0.376   3.446   4.928
 1045TIP3    H1 3141   0.329   3.379   4.978
 1045TIP3    H2 3142   0.381   3.411   4.839
 1046TIP3   OH2 3143   3.129   3.312   2.375
 1046TIP3    H1 3144   3.173   3.379   2.321
 1046TIP3    H2 3145   3.142   3.230   2.327
 1047TIP3   OH2 3146   3.183   2.170   2.730
 1047TIP3    H1 3147   3.131   2.092   2.713
 1047TIP3    H2 3148   3.223   2.155   2.816
 1048TIP3   OH2 3149   3.894   2.894   4.532
 1048TIP3    H1 3150   3.953   2.912   4.606
 1048TIP3    H2 3151   3.846   2.815   4.558
 1049TIP3   OH2 3152   4.782   3.821   5.042
 1049TIP3    H1 3153   4.741   3.906   5.061
 1049TIP3    H2 3154   4.813   3.828   4.952
 1050TIP3   OH2 3155   4.327   0.379   3.071
 1050TIP3    H1 3156   4.380   0.301   3.086
 1050TIP3    H2 3157   4.267   0.354   3.000
 1051TIP3   OH2 3158   4.241   2.078   4.149
 1051TIP3    H1 3159   4.288   2.112   4.073
 1051TIP3    H2 3160   4.233   2.153   4.208
 1052TIP3   OH2 3161   2.903   0.529   4.696
 1052TIP3    H1 3162   2.913   0.507   4.603
 1052TIP3    H2 3163   2.867   0.618   4.695
 1053TIP3   OH2 3164   3.393   5.338   3.030
 1053TIP3    H1 3165   3.476   5.383   3.014
 1053TIP3    H2 3166   3.327   5.402   3.007
 1054TIP3   OH2 3167   2.024   2.618   0.442
 1054TIP3    H1 3168   1.968   2.545   0.415
 1054TIP3    H2 3169   2.092   2.623   0.375
 1055TIP3   OH2 3170   2.609   5.166   2.227
 1055TIP3    H1 3171   2.666   5.193   2.154
 1055TIP3    H2 3172   2.570   5.084   2.197
 1056TIP3   OH2 3173   5.877   3.539   4.897
 1056TIP3    H1 3174   5.901   3.571   4.810
 1056TIP3    H2 3175   5.899   3.610   4.956
 1057TIP3   OH2 3176   2.069   3.779   2.744
 1057TIP3    H1 3177   2.031   3.762   2.830
 1057TIP3    H2 3178   2.163   3.789   2.760
 1058TIP3   OH2 3179   3.002   4.319   1.440
 1058TIP3    H1 3180   3.010   4.294   1.348
 1058TIP3    H2 3181   2.915   4.288   1.466
 1059TIP3   OH2 3182   5.658   3.770   2.696
 1059TIP3    H1 3183   5.660   3.750   2.602
 1059TIP3    H2 3184   5.750   3.773   2.722
 1060TIP3   OH2 3185   0.853   3.837   4.261
 1060TIP3    H1 3186   0.835   3.931   4.261
 1060TIP3    H2 3187   0.781   3.799   4.312
 1061TIP3   OH2 3188   3.428   1.316   1.278
 1061TIP3    H1 3189   3.387   1.389   1.325
 1061TIP3    H2 3190   3.388   1.238   1.315
 1062TIP3   OH2 3191   0.080   3.697   1.725
 1062TIP3    H1 3192   0.001   3.699   1.779
 1062TIP3    H2 3193   0.128   3.620   1.755
 1063TIP3   OH2 3194   3.282   5.219   3.635
 1063TIP3    H1 3195   3.267   5.127   3.657
 1063TIP3    H2 3196   3.369   5.221   3.596
 1064TIP3   OH2 3197   1.669   5.015   1.902
 1064TIP3    H1 3198   1.617   5.034   1.980
 1064TIP3    H2 3199   1.759   5.015   1.933
 1065TIP3   OH2 3200   3.045   4.201   4.501
 1065TIP3    H1 3201   3.092   4.124   4.468
 1065TIP3    H2 3202   3.114   4.263   4.524
 1066TIP3   OH2 3203   6.001   5.311   0.445
 1066TIP3    H1 3204   6.000   5.254   0.522
 1066TIP3    H2 3205   6.032   5.254   0.374
 1067TIP3   OH2 3206   3.956   0.241   0.293
 1067TIP3    H1 3207   3.942   0.207   0.382
 1067TIP3    H2 3208   3.954   0.163   0.237
 1068TIP3   OH2 3209   5.901   5.216   5.162
 1068TIP3    H1 3210   5.903   5.288   5.225
 1068TIP3    H2 3211   5.867   5.255   5.081
 1069TIP3   OH2 3212   3.195   3.648   3.460
 1069TIP3    H1 3213   3.153   3.573   3.501
 1069TIP3    H2 3214   3.262   3.675   3.523
 1070TIP3   OH2 3215   4.715   1.520   3.615
 1070TIP3    H1 3216   4.678   1.518   3.704
 1070TIP3    H2 3217   4.770   1.598   3.614
 1071TIP3   OH2 3218   5.003   0.430   2.481
 1071TIP3    H1 3219   5.015   0.524   2.468
 1071TIP3    H2 3220   5.050   0.390   2.407
 1072TIP3   OH2 3221   0.950   2.470   2.713
 1072TIP3    H1 3222   0.959   2.436   2.802
 1072TIP3    H2 3223   0.982   2.400   2.657
 1073TIP3   OH2 3224   5.750   4.502   3.359
 1073TIP3    H1 3225   5.821   4.451   3.398
 1073TIP3    H2 3226   5.793   4.574   3.314
 1074TIP3   OH2 3227   5.635   2.815   3.672
 1074TIP3    H1 3228   5.590   2.887   3.626
 1074TIP3    H2 3229   5.616   2.831   3.765
 1075TIP3   OH2 3230   3.544   3.857   4.090
 1075TIP3    H1 3231   3.513   3.885   4.176
 1075TIP3    H2 3232   3.636   3.834   4.104
 1076TIP3   OH2 3233   4.219   4.743   3.664
 1076TIP3    H1 3234   4.283   4.787   3.607
 1076TIP3    H2 3235   4.141   4.799   3.660
 1077TIP3   OH2 3236   4.949   5.411   4.242
 1077TIP3    H1 3237   4.909   5.346   4.300
 1077TIP3    H2 3238   4.913   5.495   4.271
 1078TIP3   OH2 3239   2.243   5.523   3.499
 1078TIP3    H1 3240   2.320   5.515   3.442
 1078TIP3    H2 3241   2.174   5.478   3.450
 1079TIP3   OH2 3242   1.676   5.745   2.127
 1079TIP3    H1 3243   1.601   5.801   2.105
 1079TIP3    H2 3244   1.734   5.802   2.178
 1080TIP3   OH2 3245   0.281   0.566   1.471
 1080TIP3    H1 3246   0.327   0.571   1.387
 1080TIP3    H2 3247   0.350   0.559   1.536
 1081TIP3   OH2 3248   4.418   3.108   3.994
 1081TIP3    H1 3249   4.459   3.028   4.028
 1081TIP3    H2 3250   4.480   3.142   3.930
 1082TIP3   OH2 3251   0.989   2.374   1.491
 1082TIP3    H1 3252   0.922   2.314   1.459
 1082TIP3    H2 3253   1.070   2.345   1.448
 1083TIP3   OH2 3254   5.283   5.024   1.015
 1083TIP3    H1 3255   5.325   4.941   0.993
 1083TIP3    H2 3256   5.278   5.024   1.110
 1084TIP3   OH2 3257   4.735   0.165   4.626
 1084TIP3    H1 3258   4.789   0.191   4.700
 1084TIP3    H2 3259   4.749   0.071   4.617
 1085TIP3   OH2 3260   0.854   2.649   2.392
 1085TIP3    H1 3261   0.782   2.591   2.365
 1085TIP3    H2 3262   0.923   2.633   2.328
 1086TIP3   OH2 3263   3.081   5.332   4.124
 1086TIP3    H1 3264   3.083   5.271   4.198
 1086TIP3    H2 3265   3.024   5.289   4.060
 1087TIP3   OH2 3266   3.851   4.785   1.905
 1087TIP3    H1 3267   3.913   4.841   1.857
 1087TIP3    H2 3268   3.803   4.846   1.961
 1088TIP3   OH2 3269   0.179   2.503   0.134
 1088TIP3    H1 3270   0.103   2.473   0.184
 1088TIP3    H2 3271   0.247   2.518   0.200
 1089TIP3   OH2 3272   3.713   0.954   0.476
 1089TIP3    H1 3273   3.620   0.938   0.463
 1089TIP3    H2 3274   3.725   1.047   0.460
 1090TIP3   OH2 3275   6.174   5.024   2.089
 1090TIP3    H1 3276   6.229   4.947   2.077
 1090TIP3    H2 3277   6.221   5.078   2.152
 1091TIP3   OH2 3278   3.068   5.008   2.564
 1091TIP3    H1 3279   3.080   5.050   2.649
 1091TIP3    H2 3280   3.005   4.938   2.580
 1092TIP3   OH2 3281   0.417   1.412   3.217
 1092TIP3    H1 3282   0.470   1.431   3.294
 1092TIP3    H2 3283   0.399   1.498   3.178
 1093TIP3   OH2 3284   5.228   0.579   3.700
 1093TIP3    H1 3285   5.146   0.624   3.679
 1093TIP3    H2 3286   5.285   0.648   3.734
 1094TIP3   OH2 3287   4.240   0.539   4.550
 1094TIP3    H1 3288   4.303   0.556   4.620
 1094TIP3    H2 3289   4.171   0.605   4.563
 1095TIP3   OH2 3290   3.701   0.813   3.145
 1095TIP3    H1 3291   3.753   0.843   3.219
 1095TIP3    H2 3292   3.765   0.801   3.074
 1096TIP3   OH2 3293   6.235   1.258   2.799
 1096TIP3    H1 3294   6.263   1.326   2.861
 1096TIP3    H2 3295   6.189   1.307   2.731
 1097TIP3   OH2 3296   0.067   4.227   4.516
 1097TIP3    H1 3297   0.103   4.140   4.534
 1097TIP3    H2 3298   0.121   4.286   4.568
 1098TIP3   OH2 3299   5.638   4.898   4.334
 1098TIP3    H1 3300   5.625   4.992   4.349
 1098TIP3    H2 3301   5.723   4.879   4.371
 1099TIP3   OH2 3302   4.129   3.013   0.538
 1099TIP3    H1 3303   4.097   2.933   0.497
 1099TIP3    H2 3304   4.142   3.074   0.466
 1100TIP3   OH2 3305   6.245   1.914   2.491
 1100TIP3    H1 3306   6.197   1.970   2.430
 1100TIP3    H2 3307   6.239   1.960   2.575
 1101TIP3   OH2 3308   4.915   3.451   1.707
 1101TIP3    H1 3309   4.879   3.368   1.675
 1101TIP3    H2 3310   5.008   3.433   1.722
 1102TIP3   OH2 3311   5.669   3.377   0.280
 1102TIP3    H1 3312   5.748   3.324   0.289
 1102TIP3    H2 3313   5.679   3.446   0.347
 1103TIP3   OH2 3314   2.798   1.913   0.615
 1103TIP3    H1 3315   2.825   1.974   0.683
 1103TIP3    H2 3316   2.775   1.969   0.540
 1104TIP3   OH2 3317   2.638   2.199   5.018
 1104TIP3    H1 3318   2.606   2.110   5.009
 1104TIP3    H2 3319   2.690   2.198   5.099
 1105TIP3   OH2 3320   2.033   4.914   0.904
 1105TIP3    H1 3321   1.942   4.926   0.930
 1105TIP3    H2 3322   2.042   4.965   0.824
 1106TIP3   OH2 3323   1.028   2.312   2.931
 1106TIP3    H1 3324   1.118   2.279   2.928
 1106TIP3    H2 3325   0.975   2.240   2.897
 1107TIP3   OH2 3326   4.839   4.135   1.524
 1107TIP3    H1 3327   4.773   4.093   1.579
 1107TIP3    H2 3328   4.839   4.227   1.553
 1108TIP3   OH2 3329   2.464   4.889   2.939
 1108TIP3    H1 3330   2.459   4.946   2.863
 1108TIP3    H2 3331   2.557   4.865   2.945
 1109TIP3   OH2 3332   4.846   0.882   2.479
 1109TIP3    H1 3333   4.921   0.935   2.451
 1109TIP3    H2 3334   4.776   0.946   2.495
 1110TIP3   OH2 3335   4.078   0.215   3.137
 1110TIP3    H1 3336   4.141   0.287   3.144
 1110TIP3    H2 3337   4.075   0.194   3.043
 1111TIP3   OH2 3338   5.836   0.759   4.726
 1111TIP3    H1 3339   5.790   0.704   4.662
 1111TIP3    H2 3340   5.926   0.727   4.724
 1112TIP3   OH2 3341   4.800   5.567   4.432
 1112TIP3    H1 3342   4.827   5.657   4.450
 1112TIP3    H2 3343   4.750   5.541   4.509
 1113TIP3   OH2 3344   5.622   0.307   3.725
 1113TIP3    H1 3345   5.545   0.340   3.772
 1113TIP3    H2 3346   5.595   0.221   3.692
 1114TIP3   OH2 3347   3.899   4.084   2.291
 1114TIP3    H1 3348   3.854   4.168   2.287
 1114TIP3    H2 3349   3.938   4.073   2.203
 1115TIP3   OH2 3350   4.348   3.086   2.033
 1115TIP3    H1 3351   4.436   3.073   1.997
 1115TIP3    H2 3352   4.318   3.168   1.995
 1116TIP3   OH2 3353   3.150   1.434   2.849
 1116TIP3    H1 3354   3.145   1.341   2.830
 1116TIP3    H2 3355   3.214   1.468   2.786
 1117TIP3   OH2 3356   1.852   4.232   4.578
 1117TIP3    H1 3357   1.872   4.158   4.636
 1117TIP3    H2 3358   1.861   4.309   4.634
 1118TIP3   OH2 3359   5.738   0.550   0.251
 1118TIP3    H1 3360   5.789   0.470   0.264
 1118TIP3    H2 3361   5.771   0.587   0.170
 1119TIP3   OH2 3362   4.731   4.296   3.095
 1119TIP3    H1 3363   4.755   4.211   3.059
 1119TIP3    H2 3364   4.683   4.275   3.175
 1120TIP3   OH2 3365   1.348   3.796   2.702
 1120TIP3    H1 3366   1.417   3.814   2.765
 1120TIP3    H2 3367   1.268   3.790   2.755
 1121TIP3   OH2 3368   0.970   1.801   4.792
 1121TIP3    H1 3369   0.993   1.843   4.709
 1121TIP3    H2 3370   0.974   1.707   4.773
 1122TIP3   OH2 3371   0.381   0.041   1.739
 1122TIP3    H1 3372   0.420   0.042   1.652
 1122TIP3    H2 3373   0.314   0.109   1.736
 1123TIP3   OH2 3374   5.578   5.589   3.319
 1123TIP3    H1 3375   5.500   5.542   3.348
 1123TIP3    H2 3376   5.572   5.589   3.224
 1124TIP3   OH2 3377   2.144   3.935   1.862
 1124TIP3    H1 3378   2.179   3.882   1.933
 1124TIP3    H2 3379   2.053   3.905   1.853
 1125TIP3   OH2 3380   5.093   0.938   1.515
 1125TIP3    H1 3381   5.184   0.918   1.533
 1125TIP3    H2 3382   5.052   0.853   1.500
 1126TIP3   OH2 3383   2.805   4.897   1.282
 1126TIP3    H1 3384   2.749   4.834   1.236
 1126TIP3    H2 3385   2.840   4.849   1.357
 1127TIP3   OH2 3386   5.606   3.155   1.970
 1127TIP3    H1 3387   5.578   3.087   1.908
 1127TIP3    H2 3388   5.554   3.139   2.048
 1128TIP3   OH2 3389   5.079   4.573   4.145
 1128TIP3    H1 3390   5.159   4.531   4.174
 1128TIP3    H2 3391   5.053   4.526   4.066
 1129TIP3   OH2 3392   0.663   2.556   1.762
 1129TIP3    H1 3393   0.584   2.532   1.810
 1129TIP3    H2 3394   0.641   2.537   1.670
 1130TIP3   OH2 3395   1.764   0.496   4.751
 1130TIP3    H1 3396   1.827   0.561   4.719
 1130TIP3    H2 3397   1.703   0.484   4.678
 1131TIP3   OH2 3398   0.786   5.530   3.444
 1131TIP3    H1 3399   0.877   5.540   3.416
 1131TIP3    H2 3400   0.769   5.607   3.499
 1132TIP3   OH2 3401   5.631   5.659   2.831
 1132TIP3    H1 3402   5.661   5.658   2.740
 1132TIP3    H2 3403   5.571   5.733   2.835
 1133TIP3   OH2 3404   0.251   0.272   2.328
 1133TIP3    H1 3405   0.240   0.366   2.347
 1133TIP3    H2 3406   0.335   0.266   2.283
 1134TIP3   OH2 3407   0.987   2.006   4.988
 1134TIP3    H1 3408   1.061   2.064   4.970
 1134TIP3    H2 3409   0.992   1.939   4.919
 1135TIP3   OH2 3410   5.840   1.012   4.823
 1135TIP3    H1 3411   5.838   0.919   4.799
 1135TIP3    H2 3412   5.930   1.027   4.850
 1136TIP3   OH2 3413   4.148   4.055   4.395
 1136TIP3    H1 3414   4.188   4.106   4.324
 1136TIP3    H2 3415   4.220   4.003   4.430
 1137TIP3   OH2 3416   5.047   0.584   1.227
 1137TIP3    H1 3417   5.022   0.498   1.194
 1137TIP3    H2 3418   5.142   0.581   1.236
 1138TIP3   OH2 3419   1.087   5.449   1.717
 1138TIP3    H1 3420   0.995   5.475   1.714
 1138TIP3    H2 3421   1.086   5.363   1.760
 1139TIP3   OH2 3422   0.026   1.337   3.531
 1139TIP3    H1 3423   0.022   1.362   3.439
 1139TIP3    H2 3424   0.030   1.241   3.530
 1140TIP3   OH2 3425   4.535   3.641   1.447
 1140TIP3    H1 3426   4.508   3.550   1.433
 1140TIP3    H2 3427   4.621   3.634   1.488
 1141TIP3   OH2 3428   0.406   5.896   1.748
 1141TIP3    H1 3429   0.419   5.829   1.681
 1141TIP3    H2 3430   0.330   5.945   1.718
 1142TIP3   OH2 3431   0.415   0.193   1.288
 1142TIP3    H1 3432   0.487   0.233   1.337
 1142TIP3    H2 3433   0.360   0.267   1.262
 1143TIP3   OH2 3434   4.813   2.657   1.285
 1143TIP3    H1 3435   4.887   2.616   1.240
 1143TIP3    H2 3436   4.775   2.587   1.338
 1144TIP3   OH2 3437   4.338   5.299   1.058
 1144TIP3    H1 3438   4.422   5.278   1.018
 1144TIP3    H2 3439   4.318   5.224   1.113
 1145TIP3   OH2 3440   1.473   3.124   1.115
 1145TIP3    H1 3441   1.382   3.121   1.144
 1145TIP3    H2 3442   1.493   3.034   1.090
 1146TIP3   OH2 3443   2.376   3.039   2.479
 1146TIP3    H1 3444   2.398   3.119   2.432
 1146TIP3    H2 3445   2.306   2.999   2.427
 1147TIP3   OH2 3446   2.089   1.584   4.477
 1147TIP3    H1 3447   2.061   1.492   4.480
 1147TIP3    H2 3448   2.173   1.582   4.432
 1148TIP3   OH2 3449   3.699   5.959   2.738
 1148TIP3    H1 3450   3.671   5.867   2.743
 1148TIP3    H2 3451   3.786   5.959   2.777
 1149TIP3   OH2 3452   3.783   1.622   5.040
 1149TIP3    H1 3453   3.741   1.625   5.126
 1149TIP3    H2 3454   3.789   1.529   5.020
 1150TIP3   OH2 3455   2.369   1.491   0.791
 1150TIP3    H1 3456   2.464   1.501   0.783
 1150TIP3    H2 3457   2.356   1.465   0.882
 1151TIP3   OH2 3458   4.553   3.915   3.683
 1151TIP3    H1 3459   4.586   3.891   3.597
 1151TIP3    H2 3460   4.603   3.992   3.708
 1152TIP3   OH2 3461   1.434   4.501   2.069
 1152TIP3    H1 3462   1.413   4.464   1.984
 1152TIP3    H2 3463   1.474   4.430   2.118
 1153TIP3   OH2 3464   3.605   5.445   2.411
 1153TIP3    H1 3465   3.570   5.498   2.483
 1153TIP3    H2 3466   3.698   5.467   2.408
 1154TIP3   OH2 3467   1.291   5.537   0.898
 1154TIP3    H1 3468   1.219   5.591   0.865
 1154TIP3    H2 3469   1.369   5.576   0.860
 1155TIP3   OH2 3470   5.661   0.264   0.109
 1155TIP3    H1 3471   5.689   0.247   0.019
 1155TIP3    H2 3472   5.742   0.286   0.156
 1156TIP3   OH2 3473   4.033   0.444   1.570
 1156TIP3    H1 3474   4.044   0.405   1.657
 1156TIP3    H2 3475   4.059   0.535   1.581
 1157TIP3   OH2 3476   1.157   2.425   3.175
 1157TIP3    H1 3477   1.130   2.381   3.094
 1157TIP3    H2 3478   1.088   2.405   3.238
 1158TIP3   OH2 3479   4.749   2.707   4.798
 1158TIP3    H1 3480   4.780   2.674   4.882
 1158TIP3    H2 3481   4.659   2.735   4.814
 1159TIP3   OH2 3482   5.661   0.414   2.003
 1159TIP3    H1 3483   5.645   0.328   2.042
 1159TIP3    H2 3484   5.757   0.418   1.994
 1160TIP3   OH2 3485   5.982   2.873   0.319
 1160TIP3    H1 3486   5.993   2.818   0.241
 1160TIP3    H2 3487   5.901   2.921   0.303
 1161TIP3   OH2 3488   2.246   3.903   0.527
 1161TIP3    H1 3489   2.311   3.938   0.588
 1161TIP3    H2 3490   2.299   3.866   0.456
 1162TIP3   OH2 3491   2.638   2.377   2.359
 1162TIP3    H1 3492   2.697   2.450   2.342
 1162TIP3    H2 3493   2.571   2.384   2.290
 1163TIP3   OH2 3494   3.389   3.523   3.857
 1163TIP3    H1 3495   3.447   3.479   3.919
 1163TIP3    H2 3496   3.326   3.456   3.831
 1164TIP3   OH2 3497   1.930   3.047   2.176
 1164TIP3    H1 3498   1.885   3.030   2.258
 1164TIP3    H2 3499   1.873   3.106   2.128
 1165TIP3   OH2 3500   1.948   1.126   4.631
 1165TIP3    H1 3501   1.855   1.147   4.620
 1165TIP3    H2 3502   1.970   1.073   4.554
 1166TIP3   OH2 3503   5.526   1.893   2.000
 1166TIP3    H1 3504   5.480   1.948   2.063
 1166TIP3    H2 3505   5.496   1.925   1.914
 1167TIP3   OH2 3506   3.012   1.528   4.348
 1167TIP3    H1 3507   3.065   1.556   4.273
 1167TIP3    H2 3508   2.952   1.463   4.312
 1168TIP3   OH2 3509   3.623   5.618   0.861
 1168TIP3    H1 3510   3.540   5.601   0.817
 1168TIP3    H2 3511   3.602   5.611   0.954
 1169TIP3   OH2 3512   2.701   4.335   5.157
 1169TIP3    H1 3513   2.609   4.358   5.150
 1169TIP3    H2 3514   2.724   4.354   5.249
 1170TIP3   OH2 3515   4.515   2.118   4.759
 1170TIP3    H1 3516   4.475   2.171   4.689
 1170TIP3    H2 3517   4.445   2.061   4.790
 1171TIP3   OH2 3518   2.774   2.938   2.177
 1171TIP3    H1 3519   2.755   2.880   2.251
 1171TIP3    H2 3520   2.808   3.017   2.217
 1172TIP3   OH2 3521   2.300   5.941   1.671
 1172TIP3    H1 3522   2.350   5.984   1.741
 1172TIP3    H2 3523   2.367   5.909   1.610
 1173TIP3   OH2 3524   1.521   2.373   3.718
 1173TIP3    H1 3525   1.470   2.310   3.667
 1173TIP3    H2 3526   1.461   2.403   3.786
 1174TIP3   OH2 3527   1.354   3.641   0.589
 1174TIP3    H1 3528   1.341   3.727   0.631
 1174TIP3    H2 3529   1.370   3.662   0.497
 1175TIP3   OH2 3530   3.282   0.227   4.765
 1175TIP3    H1 3531   3.346   0.246   4.834
 1175TIP3    H2 3532   3.324   0.257   4.685
 1176TIP3   OH2 3533   6.003   4.828   3.966
 1176TIP3    H1 3534   5.965   4.891   4.026
 1176TIP3    H2 3535   6.030   4.755   4.022
 1177TIP3   OH2 3536   5.633   0.636   2.536
 1177TIP3    H1 3537   5.664   0.586   2.612
 1177TIP3    H2 3538   5.667   0.588   2.461
 1178TIP3   OH2 3539   4.495   5.793   1.896
 1178TIP3    H1 3540   4.572   5.736   1.898
 1178TIP3    H2 3541   4.432   5.751   1.954
 1179TIP3   OH2 3542   0.569   2.597   2.945
 1179TIP3    H1 3543   0.525   2.642   2.873
 1179TIP3    H2 3544   0.535   2.640   3.024
 1180TIP3   OH2 3545   3.792   2.004   0.814
 1180TIP3    H1 3546   3.851   1.975   0.883
 1180TIP3    H2 3547   3.715   2.036   0.861
 1181TIP3   OH2 3548   3.412   4.129   4.755
 1181TIP3    H1 3549   3.434   4.152   4.665
 1181TIP3    H2 3550   3.336   4.072   4.748
 1182TIP3   OH2 3551   4.129   0.324   0.062
 1182TIP3    H1 3552   4.059   0.274   0.103
 1182TIP3    H2 3553   4.098   0.342  -0.026
 1183TIP3   OH2 3554   3.072   1.655   1.732
 1183TIP3    H1 3555   2.980   1.632   1.744
 1183TIP3    H2 3556   3.087   1.650   1.638
 1184TIP3   OH2 3557   5.986   2.928   3.367
 1184TIP3    H1 3558   5.912   2.876   3.336
 1184TIP3    H2 3559   5.993   3.000   3.304
 1185TIP3   OH2 3560   1.165   0.987   4.855
 1185TIP3    H1 3561   1.091   1.037   4.889
 1185TIP3    H2 3562   1.127   0.934   4.784
 1186TIP3   OH2 3563   6.264   3.670   2.692
 1186TIP3    H1 3564   6.205   3.622   2.634
 1186TIP3    H2 3565   6.349   3.630   2.679
 1187TIP3   OH2 3566   1.017   4.903   1.938
 1187TIP3    H1 3567   1.004   4.953   1.857
 1187TIP3    H2 3568   1.080   4.835   1.914
 1188TIP3   OH2 3569   0.083   2.796   4.827
 1188TIP3    H1 3570   0.106   2.704   4.819
 1188TIP3    H2 3571   0.058   2.806   4.919
 1189TIP3   OH2 3572   2.331   3.669   3.246
 1189TIP3    H1 3573   2.254   3.724   3.238
 1189TIP3    H2 3574   2.315   3.615   3.323
 1190TIP3   OH2 3575   4.156   3.973   0.656
 1190TIP3    H1 3576   4.091   3.907   0.678
 1190TIP3    H2 3577   4.236   3.924   0.636
 1191TIP3   OH2 3578   1.406   3.637   0.325
 1191TIP3    H1 3579   1.346   3.669   0.258
 1191TIP3    H2 3580   1.463   3.576   0.279
 1192TIP3   OH2 3581   4.607   1.149   3.974
 1192TIP3    H1 3582   4.632   1.071   4.024
 1192TIP3    H2 3583   4.635   1.130   3.885
 1193TIP3   OH2 3584   4.866   5.637   3.669
 1193TIP3    H1 3585   4.856   5.577   3.595
 1193TIP3    H2 3586   4.776   5.663   3.691
 1194TIP3   OH2 3587   5.124   1.934   4.323
 1194TIP3    H1 3588   5.144   2.026   4.305
 1194TIP3    H2 3589   5.136   1.891   4.238
 1195TIP3   OH2 3590   0.930   4.687   3.059
 1195TIP3    H1 3591   0.877   4.680   2.979
 1195TIP3    H2 3592   1.010   4.731   3.031
 1196TIP3   OH2 3593   2.942   0.436   2.788
 1196TIP3    H1 3594   3.037   0.444   2.785
 1196TIP3    H2 3595   2.926   0.341   2.796
 1197TIP3   OH2 3596   3.382   2.258   0.850
 1197TIP3    H1 3597   3.421   2.264   0.762
 1197TIP3    H2 3598   3.411   2.337   0.894
 1198TIP3   OH2 3599   3.224   3.950   4.707
 1198TIP3    H1 3600   3.211   3.953   4.613
 1198TIP3    H2 3601   3.259   3.863   4.724
 1199TIP3   OH2 3602   5.491   1.845   3.083
 1199TIP3    H1 3603   5.553   1.853   3.010
 1199TIP3    H2 3604   5.445   1.929   3.085
 1200TIP3   OH2 3605   3.129   4.939   1.154
 1200TIP3    H1 3606   3.163   4.954   1.242
 1200TIP3    H2 3607   3.088   4.853   1.158
 1201TIP3   OH2 3608   3.589   4.786   2.772
 1201TIP3    H1 3609   3.557   4.751   2.855
 1201TIP3    H2 3610   3.684   4.788   2.782
 1202TIP3   OH2 3611   1.414   0.743   0.948
 1202TIP3    H1 3612   1.424   0.728   1.042
 1202TIP3    H2 3613   1.341   0.805   0.941
 1203TIP3   OH2 3614   5.572   3.098   0.735
 1203TIP3    H1 3615   5.544   3.092   0.826
 1203TIP3    H2 3616   5.492   3.083   0.685
 1204TIP3   OH2 3617   5.788   3.580   1.417
 1204TIP3    H1 3618   5.860   3.585   1.480
 1204TIP3    H2 3619   5.709   3.590   1.471
 1205TIP3   OH2 3620   5.817   5.307   2.901
 1205TIP3    H1 3621   5.879   5.240   2.929
 1205TIP3    H2 3622   5.868   5.368   2.849
 1206TIP3   OH2 3623   0.370   2.395   0.474
 1206TIP3    H1 3624   0.392   2.451   0.401
 1206TIP3    H2 3625   0.353   2.455   0.547
 1207TIP3   OH2 3626   5.957   0.477   0.617
 1207TIP3    H1 3627   5.873   0.443   0.646
 1207TIP3    H2 3628   5.969   0.558   0.668
 1208TIP3   OH2 3629   1.572   5.749   3.843
 1208TIP3    H1 3630   1.592   5.665   3.801
 1208TIP3    H2 3631   1.517   5.725   3.917
 1209TIP3   OH2 3632   3.119   0.322   2.552
 1209TIP3    H1 3633   3.031   0.292   2.578
 1209TIP3    H2 3634   3.106   0.362   2.466
 1210TIP3   OH2 3635   1.343   3.973   1.255
 1210TIP3    H1 3636   1.265   3.997   1.305
 1210TIP3    H2 3637   1.405   3.940   1.320
 1211TIP3   OH2 3638   3.512   5.094   2.329
 1211TIP3    H1 3639   3.453   5.142   2.388
 1211TIP3    H2 3640   3.478   5.005   2.328
 1212TIP3   OH2 3641   3.092   3.770   3.882
 1212TIP3    H1 3642   3.021   3.818   3.925
 1212TIP3    H2 3643   3.158   3.758   3.951
 1213TIP3   OH2 3644   4.781   5.352   2.502
 1213TIP3    H1 3645   4.858   5.322   2.455
 1213TIP3    H2 3646   4.790   5.448   2.504
 1214TIP3   OH2 3647   0.808   3.685   3.883
 1214TIP3    H1 3648   0.737   3.737   3.921
 1214TIP3    H2 3649   0.876   3.685   3.951
 1215TIP3   OH2 3650   0.913   1.117   4.832
 1215TIP3    H1 3651   0.907   1.186   4.899
 1215TIP3    H2 3652   0.873   1.155   4.754
 1216TIP3   OH2 3653   0.330   4.760   3.404
 1216TIP3    H1 3654   0.371   4.834   3.361
 1216TIP3    H2 3655   0.289   4.797   3.482
 1217TIP3   OH2 3656   5.531   5.017   3.068
 1217TIP3    H1 3657   5.568   5.003   2.981
 1217TIP3    H2 3658   5.499   4.931   3.094
 1218TIP3   OH2 3659   6.144   3.306   4.078
 1218TIP3    H1 3660   6.083   3.332   4.009
 1218TIP3    H2 3661   6.088   3.275   4.150
 1219TIP3   OH2 3662   1.030   5.296   0.766
 1219TIP3    H1 3663   1.107   5.255   0.805
 1219TIP3    H2 3664   1.063   5.378   0.728
 1220TIP3   OH2 3665   2.496   5.543   4.752
 1220TIP3    H1 3666   2.438   5.572   4.823
 1220TIP3    H2 3667   2.448   5.562   4.672
 1221TIP3   OH2 3668   4.239   0.748   1.740
 1221TIP3    H1 3669   4.280   0.817   1.687
 1221TIP3    H2 3670   4.146   0.755   1.720
 1222TIP3   OH2 3671   2.126   3.292   5.090
 1222TIP3    H1 3672   2.120   3.357   5.019
 1222TIP3    H2 3673   2.039   3.291   5.129
 1223TIP3   OH2 3674   0.592   5.446   0.113
 1223TIP3    H1 3675   0.641   5.495   0.179
 1223TIP3    H2 3676   0.634   5.360   0.112
 1224TIP3   OH2 3677   2.662   5.454   4.359
 1224TIP3    H1 3678   2.638   5.476   4.448
 1224TIP3    H2 3679   2.720   5.378   4.367
 1225TIP3   OH2 3680   5.631   0.977   2.062
 1225TIP3    H1 3681   5.689   0.921   2.010
 1225TIP3    H2 3682   5.670   1.065   2.055
 1226TIP3   OH2 3683   5.080   5.819   3.624
 1226TIP3    H1 3684   5.123   5.847   3.705
 1226TIP3    H2 3685   5.010   5.760   3.654
 1227TIP3   OH2 3686   4.578   5.247   2.029
 1227TIP3    H1 3687   4.605   5.176   2.088
 1227TIP3    H2 3688   4.593   5.327   2.079
 1228TIP3   OH2 3689   5.030   3.077   1.092
 1228TIP3    H1 3690   4.967   3.005   1.095
 1228TIP3    H2 3691   5.085   3.057   1.016
 1229TIP3   OH2 3692   0.847   3.193   3.629
 1229TIP3    H1 3693   0.805   3.270   3.591
 1229TIP3    H2 3694   0.784   3.159   3.692
 1230TIP3   OH2 3695   1.682   1.706   3.333
 1230TIP3    H1 3696   1.764   1.750   3.311
 1230TIP3    H2 3697   1.708   1.634   3.390
 1231TIP3   OH2 3698   2.083   1.292   2.489
 1231TIP3    H1 3699   2.046   1.239   2.418
 1231TIP3    H2 3700   2.013   1.353   2.513
 1232TIP3   OH2 3701   3.809   3.793   3.805
 1232TIP3    H1 3702   3.876   3.861   3.800
 1232TIP3    H2 3703   3.727   3.841   3.817
 1233TIP3   OH2 3704   4.516   3.883   2.287
 1233TIP3    H1 3705   4.516   3.796   2.328
 1233TIP3    H2 3706   4.531   3.943   2.360
 1234TIP3   OH2 3707   3.752   0.547   3.219
 1234TIP3    H1 3708   3.692   0.617   3.194
 1234TIP3    H2 3709   3.714   0.511   3.299
 1235TIP3   OH2 3710   0.426   3.141   1.259
 1235TIP3    H1 3711   0.422   3.213   1.322
 1235TIP3    H2 3712   0.401   3.180   1.175
 1236TIP3   OH2 3713   4.125   3.373   1.632
 1236TIP3    H1 3714   4.203   3.326   1.659
 1236TIP3    H2 3715   4.097   3.420   1.710
 1237TIP3   OH2 3716   1.809   6.013   4.393
 1237TIP3    H1 3717   1.758   5.941   4.430
 1237TIP3    H2 3718   1.898   5.979   4.386
 1238TIP3   OH2 3719   4.653   2.986   2.189
 1238TIP3    H1 3720   4.702   3.018   2.265
 1238TIP3    H2 3721   4.581   2.935   2.226
 1239TIP3   OH2 3722   6.364   3.363   0.343
 1239TIP3    H1 3723   6.311   3.440   0.364
 1239TIP3    H2 3724   6.301   3.291   0.341
 1240TIP3   OH2 3725   2.705   0.205   2.461
 1240TIP3    H1 3726   2.642   0.138   2.437
 1240TIP3    H2 3727   2.761   0.215   2.385
 1241TIP3   OH2 3728   5.041   0.054   4.264
 1241TIP3    H1 3729   5.017   0.147   4.270
 1241TIP3    H2 3730   5.090   0.048   4.182
 1242TIP3   OH2 3731   5.132   2.390   2.020
 1242TIP3    H1 3732   5.220   2.372   2.053
 1242TIP3    H2 3733   5.143   2.403   1.926
 1243TIP3   OH2 3734   0.180   5.700   2.047
 1243TIP3    H1 3735   0.262   5.688   1.998
 1243TIP3    H2 3736   0.204   5.686   2.138
 1244TIP3   OH2 3737   4.165   0.993   3.599
 1244TIP3    H1 3738   4.104   0.966   3.667
 1244TIP3    H2 3739   4.252   0.973   3.634
 1245TIP3   OH2 3740   1.435   5.651   1.273
 1245TIP3    H1 3741   1.452   5.718   1.206
 1245TIP3    H2 3742   1.342   5.661   1.292
 1246TIP3   OH2 3743   5.984   0.606   2.924
 1246TIP3    H1 3744   6.029   0.689   2.941
 1246TIP3    H2 3745   5.892   0.624   2.944
 1247TIP3   OH2 3746   4.485   4.372   1.505
 1247TIP3    H1 3747   4.461   4.280   1.516
 1247TIP3    H2 3748   4.483   4.409   1.593
 1248TIP3   OH2 3749   3.278   0.103   2.356
 1248TIP3    H1 3750   3.255   0.094   2.448
 1248TIP3    H2 3751   3.228   0.033   2.312
 1249TIP3   OH2 3752   0.393   4.825   2.305
 1249TIP3    H1 3753   0.340   4.751   2.332
 1249TIP3    H2 3754   0.343   4.867   2.234
 1250TIP3   OH2 3755   2.845   2.943   1.388
 1250TIP3    H1 3756   2.794   2.862   1.377
 1250TIP3    H2 3757   2.931   2.923   1.352
 1251TIP3   OH2 3758   5.045   1.008   1.782
 1251TIP3    H1 3759   5.115   1.048   1.732
 1251TIP3    H2 3760   5.074   0.918   1.798
 1252TIP3   OH2 3761   0.876   1.031   1.361
 1252TIP3    H1 3762   0.903   1.049   1.271
 1252TIP3    H2 3763   0.951   1.055   1.414
 1253TIP3   OH2 3764   4.022   2.891   2.607
 1253TIP3    H1 3765   4.053   2.981   2.600
 1253TIP3    H2 3766   3.928   2.899   2.622
 1254TIP3   OH2 3767   6.089   4.206   1.280
 1254TIP3    H1 3768   6.085   4.155   1.200
 1254TIP3    H2 3769   6.166   4.263   1.268
 1255TIP3   OH2 3770   0.341   1.542   4.248
 1255TIP3    H1 3771   0.310   1.598   4.320
 1255TIP3    H2 3772   0.390   1.602   4.192
 1256TIP3   OH2 3773   3.786   2.128   4.030
 1256TIP3    H1 3774   3.718   2.088   4.085
 1256TIP3    H2 3775   3.808   2.209   4.076
 1257TIP3   OH2 3776   3.219   2.838   2.129
 1257TIP3    H1 3777   3.303   2.825   2.087
 1257TIP3    H2 3778   3.193   2.751   2.160
 1258TIP3   OH2 3779   2.553   3.091   4.368
 1258TIP3    H1 3780   2.525   3.138   4.446
 1258TIP3    H2 3781   2.512   3.138   4.295
 1259TIP3   OH2 3782   3.710   4.425   2.032
 1259TIP3    H1 3783   3.766   4.363   1.985
 1259TIP3    H2 3784   3.724   4.405   2.124
 1260TIP3   OH2 3785   4.909   3.643   3.137
 1260TIP3    H1 3786   4.969   3.682   3.201
 1260TIP3    H2 3787   4.950   3.659   3.053
 1261TIP3   OH2 3788   1.474   3.702   3.832
 1261TIP3    H1 3789   1.532   3.738   3.764
 1261TIP3    H2 3790   1.526   3.705   3.912
 1262TIP3   OH2 3791   6.198   3.088   2.789
 1262TIP3    H1 3792   6.247   3.162   2.752
 1262TIP3    H2 3793   6.107   3.117   2.788
 1263TIP3   OH2 3794   0.736   2.908   2.466
 1263TIP3    H1 3795   0.788   2.959   2.403
 1263TIP3    H2 3796   0.796   2.894   2.540
 1264TIP3   OH2 3797   2.433   2.759   0.561
 1264TIP3    H1 3798   2.369   2.693   0.588
 1264TIP3    H2 3799   2.386   2.842   0.567
 1265TIP3   OH2 3800   3.869   5.891   4.066
 1265TIP3    H1 3801   3.896   5.957   4.001
 1265TIP3    H2 3802   3.951   5.848   4.091
 1266TIP3   OH2 3803   5.196   1.652   1.494
 1266TIP3    H1 3804   5.101   1.647   1.504
 1266TIP3    H2 3805   5.210   1.653   1.400
 1267TIP3   OH2 3806   0.021   4.556   1.891
 1267TIP3    H1 3807  -0.015   4.511   1.815
 1267TIP3    H2 3808   0.018   4.490   1.961
 1268TIP3   OH2 3809   3.835   2.050   2.125
 1268TIP3    H1 3810   3.919   2.051   2.170
 1268TIP3    H2 3811   3.792   2.131   2.152
 1269TIP3   OH2 3812   5.579   5.965   2.597
 1269TIP3    H1 3813   5.574   6.030   2.527
 1269TIP3    H2 3814   5.643   5.901   2.566
 1270TIP3   OH2 3815   1.362   3.267   4.478
 1270TIP3    H1 3816   1.319   3.225   4.552
 1270TIP3    H2 3817   1.426   3.326   4.518
 1271TIP3   OH2 3818   4.460   2.229   3.642
 1271TIP3    H1 3819   4.409   2.310   3.644
 1271TIP3    H2 3820   4.438   2.189   3.557
 1272TIP3   OH2 3821   3.652   4.199   4.133
 1272TIP3    H1 3822   3.642   4.294   4.125
 1272TIP3    H2 3823   3.735   4.187   4.179
 1273TIP3   OH2 3824   3.625   2.429   2.336
 1273TIP3    H1 3825   3.539   2.404   2.303
 1273TIP3    H2 3826   3.633   2.522   2.315
 1274TIP3   OH2 3827   5.106   5.012   2.813
 1274TIP3    H1 3828   5.191   5.012   2.769
 1274TIP3    H2 3829   5.058   5.084   2.772
 1275TIP3   OH2 3830   1.762   3.461   1.824
 1275TIP3    H1 3831   1.805   3.499   1.901
 1275TIP3    H2 3832   1.670   3.486   1.834
 1276TIP3   OH2 3833   0.153   2.256   4.407
 1276TIP3    H1 3834   0.101   2.335   4.391
 1276TIP3    H2 3835   0.179   2.227   4.320
 1277TIP3   OH2 3836   0.593   4.293   1.666
 1277TIP3    H1 3837   0.645   4.247   1.601
 1277TIP3    H2 3838   0.548   4.362   1.617
 1278TIP3   OH2 3839   2.238   0.651   3.725
 1278TIP3    H1 3840   2.271   0.695   3.804
 1278TIP3    H2 3841   2.176   0.713   3.687
 1279TIP3   OH2 3842   1.254   2.305   2.747
 1279TIP3    H1 3843   1.310   2.242   2.702
 1279TIP3    H2 3844   1.292   2.390   2.727
 1280TIP3   OH2 3845   0.280   5.092   4.705
 1280TIP3    H1 3846   0.229   5.039   4.766
 1280TIP3    H2 3847   0.253   5.182   4.724
 1281TIP3   OH2 3848   2.018   0.896   1.094
 1281TIP3    H1 3849   1.934   0.910   1.050
 1281TIP3    H2 3850   1.999   0.830   1.161
 1282TIP3   OH2 3851   2.109   0.661   2.096
 1282TIP3    H1 3852   2.172   0.599   2.059
 1282TIP3    H2 3853   2.052   0.684   2.022
 1283TIP3   OH2 3854   3.427   1.996   0.185
 1283TIP3    H1 3855   3.461   1.981   0.273
 1283TIP3    H2 3856   3.332   1.988   0.194
 1284TIP3   OH2 3857   1.048   4.345   1.405
 1284TIP3    H1 3858   1.031   4.427   1.358
 1284TIP3    H2 3859   1.036   4.277   1.340
 1285TIP3   OH2 3860   1.823   0.994   3.858
 1285TIP3    H1 3861   1.732   0.969   3.879
 1285TIP3    H2 3862   1.815   1.080   3.818
 1286TIP3   OH2 3863   0.936   2.305   0.377
 1286TIP3    H1 3864   0.879   2.353   0.438
 1286TIP3    H2 3865   0.881   2.235   0.342
 1287TIP3   OH2 3866   4.307   1.139   4.041
 1287TIP3    H1 3867   4.253   1.217   4.049
 1287TIP3    H2 3868   4.396   1.172   4.026
 1288TIP3   OH2 3869   3.031   5.355   3.064
 1288TIP3    H1 3870   3.020   5.444   3.029
 1288TIP3    H2 3871   2.946   5.313   3.052
 1289TIP3   OH2 3872   4.424   5.259   4.220
 1289TIP3    H1 3873   4.466   5.335   4.261
 1289TIP3    H2 3874   4.419   5.193   4.290
 1290TIP3   OH2 3875  -0.002   4.473   0.468
 1290TIP3    H1 3876   0.066   4.427   0.418
 1290TIP3    H2 3877  -0.040   4.406   0.524
 1291TIP3   OH2 3878   5.642   4.825   4.890
 1291TIP3    H1 3879   5.665   4.893   4.954
 1291TIP3    H2 3880   5.713   4.761   4.898
 1292TIP3   OH2 3881   2.500   4.940   0.962
 1292TIP3    H1 3882   2.422   4.974   1.007
 1292TIP3    H2 3883   2.478   4.849   0.942
 1293TIP3   OH2 3884   0.585   1.961   3.462
 1293TIP3    H1 3885   0.570   2.013   3.383
 1293TIP3    H2 3886   0.539   2.007   3.531
 1294TIP3   OH2 3887   1.310   1.630   3.844
 1294TIP3    H1 3888   1.401   1.610   3.823
 1294TIP3    H2 3889   1.313   1.720   3.878
 1295TIP3   OH2 3890   1.973   2.547   2.520
 1295TIP3    H1 3891   2.032   2.504   2.458
 1295TIP3    H2 3892   2.013   2.632   2.538
 1296TIP3   OH2 3893   0.743   3.079   1.674
 1296TIP3    H1 3894   0.807   3.016   1.707
 1296TIP3    H2 3895   0.664   3.062   1.725
 1297TIP3   OH2 3896   5.493   2.797   4.135
 1297TIP3    H1 3897   5.503   2.846   4.216
 1297TIP3    H2 3898   5.536   2.852   4.069
 1298TIP3   OH2 3899   0.373   3.823   4.118
 1298TIP3    H1 3900   0.364   3.903   4.169
 1298TIP3    H2 3901   0.380   3.753   4.183
 1299TIP3   OH2 3902   0.911   5.112   3.006
 1299TIP3    H1 3903   0.901   5.087   3.098
 1299TIP3    H2 3904   1.003   5.139   2.999
 1300TIP3   OH2 3905   0.718   5.941   4.385
 1300TIP3    H1 3906   0.799   5.890   4.383
 1300TIP3    H2 3907   0.650   5.878   4.405
 1301TIP3   OH2 3908   3.465   2.956   3.698
 1301TIP3    H1 3909   3.545   2.999   3.666
 1301TIP3    H2 3910   3.434   3.014   3.768
 1302TIP3   OH2 3911   4.662   5.513   0.263
 1302TIP3    H1 3912   4.671   5.574   0.336
 1302TIP3    H2 3913   4.729   5.446   0.279
 1303TIP3   OH2 3914   1.443   4.864   3.480
 1303TIP3    H1 3915   1.401   4.801   3.422
 1303TIP3    H2 3916   1.429   4.830   3.568
 1304TIP3   OH2 3917   2.537   3.993   2.447
 1304TIP3    H1 3918   2.499   4.077   2.420
 1304TIP3    H2 3919   2.530   3.937   2.370
 1305TIP3   OH2 3920   1.502   2.076   3.554
 1305TIP3    H1 3921   1.440   2.051   3.623
 1305TIP3    H2 3922   1.542   1.993   3.527
 1306TIP3   OH2 3923   1.290   5.083   2.635
 1306TIP3    H1 3924   1.338   5.018   2.687
 1306TIP3    H2 3925   1.338   5.164   2.649
 1307TIP3   OH2 3926   0.707   3.926   0.649
 1307TIP3    H1 3927   0.680   3.857   0.710
 1307TIP3    H2 3928   0.803   3.921   0.649
 1308TIP3   OH2 3929   5.871   4.053   1.354
 1308TIP3    H1 3930   5.942   4.114   1.338
 1308TIP3    H2 3931   5.915   3.971   1.378
 1309TIP3   OH2 3932   3.711   1.511   1.041
 1309TIP3    H1 3933   3.767   1.555   1.105
 1309TIP3    H2 3934   3.622   1.530   1.069
 1310TIP3   OH2 3935   3.007   3.330   1.776
 1310TIP3    H1 3936   2.997   3.366   1.688
 1310TIP3    H2 3937   2.940   3.262   1.781
 1311TIP3   OH2 3938   1.732   4.235   1.419
 1311TIP3    H1 3939   1.752   4.199   1.505
 1311TIP3    H2 3940   1.809   4.215   1.366
 1312TIP3   OH2 3941   1.666   0.553   1.522
 1312TIP3    H1 3942   1.751   0.538   1.564
 1312TIP3    H2 3943   1.629   0.628   1.568
 1313TIP3   OH2 3944   2.184   0.160   3.715
 1313TIP3    H1 3945   2.171   0.131   3.806
 1313TIP3    H2 3946   2.132   0.240   3.708
 1314TIP3   OH2 3947   1.732   5.559   2.410
 1314TIP3    H1 3948   1.738   5.643   2.365
 1314TIP3    H2 3949   1.820   5.544   2.444
 1315TIP3   OH2 3950   3.708   4.784   5.166
 1315TIP3    H1 3951   3.688   4.876   5.182
 1315TIP3    H2 3952   3.623   4.740   5.165
 1316TIP3   OH2 3953   5.187   3.003   0.350
 1316TIP3    H1 3954   5.144   3.079   0.311
 1316TIP3    H2 3955   5.117   2.958   0.397
 1317TIP3   OH2 3956   5.757   0.973   2.793
 1317TIP3    H1 3957   5.787   1.021   2.870
 1317TIP3    H2 3958   5.666   0.950   2.812
 1318TIP3   OH2 3959   4.680   5.966   4.364
 1318TIP3    H1 3960   4.676   5.938   4.455
 1318TIP3    H2 3961   4.760   5.925   4.330
 1319TIP3   OH2 3962   2.983   3.456   4.634
 1319TIP3    H1 3963   3.030   3.395   4.577
 1319TIP3    H2 3964   2.906   3.407   4.664
 1320TIP3   OH2 3965   5.882   2.668   3.928
 1320TIP3    H1 3966   5.787   2.664   3.934
 1320TIP3    H2 3967   5.900   2.735   3.862
 1321TIP3   OH2 3968   1.382   5.083   0.764
 1321TIP3    H1 3969   1.441   5.013   0.791
 1321TIP3    H2 3970   1.299   5.038   0.748
 1322TIP3   OH2 3971   4.794   0.027   0.385
 1322TIP3    H1 3972   4.842  -0.046   0.347
 1322TIP3    H2 3973   4.860   0.082   0.427
 1323TIP3   OH2 3974   5.741   3.668   5.098
 1323TIP3    H1 3975   5.709   3.596   5.153
 1323TIP3    H2 3976   5.826   3.690   5.135
 1324TIP3   OH2 3977   1.518   5.402   3.993
 1324TIP3    H1 3978   1.569   5.378   3.916
 1324TIP3    H2 3979   1.555   5.348   4.063
 1325TIP3   OH2 3980   4.803   4.968   1.363
 1325TIP3    H1 3981   4.779   4.913   1.438
 1325TIP3    H2 3982   4.782   5.057   1.391
 1326TIP3   OH2 3983   0.144   2.526   4.842
 1326TIP3    H1 3984   0.092   2.463   4.792
 1326TIP3    H2 3985   0.178   2.475   4.916
 1327TIP3   OH2 3986   3.805   3.368   0.236
 1327TIP3    H1 3987   3.743   3.441   0.227
 1327TIP3    H2 3988   3.891   3.410   0.239
 1328TIP3   OH2 3989   6.124   1.040   2.716
 1328TIP3    H1 3990   6.083   1.060   2.631
 1328TIP3    H2 3991   6.153   1.125   2.749
 1329TIP3   OH2 3992   0.141   3.540   2.628
 1329TIP3    H1 3993   0.142   3.444   2.632
 1329TIP3    H2 3994   0.209   3.561   2.564
 1330TIP3   OH2 3995   2.560   0.141   4.322
 1330TIP3    H1 3996   2.643   0.175   4.291
 1330TIP3    H2 3997   2.543   0.064   4.267
 1331TIP3   OH2 3998   1.114   1.794   4.169
 1331TIP3    H1 3999   1.103   1.700   4.150
 1331TIP3    H2 4000   1.041   1.815   4.227
 1332TIP3   OH2 4001   0.189   0.875   3.794
 1332TIP3    H1 4002   0.225   0.823   3.866
 1332TIP3    H2 4003   0.248   0.950   3.788
 1333TIP3   OH2 4004   0.350   2.479   1.315
 1333TIP3    H1 4005   0.396   2.422   1.376
 1333TIP3    H2 4006   0.419   2.529   1.271
 1334TIP3   OH2 4007   2.961   4.434   0.834
 1334TIP3    H1 4008   2.893   4.384   0.879
 1334TIP3    H2 4009   2.950   4.411   0.741
 1335TIP3   OH2 4010   0.160   5.951   1.144
 1335TIP3    H1 4011   0.106   5.991   1.076
 1335TIP3    H2 4012   0.204   5.878   1.100
 1336TIP3   OH2 4013   4.499   4.814   3.451
 1336TIP3    H1 4014   4.431   4.881   3.459
 1336TIP3    H2 4015   4.564   4.854   3.393
 1337TIP3   OH2 4016   0.874   0.664   0.190
 1337TIP3    H1 4017   0.946   0.727   0.185
 1337TIP3    H2 4018   0.908   0.587   0.144
 1338TIP3   OH2 4019   0.440   1.667   1.867
 1338TIP3    H1 4020   0.445   1.581   1.827
 1338TIP3    H2 4021   0.502   1.663   1.940
 1339TIP3   OH2 4022   0.252   1.362   4.817
 1339TIP3    H1 4023   0.276   1.272   4.798
 1339TIP3    H2 4024   0.229   1.399   4.732
 1340TIP3   OH2 4025   3.742   2.757   4.057
 1340TIP3    H1 4026   3.727   2.687   4.121
 1340TIP3    H2 4027   3.836   2.772   4.059
 1341TIP3   OH2 4028   2.172   0.154   5.059
 1341TIP3    H1 4029   2.254   0.136   5.014
 1341TIP3    H2 4030   2.104   0.128   4.997
 1342TIP3   OH2 4031   6.320   0.303   2.304
 1342TIP3    H1 4032   6.326   0.365   2.377
 1342TIP3    H2 4033   6.407   0.264   2.298
 1343TIP3   OH2 4034   0.553   3.488   2.545
 1343TIP3    H1 4035   0.459   3.506   2.535
 1343TIP3    H2 4036   0.596   3.550   2.486
 1344TIP3   OH2 4037   3.254   3.028   4.402
 1344TIP3    H1 4038   3.344   3.016   4.371
 1344TIP3    H2 4039   3.199   3.004   4.328
 1345TIP3   OH2 4040   5.333   5.881   2.436
 1345TIP3    H1 4041   5.297   5.969   2.419
 1345TIP3    H2 4042   5.381   5.891   2.518
 1346TIP3   OH2 4043   4.970   3.540   5.016
 1346TIP3    H1 4044   4.980   3.538   4.920
 1346TIP3    H2 4045   4.907   3.471   5.034
 1347TIP3   OH2 4046   1.079   0.457   1.721
 1347TIP3    H1 4047   1.044   0.527   1.776
 1347TIP3    H2 4048   1.164   0.489   1.692
 1348TIP3   OH2 4049   3.522   5.789   0.259
 1348TIP3    H1 4050   3.457   5.859   0.271
 1348TIP3    H2 4051   3.471   5.714   0.229
 1349TIP3   OH2 4052   3.822   0.836   1.241
 1349TIP3    H1 4053   3.806   0.831   1.146
 1349TIP3    H2 4054   3.878   0.914   1.251
 1350TIP3   OH2 4055   1.275   4.685   5.059
 1350TIP3    H1 4056   1.237   4.758   5.107
 1350TIP3    H2 4057   1.261   4.609   5.116
 1351TIP3   OH2 4058   6.214   5.728   3.871
 1351TIP3    H1 4059   6.291   5.784   3.881
 1351TIP3    H2 4060   6.236   5.648   3.919
 1352TIP3   OH2 4061   3.019   3.816   0.619
 1352TIP3    H1 4062   2.942   3.833   0.674
 1352TIP3    H2 4063   2.994   3.741   0.565
 1353TIP3   OH2 4064   2.932   1.449   3.357
 1353TIP3    H1 4065   2.974   1.439   3.271
 1353TIP3    H2 4066   2.865   1.380   3.359
 1354TIP3   OH2 4067   5.880   4.153   3.297
 1354TIP3    H1 4068   5.922   4.220   3.244
 1354TIP3    H2 4069   5.856   4.199   3.378
 1355TIP3   OH2 4070   6.333   5.148   1.678
 1355TIP3    H1 4071   6.241   5.151   1.652
 1355TIP3    H2 4072   6.359   5.240   1.686
 1356TIP3   OH2 4073   0.925   2.396   2.262
 1356TIP3    H1 4074   0.887   2.361   2.342
 1356TIP3    H2 4075   0.855   2.390   2.197
 1357TIP3   OH2 4076   4.977   5.590   0.021
 1357TIP3    H1 4077   5.046   5.656   0.035
 1357TIP3    H2 4078   4.968   5.547   0.106
 1358TIP3   OH2 4079   0.512   2.236   3.347
 1358TIP3    H1 4080   0.497   2.314   3.295
 1358TIP3    H2 4081   0.553   2.268   3.428
 1359TIP3   OH2 4082   0.407   2.507   1.892
 1359TIP3    H1 4083   0.320   2.496   1.853
 1359TIP3    H2 4084   0.393   2.566   1.966
 1360TIP3   OH2 4085   0.838   5.362   4.918
 1360TIP3    H1 4086   0.887   5.402   4.990
 1360TIP3    H2 4087   0.846   5.268   4.933
 1361TIP3   OH2 4088   4.195   1.486   2.883
 1361TIP3    H1 4089   4.260   1.555   2.867
 1361TIP3    H2 4090   4.213   1.421   2.815
 1362TIP3   OH2 4091   3.872   0.567   0.770
 1362TIP3    H1 4092   3.869   0.636   0.705
 1362TIP3    H2 4093   3.857   0.486   0.721
 1363TIP3   OH2 4094   5.978   0.815   2.239
 1363TIP3    H1 4095   6.011   0.763   2.312
 1363TIP3    H2 4096   5.895   0.850   2.270
 1364TIP3   OH2 4097   5.934   2.009   5.191
 1364TIP3    H1 4098   5.934   1.932   5.248
 1364TIP3    H2 4099   5.842   2.022   5.168
 1365TIP3   OH2 4100   3.501   5.112   0.250
 1365TIP3    H1 4101   3.455   5.029   0.236
 1365TIP3    H2 4102   3.567   5.091   0.317
 1366TIP3   OH2 4103   6.163   0.772  -0.026
 1366TIP3    H1 4104   6.181   0.850   0.028
 1366TIP3    H2 4105   6.071   0.782  -0.051
 1367TIP3   OH2 4106   0.891   3.029   2.279
 1367TIP3    H1 4107   0.968   3.000   2.230
 1367TIP3    H2 4108   0.901   3.123   2.288
 1368TIP3   OH2 4109   3.393   4.983   4.198
 1368TIP3    H1 4110   3.406   5.076   4.178
 1368TIP3    H2 4111   3.349   4.983   4.283
 1369TIP3   OH2 4112   2.035   4.931   2.539
 1369TIP3    H1 4113   1.982   4.999   2.498
 1369TIP3    H2 4114   1.996   4.920   2.626
 1370TIP3   OH2 4115   5.231   2.884   1.143
 1370TIP3    H1 4116   5.252   2.949   1.210
 1370TIP3    H2 4117   5.205   2.806   1.192
 1371TIP3   OH2 4118   2.847   2.140   0.768
 1371TIP3    H1 4119   2.934   2.165   0.800
 1371TIP3    H2 4120   2.813   2.219   0.726
 1372TIP3   OH2 4121   0.404   0.812   0.524
 1372TIP3    H1 4122   0.316   0.798   0.560
 1372TIP3    H2 4123   0.450   0.730   0.542
 1373TIP3   OH2 4124   6.266   1.191   2.502
 1373TIP3    H1 4125   6.361   1.189   2.512
 1373TIP3    H2 4126   6.247   1.117   2.444
 1374TIP3   OH2 4127   3.179   2.521   4.487
 1374TIP3    H1 4128   3.119   2.449   4.467
 1374TIP3    H2 4129   3.121   2.594   4.511
 1375TIP3   OH2 4130   4.574   0.737   4.479
 1375TIP3    H1 4131   4.565   0.658   4.533
 1375TIP3    H2 4132   4.628   0.709   4.405
 1376TIP3   OH2 4133   1.744   2.419   2.586
 1376TIP3    H1 4134   1.672   2.477   2.613
 1376TIP3    H2 4135   1.814   2.479   2.561
 1377TIP3   OH2 4136   3.839   5.837   0.442
 1377TIP3    H1 4137   3.804   5.758   0.402
 1377TIP3    H2 4138   3.905   5.806   0.504
 1378TIP3   OH2 4139   5.814   6.049   1.338
 1378TIP3    H1 4140   5.876   6.082   1.404
 1378TIP3    H2 4141   5.796   5.959   1.366
 1379TIP3   OH2 4142   4.812   4.398   1.662
 1379TIP3    H1 4143   4.857   4.445   1.732
 1379TIP3    H2 4144   4.791   4.465   1.597
 1380TIP3   OH2 4145   4.106   5.712   0.225
 1380TIP3    H1 4146   4.073   5.659   0.153
 1380TIP3    H2 4147   4.179   5.761   0.187
 1381TIP3   OH2 4148   5.240   1.455   3.840
 1381TIP3    H1 4149   5.328   1.479   3.811
 1381TIP3    H2 4150   5.198   1.539   3.862
 1382TIP3   OH2 4151   2.487   2.910   2.692
 1382TIP3    H1 4152   2.573   2.952   2.687
 1382TIP3    H2 4153   2.447   2.926   2.607
 1383TIP3   OH2 4154   1.615   4.296   2.581
 1383TIP3    H1 4155   1.528   4.336   2.581
 1383TIP3    H2 4156   1.674   4.365   2.552
 1384TIP3   OH2 4157   2.515   1.938   3.865
 1384TIP3    H1 4158   2.553   2.011   3.815
 1384TIP3    H2 4159   2.576   1.925   3.938
 1385TIP3   OH2 4160   6.039   0.505   0.358
 1385TIP3    H1 4161   6.016   0.496   0.451
 1385TIP3    H2 4162   6.033   0.599   0.341
 1386TIP3   OH2 4163   4.202   1.141   2.490
 1386TIP3    H1 4164   4.108   1.143   2.473
 1386TIP3    H2 4165   4.235   1.071   2.435
 1387TIP3   OH2 4166   1.409   2.470   1.648
 1387TIP3    H1 4167   1.354   2.454   1.725
 1387TIP3    H2 4168   1.421   2.565   1.648
 1388TIP3   OH2 4169   4.216   4.210   0.784
 1388TIP3    H1 4170   4.310   4.194   0.790
 1388TIP3    H2 4171   4.181   4.134   0.737
 1389TIP3   OH2 4172   2.300   1.548   4.263
 1389TIP3    H1 4173   2.302   1.473   4.204
 1389TIP3    H2 4174   2.343   1.618   4.213
 1390TIP3   OH2 4175   4.909   3.265   3.162
 1390TIP3    H1 4176   4.976   3.313   3.210
 1390TIP3    H2 4177   4.847   3.236   3.230
 1391TIP3   OH2 4178   1.945   0.038   4.881
 1391TIP3    H1 4179   1.906   0.121   4.908
 1391TIP3    H2 4180   2.006   0.061   4.811
 1392TIP3   OH2 4181   1.035   4.866   3.414
 1392TIP3    H1 4182   1.067   4.807   3.345
 1392TIP3    H2 4183   0.966   4.816   3.457
 1393TIP3   OH2 4184   4.855   4.033   4.204
 1393TIP3    H1 4185   4.782   4.030   4.142
 1393TIP3    H2 4186   4.929   3.998   4.155
 1394TIP3   OH2 4187   2.363   5.505   2.590
 1394TIP3    H1 4188   2.337   5.590   2.555
 1394TIP3    H2 4189   2.416   5.465   2.521
 1395TIP3   OH2 4190   3.079   1.918   2.420
 1395TIP3    H1 4191   3.046   1.842   2.468
 1395TIP3    H2 4192   3.018   1.930   2.347
 1396TIP3   OH2 4193   5.588   3.837   0.939
 1396TIP3    H1 4194   5.600   3.844   1.034
 1396TIP3    H2 4195   5.545   3.918   0.915
 1397TIP3   OH2 4196   5.727   0.214   2.610
 1397TIP3    H1 4197   5.743   0.156   2.685
 1397TIP3    H2 4198   5.786   0.182   2.542
 1398TIP3   OH2 4199   0.469   1.716   0.752
 1398TIP3    H1 4200   0.557   1.682   0.769
 1398TIP3    H2 4201   0.484   1.806   0.724
 1399TIP3   OH2 4202   5.198   0.409   3.452
 1399TIP3    H1 4203   5.195   0.461   3.532
 1399TIP3    H2 4204   5.172   0.321   3.479
 1400TIP3   OH2 4205   3.784   3.632   2.903
 1400TIP3    H1 4206   3.732   3.664   2.976
 1400TIP3    H2 4207   3.875   3.646   2.930
 1401TIP3   OH2 4208   5.872   1.972   0.366
 1401TIP3    H1 4209   5.784   1.994   0.394
 1401TIP3    H2 4210   5.929   2.017   0.429
 1402TIP3   OH2 4211   0.172   4.484   1.466
 1402TIP3    H1 4212   0.217   4.446   1.391
 1402TIP3    H2 4213   0.132   4.564   1.432
 1403TIP3   OH2 4214   2.244   5.671   1.569
 1403TIP3    H1 4215   2.185   5.651   1.642
 1403TIP3    H2 4216   2.326   5.696   1.612
 1404TIP3   OH2 4217   3.375   5.916   4.075
 1404TIP3    H1 4218   3.291   5.878   4.050
 1404TIP3    H2 4219   3.405   5.960   3.996
 1405TIP3   OH2 4220   5.358   5.363   0.113
 1405TIP3    H1 4221   5.452   5.358   0.131
 1405TIP3    H2 4222   5.345   5.449   0.075
 1406TIP3   OH2 4223   5.950   5.872   3.917
 1406TIP3    H1 4224   5.923   5.787   3.881
 1406TIP3    H2 4225   6.043   5.862   3.937
 1407TIP3   OH2 4226   1.936   2.653   3.957
 1407TIP3    H1 4227   1.868   2.632   4.021
 1407TIP3    H2 4228   1.931   2.748   3.947
 1408TIP3   OH2 4229   5.369   2.248   0.489
 1408TIP3    H1 4230   5.386   2.338   0.517
 1408TIP3    H2 4231   5.365   2.253   0.393
 1409TIP3   OH2 4232   0.186   0.879   3.047
 1409TIP3    H1 4233   0.267   0.911   3.007
 1409TIP3    H2 4234   0.129   0.956   3.051
 1410TIP3   OH2 4235   2.437   2.390   2.182
 1410TIP3    H1 4236   2.396   2.306   2.165
 1410TIP3    H2 4237   2.417   2.442   2.104
 1411TIP3   OH2 4238   4.461   3.472   0.532
 1411TIP3    H1 4239   4.463   3.567   0.520
 1411TIP3    H2 4240   4.403   3.459   0.608
 1412TIP3   OH2 4241   1.808   4.499   3.641
 1412TIP3    H1 4242   1.810   4.425   3.701
 1412TIP3    H2 4243   1.731   4.549   3.667
 1413TIP3   OH2 4244   6.287   4.442   3.431
 1413TIP3    H1 4245   6.292   4.475   3.521
 1413TIP3    H2 4246   6.377   4.446   3.398
 1414TIP3   OH2 4247   4.580   2.417   0.264
 1414TIP3    H1 4248   4.550   2.507   0.270
 1414TIP3    H2 4249   4.561   2.378   0.349
 1415TIP3   OH2 4250   5.733   4.219   1.867
 1415TIP3    H1 4251   5.770   4.179   1.788
 1415TIP3    H2 4252   5.663   4.276   1.834
 1416TIP3   OH2 4253   4.537   1.562   3.148
 1416TIP3    H1 4254   4.464   1.595   3.202
 1416TIP3    H2 4255   4.611   1.560   3.208
 1417TIP3   OH2 4256   2.468   0.037   0.769
 1417TIP3    H1 4257   2.376   0.013   0.780
 1417TIP3    H2 4258   2.484   0.104   0.835
 1418TIP3   OH2 4259   3.801   4.668   0.549
 1418TIP3    H1 4260   3.848   4.743   0.584
 1418TIP3    H2 4261   3.736   4.705   0.490
 1419TIP3   OH2 4262   1.706   3.982   3.448
 1419TIP3    H1 4263   1.733   3.918   3.382
 1419TIP3    H2 4264   1.611   3.981   3.445
 1420TIP3   OH2 4265   0.557   2.979   4.077
 1420TIP3    H1 4266   0.530   3.067   4.104
 1420TIP3    H2 4267   0.476   2.928   4.074
 1421TIP3   OH2 4268   1.468   1.615   0.898
 1421TIP3    H1 4269   1.458   1.679   0.827
 1421TIP3    H2 4270   1.420   1.538   0.867
 1422TIP3   OH2 4271   0.268   1.207   1.669
 1422TIP3    H1 4272   0.224   1.139   1.618
 1422TIP3    H2 4273   0.257   1.178   1.760
 1423TIP3   OH2 4274   5.990   1.369   1.551
 1423TIP3    H1 4275   5.972   1.382   1.458
 1423TIP3    H2 4276   6.079   1.333   1.554
 1424TIP3   OH2 4277   3.903   4.167   3.125
 1424TIP3    H1 4278   3.871   4.124   3.205
 1424TIP3    H2 4279   3.864   4.255   3.128
 1425TIP3   OH2 4280   4.947   0.621   2.859
 1425TIP3    H1 4281   5.026   0.673   2.874
 1425TIP3    H2 4282   4.969   0.535   2.894
 1426TIP3   OH2 4283   3.361   4.012   2.733
 1426TIP3    H1 4284   3.404   3.948   2.676
 1426TIP3    H2 4285   3.378   3.980   2.822
 1427TIP3   OH2 4286   3.812   3.427   4.061
 1427TIP3    H1 4287   3.793   3.521   4.071
 1427TIP3    H2 4288   3.837   3.399   4.149
 1428TIP3   OH2 4289   6.209   1.218   3.181
 1428TIP3    H1 4290   6.157   1.164   3.241
 1428TIP3    H2 4291   6.259   1.276   3.238
 1429TIP3   OH2 4292   1.290   3.463   3.220
 1429TIP3    H1 4293   1.355   3.427   3.280
 1429TIP3    H2 4294   1.209   3.416   3.241
 1430TIP3   OH2 4295   0.404   3.409   2.776
 1430TIP3    H1 4296   0.388   3.315   2.770
 1430TIP3    H2 4297   0.476   3.425   2.715
 1431TIP3   OH2 4298   1.600   1.228   2.090
 1431TIP3    H1 4299   1.580   1.161   2.155
 1431TIP3    H2 4300   1.595   1.183   2.006
 1432TIP3   OH2 4301   1.141   5.349   2.603
 1432TIP3    H1 4302   1.200   5.401   2.658
 1432TIP3    H2 4303   1.054   5.364   2.640
 1433TIP3   OH2 4304   2.769   4.047   3.671
 1433TIP3    H1 4305   2.723   3.992   3.607
 1433TIP3    H2 4306   2.810   3.985   3.731
 1434TIP3   OH2 4307   5.674   0.639   4.537
 1434TIP3    H1 4308   5.629   0.563   4.502
 1434TIP3    H2 4309   5.613   0.712   4.522
 1435TIP3   OH2 4310   2.991   4.227   4.120
 1435TIP3    H1 4311   2.952   4.141   4.136
 1435TIP3    H2 4312   3.083   4.208   4.101
 1436TIP3   OH2 4313   4.328   1.311   4.534
 1436TIP3    H1 4314   4.285   1.227   4.521
 1436TIP3    H2 4315   4.421   1.293   4.520
 1437TIP3   OH2 4316   3.197   2.583   5.113
 1437TIP3    H1 4317   3.137   2.608   5.043
 1437TIP3    H2 4318   3.242   2.664   5.136
 1438TIP3   OH2 4319   4.627   2.571   3.646
 1438TIP3    H1 4320   4.610   2.648   3.592
 1438TIP3    H2 4321   4.609   2.497   3.588
 1439TIP3   OH2 4322   0.355   5.241   4.187
 1439TIP3    H1 4323   0.443   5.275   4.203
 1439TIP3    H2 4324   0.303   5.274   4.261
 1440TIP3   OH2 4325   1.033   4.694   4.366
 1440TIP3    H1 4326   1.126   4.693   4.343
 1440TIP3    H2 4327   0.988   4.680   4.283
 1441TIP3   OH2 4328   2.125   1.638   2.532
 1441TIP3    H1 4329   2.179   1.631   2.452
 1441TIP3    H2 4330   2.158   1.717   2.576
 1442TIP3   OH2 4331   6.265   0.070   3.976
 1442TIP3    H1 4332   6.299   0.156   4.003
 1442TIP3    H2 4333   6.279   0.014   4.053
 1443TIP3   OH2 4334   2.704   3.345   2.062
 1443TIP3    H1 4335   2.753   3.275   2.105
 1443TIP3    H2 4336   2.689   3.410   2.131
 1444TIP3   OH2 4337   5.417   3.268   3.444
 1444TIP3    H1 4338   5.443   3.286   3.534
 1444TIP3    H2 4339   5.488   3.302   3.390
 1445TIP3   OH2 4340   1.328   0.568   4.041
 1445TIP3    H1 4341   1.262   0.636   4.024
 1445TIP3    H2 4342   1.329   0.558   4.136
 1446TIP3   OH2 4343   6.022   1.164   3.789
 1446TIP3    H1 4344   6.040   1.142   3.698
 1446TIP3    H2 4345   6.104   1.144   3.835
 1447TIP3   OH2 4346   3.312   4.937   1.921
 1447TIP3    H1 4347   3.340   5.009   1.977
 1447TIP3    H2 4348   3.220   4.923   1.945
 1448TIP3   OH2 4349   1.348   4.869   2.226
 1448TIP3    H1 4350   1.399   4.941   2.264
 1448TIP3    H2 4351   1.273   4.859   2.285
 1449TIP3   OH2 4352   3.444   5.103   2.884
 1449TIP3    H1 4353   3.432   5.176   2.945
 1449TIP3    H2 4354   3.374   5.042   2.905
 1450TIP3   OH2 4355   3.500   1.121   4.494
 1450TIP3    H1 4356   3.481   1.187   4.561
 1450TIP3    H2 4357   3.421   1.067   4.491
 1451TIP3   OH2 4358   0.331   2.453   3.397
 1451TIP3    H1 4359   0.249   2.414   3.426
 1451TIP3    H2 4360   0.311   2.489   3.310
 1452TIP3   OH2 4361   1.715   5.046   2.772
 1452TIP3    H1 4362   1.736   5.127   2.820
 1452TIP3    H2 4363   1.788   4.988   2.790
 1453TIP3   OH2 4364   2.784   3.877   3.012
 1453TIP3    H1 4365   2.835   3.881   3.092
 1453TIP3    H2 4366   2.702   3.834   3.037
 1454TIP3   OH2 4367   1.950   0.633   1.535
 1454TIP3    H1 4368   2.044   0.620   1.543
 1454TIP3    H2 4369   1.930   0.611   1.444
 1455TIP3   OH2 4370   2.155   0.646   5.141
 1455TIP3    H1 4371   2.130   0.687   5.224
 1455TIP3    H2 4372   2.142   0.714   5.076
 1456TIP3   OH2 4373   6.078   4.648   2.639
 1456TIP3    H1 4374   6.031   4.723   2.602
 1456TIP3    H2 4375   6.096   4.672   2.730
 1457TIP3   OH2 4376   0.215   5.043   2.369
 1457TIP3    H1 4377   0.284   5.079   2.425
 1457TIP3    H2 4378   0.189   4.962   2.413
 1458TIP3   OH2 4379   4.157   1.233   2.219
 1458TIP3    H1 4380   4.214   1.292   2.269
 1458TIP3    H2 4381   4.211   1.203   2.147
 1459TIP3   OH2 4382   0.774   1.280   5.112
 1459TIP3    H1 4383   0.757   1.248   5.201
 1459TIP3    H2 4384   0.839   1.349   5.124
 1460TIP3   OH2 4385   3.956   1.970   4.818
 1460TIP3    H1 4386   4.014   1.961   4.743
 1460TIP3    H2 4387   3.989   1.906   4.881
 1461TIP3   OH2 4388   5.556   5.663   0.583
 1461TIP3    H1 4389   5.496   5.592   0.561
 1461TIP3    H2 4390   5.643   5.624   0.573
 1462TIP3   OH2 4391   1.067   5.503   3.099
 1462TIP3    H1 4392   1.015   5.527   3.022
 1462TIP3    H2 4393   1.014   5.533   3.173
 1463TIP3   OH2 4394  -0.006   3.042   3.731
 1463TIP3    H1 4395  -0.055   3.051   3.813
 1463TIP3    H2 4396   0.046   2.962   3.744
 1464TIP3   OH2 4397   3.011   2.879   4.497
 1464TIP3    H1 4398   2.975   2.791   4.489
 1464TIP3    H2 4399   2.987   2.922   4.415
 1465TIP3   OH2 4400   1.025   0.235   1.246
 1465TIP3    H1 4401   1.063   0.309   1.200
 1465TIP3    H2 4402   1.028   0.260   1.339
 1466TIP3   OH2 4403   0.792   0.361   0.850
 1466TIP3    H1 4404   0.848   0.301   0.900
 1466TIP3    H2 4405   0.760   0.423   0.915
 1467TIP3   OH2 4406   5.146   0.258   4.543
 1467TIP3    H1 4407   5.140   0.292   4.632
 1467TIP3    H2 4408   5.055   0.247   4.514
 1468TIP3   OH2 4409   2.190   4.387   1.103
 1468TIP3    H1 4410   2.152   4.329   1.168
 1468TIP3    H2 4411   2.138   4.467   1.109
 1469TIP3   OH2 4412   5.868   2.688   5.092
 1469TIP3    H1 4413   5.808   2.744   5.043
 1469TIP3    H2 4414   5.811   2.625   5.137
 1470TIP3   OH2 4415   1.974   0.290   0.162
 1470TIP3    H1 4416   1.948   0.382   0.156
 1470TIP3    H2 4417   2.028   0.285   0.241
 1471TIP3   OH2 4418   2.389   4.191   3.826
 1471TIP3    H1 4419   2.481   4.211   3.843
 1471TIP3    H2 4420   2.391   4.132   3.751
 1472TIP3   OH2 4421   3.479   4.059   0.585
 1472TIP3    H1 4422   3.496   4.148   0.616
 1472TIP3    H2 4423   3.453   4.011   0.663
 1473TIP3   OH2 4424   1.236   1.862   2.506
 1473TIP3    H1 4425   1.284   1.874   2.424
 1473TIP3    H2 4426   1.223   1.767   2.513
 1474TIP3   OH2 4427   1.777   4.909   0.998
 1474TIP3    H1 4428   1.740   4.990   1.036
 1474TIP3    H2 4429   1.785   4.850   1.073
 1475TIP3   OH2 4430   3.912   4.482   0.706
 1475TIP3    H1 4431   3.873   4.547   0.647
 1475TIP3    H2 4432   3.957   4.533   0.772
 1476TIP3   OH2 4433   2.638   3.011   0.450
 1476TIP3    H1 4434   2.653   2.917   0.460
 1476TIP3    H2 4435   2.726   3.049   0.446
 1477TIP3   OH2 4436   4.509   1.925   3.791
 1477TIP3    H1 4437   4.446   1.959   3.728
 1477TIP3    H2 4438   4.459   1.914   3.872
 1478TIP3   OH2 4439   1.821   3.829   4.170
 1478TIP3    H1 4440   1.832   3.852   4.262
 1478TIP3    H2 4441   1.902   3.784   4.146
 1479TIP3   OH2 4442   0.579   1.450   3.462
 1479TIP3    H1 4443   0.668   1.479   3.485
 1479TIP3    H2 4444   0.564   1.374   3.518
 1480TIP3   OH2 4445   0.050   3.704   3.120
 1480TIP3    H1 4446   0.073   3.772   3.057
 1480TIP3    H2 4447   0.133   3.665   3.145
 1481TIP3   OH2 4448   4.314   0.968   4.269
 1481TIP3    H1 4449   4.317   1.034   4.199
 1481TIP3    H2 4450   4.365   0.895   4.234
 1482TIP3   OH2 4451   4.821   1.953   3.176
 1482TIP3    H1 4452   4.860   1.950   3.089
 1482TIP3    H2 4453   4.755   1.883   3.175
 1483TIP3   OH2 4454   3.259   4.663   4.310
 1483TIP3    H1 4455   3.346   4.654   4.272
 1483TIP3    H2 4456   3.275   4.669   4.404
 1484TIP3   OH2 4457   4.088   1.215   3.336
 1484TIP3    H1 4458   4.089   1.245   3.427
 1484TIP3    H2 4459   4.121   1.290   3.286
 1485TIP3   OH2 4460   5.554   5.099   0.671
 1485TIP3    H1 4461   5.499   5.128   0.743
 1485TIP3    H2 4462   5.492   5.073   0.603
 1486TIP3   OH2 4463   2.277   3.545   4.226
 1486TIP3    H1 4464   2.283   3.546   4.322
 1486TIP3    H2 4465   2.311   3.630   4.199
 1487TIP3   OH2 4466   3.576   0.684   0.960
 1487TIP3    H1 4467   3.601   0.761   0.908
 1487TIP3    H2 4468   3.481   0.689   0.967
 1488TIP3   OH2 4469   3.035   2.821   0.514
 1488TIP3    H1 4470   3.031   2.848   0.606
 1488TIP3    H2 4471   3.129   2.813   0.496
 1489TIP3   OH2 4472   5.436   0.672   4.813
 1489TIP3    H1 4473   5.451   0.720   4.731
 1489TIP3    H2 4474   5.504   0.705   4.872
 1490TIP3   OH2 4475   5.647   1.315   0.753
 1490TIP3    H1 4476   5.628   1.377   0.824
 1490TIP3    H2 4477   5.742   1.316   0.745
 1491TIP3   OH2 4478   0.298   3.983   3.059
 1491TIP3    H1 4479   0.231   3.931   3.014
 1491TIP3    H2 4480   0.379   3.963   3.013
 1492TIP3   OH2 4481   3.057   3.955   1.408
 1492TIP3    H1 4482   2.964   3.944   1.429
 1492TIP3    H2 4483   3.088   3.866   1.391
 1493TIP3   OH2 4484   4.595   1.863   4.888
 1493TIP3    H1 4485   4.506   1.900   4.893
 1493TIP3    H2 4486   4.636   1.911   4.816
 1494TIP3   OH2 4487   2.951   3.451   3.902
 1494TIP3    H1 4488   2.949   3.531   3.954
 1494TIP3    H2 4489   2.859   3.437   3.876
 1495TIP3   OH2 4490   5.046   3.859   2.658
 1495TIP3    H1 4491   5.122   3.822   2.614
 1495TIP3    H2 4492   5.041   3.949   2.625
 1496TIP3   OH2 4493   4.610   2.255   0.543
 1496TIP3    H1 4494   4.563   2.194   0.486
 1496TIP3    H2 4495   4.702   2.249   0.515
 1497TIP3   OH2 4496   2.729   4.766   1.980
 1497TIP3    H1 4497   2.679   4.737   2.057
 1497TIP3    H2 4498   2.820   4.751   2.004
 1498TIP3   OH2 4499   6.280   2.360   4.558
 1498TIP3    H1 4500   6.329   2.278   4.549
 1498TIP3    H2 4501   6.201   2.336   4.607
 1499TIP3   OH2 4502   5.583  -0.018   0.643
 1499TIP3    H1 4503   5.633   0.022   0.715
 1499TIP3    H2 4504   5.633   0.005   0.564
 1500TIP3   OH2 4505   4.037   5.322  -0.007
 1500TIP3    H1 4506   4.084   5.389   0.043
 1500TIP3    H2 4507   4.089   5.242   0.005
 1501TIP3   OH2 4508   5.802   4.968   0.647
 1501TIP3    H1 4509   5.822   5.001   0.559
 1501TIP3    H2 4510   5.720   5.010   0.670
 1502TIP3   OH2 4511   1.935   3.339   0.527
 1502TIP3    H1 4512   1.871   3.267   0.528
 1502TIP3    H2 4513   1.889   3.412   0.568
 1503TIP3   OH2 4514   3.888   2.694   4.948
 1503TIP3    H1 4515   3.977   2.674   4.979
 1503TIP3    H2 4516   3.898   2.774   4.897
 1504TIP3   OH2 4517   4.877   1.588   0.735
 1504TIP3    H1 4518   4.942   1.520   0.717
 1504TIP3    H2 4519   4.897   1.617   0.824
 1505TIP3   OH2 4520   6.369   1.865   3.902
 1505TIP3    H1 4521   6.397   1.776   3.879
 1505TIP3    H2 4522   6.277   1.869   3.877
 1506TIP3   OH2 4523   1.543   5.314   0.781
 1506TIP3    H1 4524   1.489   5.237   0.762
 1506TIP3    H2 4525   1.618   5.306   0.722
 1507TIP3   OH2 4526   3.218   0.164   0.007
 1507TIP3    H1 4527   3.223   0.087   0.064
 1507TIP3    H2 4528   3.282   0.225   0.043
 1508TIP3   OH2 4529   4.090   2.071   3.018
 1508TIP3    H1 4530   4.121   2.155   3.051
 1508TIP3    H2 4531   4.165   2.012   3.025
 1509TIP3   OH2 4532   4.046   3.381   3.092
 1509TIP3    H1 4533   4.013   3.458   3.139
 1509TIP3    H2 4534   4.125   3.356   3.140
 1510TIP3   OH2 4535   0.567   3.577   1.223
 1510TIP3    H1 4536   0.486   3.620   1.196
 1510TIP3    H2 4537   0.601   3.537   1.143
 1511TIP3   OH2 4538   6.260   0.656   3.085
 1511TIP3    H1 4539   6.322   0.621   3.021
 1511TIP3    H2 4540   6.226   0.736   3.045
 1512TIP3   OH2 4541   1.220   3.159   1.278
 1512TIP3    H1 4542   1.157   3.117   1.337
 1512TIP3    H2 4543   1.202   3.253   1.287
 1513TIP3   OH2 4544   1.541   2.681   3.927
 1513TIP3    H1 4545   1.529   2.682   4.022
 1513TIP3    H2 4546   1.469   2.733   3.893
 1514TIP3   OH2 4547   3.665   1.881   4.901
 1514TIP3    H1 4548   3.692   1.844   4.816
 1514TIP3    H2 4549   3.725   1.953   4.916
 1515TIP3   OH2 4550   0.484   2.693   0.621
 1515TIP3    H1 4551   0.569   2.708   0.662
 1515TIP3    H2 4552   0.486   2.746   0.542
 1516TIP3   OH2 4553   4.680   0.488   1.972
 1516TIP3    H1 4554   4.673   0.530   1.886
 1516TIP3    H2 4555   4.646   0.399   1.959
 1517TIP3   OH2 4556   6.311   5.379   0.027
 1517TIP3    H1 4557   6.313   5.302   0.085
 1517TIP3    H2 4558   6.403   5.395   0.006
 1518TIP3   OH2 4559   5.860   1.727   4.795
 1518TIP3    H1 4560   5.817   1.674   4.862
 1518TIP3    H2 4561   5.794   1.791   4.768
 1519TIP3   OH2 4562   1.855   1.528   0.437
 1519TIP3    H1 4563   1.907   1.514   0.516
 1519TIP3    H2 4564   1.782   1.583   0.465
 1520TIP3   OH2 4565   6.224   0.873   4.477
 1520TIP3    H1 4566   6.255   0.836   4.394
 1520TIP3    H2 4567   6.130   0.889   4.462
 1521TIP3   OH2 4568   6.344   1.966   1.089
 1521TIP3    H1 4569   6.383   1.986   1.174
 1521TIP3    H2 4570   6.283   2.038   1.073
 1522TIP3   OH2 4571   1.038   0.209   2.021
 1522TIP3    H1 4572   1.042   0.159   2.102
 1522TIP3    H2 4573   0.965   0.269   2.034
 1523TIP3   OH2 4574   3.705   2.098   4.725
 1523TIP3    H1 4575   3.798   2.118   4.737
 1523TIP3    H2 4576   3.703   2.015   4.678
 1524TIP3   OH2 4577   6.285   0.391   0.755
 1524TIP3    H1 4578   6.295   0.486   0.758
 1524TIP3    H2 4579   6.236   0.374   0.674
 1525TIP3   OH2 4580   3.419   4.573   0.044
 1525TIP3    H1 4581   3.337   4.591  -0.003
 1525TIP3    H2 4582   3.430   4.648   0.102
 1526TIP3   OH2 4583   3.173   1.724   0.767
 1526TIP3    H1 4584   3.224   1.683   0.837
 1526TIP3    H2 4585   3.236   1.735   0.696
 1527TIP3   OH2 4586   4.523   0.735   2.468
 1527TIP3    H1 4587   4.584   0.690   2.527
 1527TIP3    H2 4588   4.459   0.777   2.526
 1528TIP3   OH2 4589   4.685   2.827   1.846
 1528TIP3    H1 4590   4.700   2.921   1.852
 1528TIP3    H2 4591   4.709   2.805   1.756
 1529TIP3   OH2 4592   3.862   5.517   1.093
 1529TIP3    H1 4593   3.940   5.540   1.044
 1529TIP3    H2 4594   3.829   5.599   1.128
 1530TIP3   OH2 4595   2.778   1.454   0.361
 1530TIP3    H1 4596   2.764   1.433   0.269
 1530TIP3    H2 4597   2.863   1.417   0.382
 1531TIP3   OH2 4598   6.347   4.118   2.865
 1531TIP3    H1 4599   6.407   4.176   2.912
 1531TIP3    H2 4600   6.263   4.130   2.908
 1532TIP3   OH2 4601   3.307   5.412   4.610
 1532TIP3    H1 4602   3.295   5.471   4.535
 1532TIP3    H2 4603   3.306   5.471   4.686
 1533TIP3   OH2 4604   5.253   2.749   1.529
 1533TIP3    H1 4605   5.304   2.674   1.496
 1533TIP3    H2 4606   5.292   2.825   1.486
 1534TIP3   OH2 4607   1.022   2.905   3.011
 1534TIP3    H1 4608   0.942   2.866   2.976
 1534TIP3    H2 4609   1.023   2.878   3.103
 1535TIP3   OH2 4610   0.779   1.948   3.204
 1535TIP3    H1 4611   0.875   1.939   3.208
 1535TIP3    H2 4612   0.765   2.037   3.173
 1536TIP3   OH2 4613   4.717   2.221   1.498
 1536TIP3    H1 4614   4.653   2.151   1.482
 1536TIP3    H2 4615   4.759   2.196   1.580
 1537TIP3   OH2 4616   3.351   2.221   3.892
 1537TIP3    H1 4617   3.412   2.292   3.914
 1537TIP3    H2 4618   3.298   2.210   3.971
 1538TIP3   OH2 4619   0.627   4.913   0.452
 1538TIP3    H1 4620   0.609   4.953   0.367
 1538TIP3    H2 4621   0.711   4.951   0.479
 1539TIP3   OH2 4622   2.352   3.843   2.717
 1539TIP3    H1 4623   2.347   3.749   2.700
 1539TIP3    H2 4624   2.415   3.876   2.654
 1540TIP3   OH2 4625   3.441   5.045   4.640
 1540TIP3    H1 4626   3.456   5.111   4.572
 1540TIP3    H2 4627   3.486   5.078   4.717
 1541TIP3   OH2 4628   2.048   5.857   5.138
 1541TIP3    H1 4629   2.046   5.948   5.170
 1541TIP3    H2 4630   2.133   5.824   5.165
 1542TIP3   OH2 4631   4.249   3.589   2.042
 1542TIP3    H1 4632   4.304   3.656   2.000
 1542TIP3    H2 4633   4.235   3.622   2.131
 1543TIP3   OH2 4634   6.183   1.033   2.091
 1543TIP3    H1 4635   6.141   1.015   2.006
 1543TIP3    H2 4636   6.257   0.972   2.094
 1544TIP3   OH2 4637   5.923   3.457   3.917
 1544TIP3    H1 4638   5.836   3.453   3.877
 1544TIP3    H2 4639   5.922   3.538   3.967
 1545TIP3   OH2 4640   0.650   3.564   4.206
 1545TIP3    H1 4641   0.660   3.592   4.115
 1545TIP3    H2 4642   0.701   3.483   4.211
 1546TIP3   OH2 4643   5.294   4.583   2.927
 1546TIP3    H1 4644   5.349   4.507   2.908
 1546TIP3    H2 4645   5.211   4.547   2.957
 1547TIP3   OH2 4646   4.306   1.517   0.529
 1547TIP3    H1 4647   4.315   1.422   0.524
 1547TIP3    H2 4648   4.284   1.534   0.621
 1548TIP3   OH2 4649   1.480   2.819   3.208
 1548TIP3    H1 4650   1.427   2.741   3.194
 1548TIP3    H2 4651   1.569   2.792   3.186
 1549TIP3   OH2 4652   0.354   2.444   2.343
 1549TIP3    H1 4653   0.305   2.436   2.262
 1549TIP3    H2 4654   0.374   2.353   2.368
 1550TIP3   OH2 4655   2.527   5.368   3.494
 1550TIP3    H1 4656   2.610   5.326   3.472
 1550TIP3    H2 4657   2.465   5.335   3.429
 1551TIP3   OH2 4658   0.354   4.132   4.610
 1551TIP3    H1 4659   0.408   4.054   4.602
 1551TIP3    H2 4660   0.401   4.188   4.671
 1552TIP3   OH2 4661   3.009   5.808   4.388
 1552TIP3    H1 4662   2.992   5.886   4.336
 1552TIP3    H2 4663   3.036   5.741   4.325
 1553TIP3   OH2 4664   4.515   0.347   2.169
 1553TIP3    H1 4665   4.442   0.402   2.144
 1553TIP3    H2 4666   4.540   0.377   2.256
 1554TIP3   OH2 4667   4.807   4.244   0.442
 1554TIP3    H1 4668   4.852   4.200   0.370
 1554TIP3    H2 4669   4.745   4.179   0.475
 1555TIP3   OH2 4670   0.285   1.131   4.673
 1555TIP3    H1 4671   0.308   1.167   4.587
 1555TIP3    H2 4672   0.227   1.057   4.653
 1556TIP3   OH2 4673   5.859   0.986   0.610
 1556TIP3    H1 4674   5.763   0.983   0.610
 1556TIP3    H2 4675   5.881   1.052   0.545
 1557TIP3   OH2 4676   1.783   3.542   1.525
 1557TIP3    H1 4677   1.758   3.507   1.610
 1557TIP3    H2 4678   1.721   3.502   1.463
 1558TIP3   OH2 4679   5.649   5.876   3.143
 1558TIP3    H1 4680   5.698   5.937   3.088
 1558TIP3    H2 4681   5.707   5.858   3.217
 1559TIP3   OH2 4682   3.049   0.847   3.559
 1559TIP3    H1 4683   2.957   0.860   3.535
 1559TIP3    H2 4684   3.060   0.752   3.559
 1560TIP3   OH2 4685   0.591   1.953   4.842
 1560TIP3    H1 4686   0.640   2.033   4.859
 1560TIP3    H2 4687   0.648   1.882   4.873
 1561TIP3   OH2 4688   6.363   2.376   2.548
 1561TIP3    H1 4689   6.324   2.448   2.597
 1561TIP3    H2 4690   6.289   2.329   2.511
 1562TIP3   OH2 4691   3.576   1.585   3.660
 1562TIP3    H1 4692   3.524   1.665   3.667
 1562TIP3    H2 4693   3.589   1.574   3.566
 1563TIP3   OH2 4694   5.201   1.804   0.788
 1563TIP3    H1 4695   5.288   1.825   0.821
 1563TIP3    H2 4696   5.203   1.830   0.696
 1564TIP3   OH2 4697   0.170   0.961   2.440
 1564TIP3    H1 4698   0.225   0.895   2.482
 1564TIP3    H2 4699   0.092   0.913   2.411
 1565TIP3   OH2 4700   4.215   0.006   1.870
 1565TIP3    H1 4701   4.279   0.047   1.929
 1565TIP3    H2 4702   4.269  -0.031   1.800
 1566TIP3   OH2 4703   4.990   0.812   1.083
 1566TIP3    H1 4704   4.906   0.813   1.037
 1566TIP3    H2 4705   4.982   0.740   1.146
 1567TIP3   OH2 4706   3.208   0.770   1.570
 1567TIP3    H1 4707   3.294   0.743   1.536
 1567TIP3    H2 4708   3.209   0.866   1.564
 1568TIP3   OH2 4709   2.833   0.296   4.971
 1568TIP3    H1 4710   2.857   0.381   5.008
 1568TIP3    H2 4711   2.882   0.291   4.889
 1569TIP3   OH2 4712   3.146   3.362   4.219
 1569TIP3    H1 4713   3.168   3.452   4.238
 1569TIP3    H2 4714   3.063   3.347   4.264
 1570TIP3   OH2 4715   1.048   3.835   4.879
 1570TIP3    H1 4716   0.996   3.903   4.837
 1570TIP3    H2 4717   1.118   3.817   4.816
 1571TIP3   OH2 4718   0.911   5.692   5.110
 1571TIP3    H1 4719   0.888   5.782   5.086
 1571TIP3    H2 4720   0.833   5.641   5.087
 1572TIP3   OH2 4721   4.180   4.432   3.898
 1572TIP3    H1 4722   4.242   4.501   3.925
 1572TIP3    H2 4723   4.232   4.373   3.845
 1573TIP3   OH2 4724   6.370   1.233   2.207
 1573TIP3    H1 4725   6.292   1.287   2.220
 1573TIP3    H2 4726   6.338   1.155   2.163
 1574TIP3   OH2 4727   5.198   5.888   4.548
 1574TIP3    H1 4728   5.285   5.859   4.576
 1574TIP3    H2 4729   5.211   5.978   4.518
 1575TIP3   OH2 4730   0.035   2.905   1.597
 1575TIP3    H1 4731   0.011   2.816   1.622
 1575TIP3    H2 4732   0.082   2.895   1.514
 1576TIP3   OH2 4733   4.197   4.008   0.989
 1576TIP3    H1 4734   4.183   4.065   1.064
 1576TIP3    H2 4735   4.206   4.067   0.914
 1577TIP3   OH2 4736   3.481   3.964   1.545
 1577TIP3    H1 4737   3.497   3.894   1.481
 1577TIP3    H2 4738   3.419   4.022   1.502
 1578TIP3   OH2 4739   4.324   1.411   1.678
 1578TIP3    H1 4740   4.304   1.323   1.648
 1578TIP3    H2 4741   4.243   1.441   1.718
 1579TIP3   OH2 4742   6.265   3.266   4.489
 1579TIP3    H1 4743   6.182   3.237   4.452
 1579TIP3    H2 4744   6.244   3.346   4.537
 1580TIP3   OH2 4745   2.364   3.297   3.931
 1580TIP3    H1 4746   2.459   3.304   3.919
 1580TIP3    H2 4747   2.343   3.208   3.902
 1581TIP3   OH2 4748   5.454   2.312   1.715
 1581TIP3    H1 4749   5.391   2.369   1.759
 1581TIP3    H2 4750   5.407   2.280   1.638
 1582TIP3   OH2 4751   6.139   2.906   0.852
 1582TIP3    H1 4752   6.190   2.842   0.903
 1582TIP3    H2 4753   6.059   2.918   0.903
 1583TIP3   OH2 4754   5.048   3.061   1.515
 1583TIP3    H1 4755   5.001   3.115   1.578
 1583TIP3    H2 4756   4.981   3.004   1.477
 1584TIP3   OH2 4757   3.464   4.359   0.589
 1584TIP3    H1 4758   3.441   4.376   0.681
 1584TIP3    H2 4759   3.429   4.434   0.541
 1585TIP3   OH2 4760   0.565   2.254   2.145
 1585TIP3    H1 4761   0.476   2.271   2.113
 1585TIP3    H2 4762   0.621   2.267   2.068
 1586TIP3   OH2 4763   1.045   2.824   0.178
 1586TIP3    H1 4764   1.039   2.731   0.157
 1586TIP3    H2 4765   0.971   2.864   0.132
 1587TIP3   OH2 4766   3.092   4.108   2.191
 1587TIP3    H1 4767   3.069   4.015   2.186
 1587TIP3    H2 4768   3.134   4.117   2.277
 1588TIP3   OH2 4769   4.256   5.492   2.252
 1588TIP3    H1 4770   4.230   5.552   2.321
 1588TIP3    H2 4771   4.333   5.447   2.286
 1589TIP3   OH2 4772   1.429   2.743   4.178
 1589TIP3    H1 4773   1.367   2.795   4.228
 1589TIP3    H2 4774   1.465   2.681   4.241
 1590TIP3   OH2 4775   1.125   3.449   4.156
 1590TIP3    H1 4776   1.155   3.499   4.232
 1590TIP3    H2 4777   1.180   3.481   4.084
 1591TIP3   OH2 4778   5.694   6.020   3.654
 1591TIP3    H1 4779   5.661   5.954   3.593
 1591TIP3    H2 4780   5.789   6.016   3.645
 1592TIP3   OH2 4781   0.212   2.676   2.914
 1592TIP3    H1 4782   0.202   2.582   2.905
 1592TIP3    H2 4783   0.123   2.708   2.934
 1593TIP3   OH2 4784   3.548   5.754   1.756
 1593TIP3    H1 4785   3.522   5.666   1.782
 1593TIP3    H2 4786   3.480   5.782   1.694
 1594TIP3   OH2 4787   5.229   3.754   1.266
 1594TIP3    H1 4788   5.206   3.669   1.304
 1594TIP3    H2 4789   5.169   3.816   1.307
 1595TIP3   OH2 4790   3.534  -0.031   2.704
 1595TIP3    H1 4791   3.463   0.029   2.684
 1595TIP3    H2 4792   3.547  -0.023   2.799
 1596TIP3   OH2 4793   0.206   0.865   1.263
 1596TIP3    H1 4794   0.209   0.787   1.208
 1596TIP3    H2 4795   0.275   0.852   1.328
 1597TIP3   OH2 4796   4.557   5.978   1.431
 1597TIP3    H1 4797   4.545   6.063   1.388
 1597TIP3    H2 4798   4.520   5.914   1.370
 1598TIP3   OH2 4799   6.347   3.138   1.146
 1598TIP3    H1 4800   6.393   3.060   1.117
 1598TIP3    H2 4801   6.349   3.197   1.070
 1599TIP3   OH2 4802   1.801   1.453   4.203
 1599TIP3    H1 4803   1.838   1.369   4.229
 1599TIP3    H2 4804   1.723   1.430   4.153
 1600TIP3   OH2 4805   4.730   0.729   0.970
 1600TIP3    H1 4806   4.755   0.767   0.885
 1600TIP3    H2 4807   4.733   0.635   0.956
 1601TIP3   OH2 4808   4.023   5.618   1.897
 1601TIP3    H1 4809   4.087   5.549   1.884
 1601TIP3    H2 4810   3.938   5.575   1.883
 1602TIP3   OH2 4811   4.460   5.079   3.144
 1602TIP3    H1 4812   4.403   5.021   3.094
 1602TIP3    H2 4813   4.453   5.047   3.234
 1603TIP3   OH2 4814   2.367   5.549   3.232
 1603TIP3    H1 4815   2.432   5.608   3.272
 1603TIP3    H2 4816   2.288   5.604   3.223
 1604TIP3   OH2 4817   4.252   2.860   3.692
 1604TIP3    H1 4818   4.211   2.846   3.606
 1604TIP3    H2 4819   4.219   2.946   3.721
 1605TIP3   OH2 4820   2.865   5.318   3.948
 1605TIP3    H1 4821   2.840   5.257   4.017
 1605TIP3    H2 4822   2.802   5.390   3.956
 1606TIP3   OH2 4823   0.205   5.022   1.387
 1606TIP3    H1 4824   0.121   5.016   1.341
 1606TIP3    H2 4825   0.189   4.978   1.470
 1607TIP3   OH2 4826   5.216   5.854   1.232
 1607TIP3    H1 4827   5.246   5.830   1.319
 1607TIP3    H2 4828   5.288   5.830   1.174
 1608TIP3   OH2 4829   5.852   1.737   4.250
 1608TIP3    H1 4830   5.940   1.748   4.286
 1608TIP3    H2 4831   5.798   1.799   4.299
 1609TIP3   OH2 4832   6.085   2.712   4.379
 1609TIP3    H1 4833   6.064   2.625   4.413
 1609TIP3    H2 4834   6.180   2.718   4.386
 1610TIP3   OH2 4835   0.074   1.528   0.251
 1610TIP3    H1 4836   0.028   1.601   0.210
 1610TIP3    H2 4837   0.043   1.528   0.342
 1611TIP3   OH2 4838   2.272   0.773   0.659
 1611TIP3    H1 4839   2.206   0.760   0.727
 1611TIP3    H2 4840   2.267   0.867   0.639
 1612TIP3   OH2 4841   1.025   3.180   0.715
 1612TIP3    H1 4842   0.983   3.140   0.639
 1612TIP3    H2 4843   1.115   3.194   0.689
 1613TIP3   OH2 4844   3.691   3.120   0.377
 1613TIP3    H1 4845   3.754   3.192   0.384
 1613TIP3    H2 4846   3.672   3.113   0.284
 1614TIP3   OH2 4847   1.719   0.023   2.319
 1614TIP3    H1 4848   1.664   0.068   2.254
 1614TIP3    H2 4849   1.669  -0.055   2.343
 1615TIP3   OH2 4850   4.448   5.211   3.618
 1615TIP3    H1 4851   4.391   5.287   3.625
 1615TIP3    H2 4852   4.400   5.141   3.662
 1616TIP3   OH2 4853   4.230   0.987   2.049
 1616TIP3    H1 4854   4.139   0.994   2.021
 1616TIP3    H2 4855   4.261   0.906   2.010
 1617TIP3   OH2 4856   6.093   1.647   2.256
 1617TIP3    H1 4857   6.086   1.579   2.323
 1617TIP3    H2 4858   6.137   1.605   2.183
 1618TIP3   OH2 4859   0.479   1.450   4.959
 1618TIP3    H1 4860   0.538   1.375   4.962
 1618TIP3    H2 4861   0.405   1.420   4.907
 1619TIP3   OH2 4862   3.881   3.291   4.300
 1619TIP3    H1 4863   3.869   3.202   4.266
 1619TIP3    H2 4864   3.874   3.281   4.395
 1620TIP3   OH2 4865   6.166   4.323   4.153
 1620TIP3    H1 4866   6.166   4.234   4.188
 1620TIP3    H2 4867   6.254   4.334   4.117
 1621TIP3   OH2 4868   5.127   4.241   0.717
 1621TIP3    H1 4869   5.166   4.317   0.674
 1621TIP3    H2 4870   5.175   4.233   0.800
 1622TIP3   OH2 4871   0.982   0.418   2.925
 1622TIP3    H1 4872   1.076   0.426   2.939
 1622TIP3    H2 4873   0.945   0.497   2.965
 1623TIP3   OH2 4874   4.974   5.797   1.722
 1623TIP3    H1 4875   4.958   5.802   1.628
 1623TIP3    H2 4876   4.979   5.703   1.740
 1624TIP3   OH2 4877   2.737   3.086   3.291
 1624TIP3    H1 4878   2.819   3.129   3.264
 1624TIP3    H2 4879   2.694   3.062   3.209
 1625TIP3   OH2 4880   0.814   3.376   4.604
 1625TIP3    H1 4881   0.839   3.468   4.602
 1625TIP3    H2 4882   0.723   3.375   4.574
 1626TIP3   OH2 4883   0.549   1.408   4.529
 1626TIP3    H1 4884   0.518   1.484   4.579
 1626TIP3    H2 4885   0.469   1.362   4.503
 1627TIP3   OH2 4886   4.281   4.403   2.672
 1627TIP3    H1 4887   4.348   4.400   2.604
 1627TIP3    H2 4888   4.198   4.395   2.625
 1628TIP3   OH2 4889   0.746   3.571   0.489
 1628TIP3    H1 4890   0.709   3.605   0.407
 1628TIP3    H2 4891   0.829   3.531   0.463
 1629TIP3   OH2 4892   4.211   3.090   3.426
 1629TIP3    H1 4893   4.212   2.996   3.439
 1629TIP3    H2 4894   4.129   3.107   3.379
 1630TIP3   OH2 4895   2.446   1.929   3.018
 1630TIP3    H1 4896   2.415   1.861   3.077
 1630TIP3    H2 4897   2.532   1.953   3.051
 1631TIP3   OH2 4898   6.153   3.739   2.924
 1631TIP3    H1 4899   6.180   3.661   2.973
 1631TIP3    H2 4900   6.213   3.742   2.850
 1632TIP3   OH2 4901   5.504   0.066   0.275
 1632TIP3    H1 4902   5.527   0.138   0.216
 1632TIP3    H2 4903   5.409   0.076   0.288
 1633TIP3   OH2 4904   1.567   4.790   1.794
 1633TIP3    H1 4905   1.480   4.783   1.832
 1633TIP3    H2 4906   1.592   4.881   1.808
 1634TIP3   OH2 4907   6.083   1.782   4.612
 1634TIP3    H1 4908   6.075   1.721   4.538
 1634TIP3    H2 4909   6.003   1.766   4.663
 1635TIP3   OH2 4910   0.438   4.060   3.452
 1635TIP3    H1 4911   0.479   4.140   3.484
 1635TIP3    H2 4912   0.440   4.000   3.526
 1636TIP3   OH2 4913   5.208   4.488   2.482
 1636TIP3    H1 4914   5.230   4.395   2.488
 1636TIP3    H2 4915   5.130   4.496   2.538
 1637TIP3   OH2 4916   4.349   2.171   1.647
 1637TIP3    H1 4917   4.291   2.191   1.574
 1637TIP3    H2 4918   4.319   2.228   1.718
 1638TIP3   OH2 4919   4.707   3.496   0.785
 1638TIP3    H1 4920   4.714   3.591   0.774
 1638TIP3    H2 4921   4.704   3.483   0.880
 1639TIP3   OH2 4922   1.067   3.864   4.521
 1639TIP3    H1 4923   1.071   3.953   4.487
 1639TIP3    H2 4924   1.140   3.859   4.583
 1640TIP3   OH2 4925   1.337   3.477   3.952
 1640TIP3    H1 4926   1.393   3.532   3.898
 1640TIP3    H2 4927   1.398   3.430   4.010
 1641TIP3   OH2 4928   4.750   5.244   3.200
 1641TIP3    H1 4929   4.680   5.287   3.151
 1641TIP3    H2 4930   4.711   5.227   3.286
 1642TIP3   OH2 4931   4.804   1.265   5.094
 1642TIP3    H1 4932   4.723   1.215   5.100
 1642TIP3    H2 4933   4.830   1.282   5.184
 1643TIP3   OH2 4934   4.775   2.177   4.845
 1643TIP3    H1 4935   4.696   2.138   4.807
 1643TIP3    H2 4936   4.798   2.249   4.786
 1644TIP3   OH2 4937   4.663   0.523   4.113
 1644TIP3    H1 4938   4.590   0.580   4.136
 1644TIP3    H2 4939   4.719   0.523   4.190
 1645TIP3   OH2 4940   5.240   5.466   5.010
 1645TIP3    H1 4941   5.262   5.525   5.082
 1645TIP3    H2 4942   5.177   5.515   4.958
 1646TIP3   OH2 4943   2.991   2.419   2.288
 1646TIP3    H1 4944   3.001   2.352   2.355
 1646TIP3    H2 4945   2.910   2.465   2.312
 1647TIP3   OH2 4946   4.943   5.607   1.495
 1647TIP3    H1 4947   4.904   5.694   1.484
 1647TIP3    H2 4948   4.874   5.546   1.472
 1648TIP3   OH2 4949   1.752   5.915   0.272
 1648TIP3    H1 4950   1.658   5.931   0.263
 1648TIP3    H2 4951   1.771   5.848   0.207
 1649TIP3   OH2 4952   4.596   2.095   2.221
 1649TIP3    H1 4953   4.611   2.189   2.216
 1649TIP3    H2 4954   4.633   2.060   2.140
 1650TIP3   OH2 4955   5.552   5.096   0.189
 1650TIP3    H1 4956   5.553   5.192   0.189
 1650TIP3    H2 4957   5.640   5.071   0.159
 1651TIP3   OH2 4958   2.369   3.793   4.173
 1651TIP3    H1 4959   2.379   3.872   4.226
 1651TIP3    H2 4960   2.328   3.822   4.092
 1652TIP3   OH2 4961   1.100   4.451   4.727
 1652TIP3    H1 4962   1.187   4.441   4.689
 1652TIP3    H2 4963   1.085   4.546   4.729
 1653TIP3   OH2 4964   1.191   3.070   1.744
 1653TIP3    H1 4965   1.151   3.107   1.823
 1653TIP3    H2 4966   1.233   3.144   1.702
 1654TIP3   OH2 4967   4.157   0.768   0.882
 1654TIP3    H1 4968   4.072   0.740   0.916
 1654TIP3    H2 4969   4.219   0.749   0.952
 1655TIP3   OH2 4970   0.348   2.419   2.816
 1655TIP3    H1 4971   0.437   2.408   2.850
 1655TIP3    H2 4972   0.361   2.464   2.732
 1656TIP3   OH2 4973   2.210   0.376   1.073
 1656TIP3    H1 4974   2.197   0.459   1.120
 1656TIP3    H2 4975   2.146   0.316   1.113
 1657TIP3   OH2 4976   1.836   1.526   3.861
 1657TIP3    H1 4977   1.880   1.582   3.798
 1657TIP3    H2 4978   1.889   1.446   3.864
 1658TIP3   OH2 4979   1.994   2.305   1.081
 1658TIP3    H1 4980   2.041   2.388   1.082
 1658TIP3    H2 4981   2.018   2.263   1.163
 1659TIP3   OH2 4982   1.884   2.390   4.694
 1659TIP3    H1 4983   1.815   2.455   4.681
 1659TIP3    H2 4984   1.871   2.358   4.783
 1660TIP3   OH2 4985   3.514   2.556   3.482
 1660TIP3    H1 4986   3.565   2.566   3.401
 1660TIP3    H2 4987   3.580   2.554   3.551
 1661TIP3   OH2 4988   2.135   3.862   3.160
 1661TIP3    H1 4989   2.184   3.887   3.082
 1661TIP3    H2 4990   2.056   3.820   3.126
 1662TIP3   OH2 4991   4.527   4.291   3.526
 1662TIP3    H1 4992   4.596   4.271   3.589
 1662TIP3    H2 4993   4.533   4.386   3.513
 1663TIP3   OH2 4994   5.154   0.701   2.111
 1663TIP3    H1 4995   5.102   0.720   2.033
 1663TIP3    H2 4996   5.091   0.666   2.174
 1664TIP3   OH2 4997   1.039   3.710   1.191
 1664TIP3    H1 4998   0.964   3.696   1.249
 1664TIP3    H2 4999   1.000   3.737   1.108
 1665TIP3   OH2 5000   2.212   3.138   2.076
 1665TIP3    H1 5001   2.200   3.224   2.037
 1665TIP3    H2 5002   2.124   3.101   2.081
 1666TIP3   OH2 5003   5.540   3.263   3.095
 1666TIP3    H1 5004   5.617   3.318   3.081
 1666TIP3    H2 5005   5.467   3.317   3.066
 1667TIP3   OH2 5006   3.064   3.373   0.233
 1667TIP3    H1 5007   3.057   3.441   0.300
 1667TIP3    H2 5008   3.090   3.295   0.281
 1668TIP3   OH2 5009   2.077   2.336   3.208
 1668TIP3    H1 5010   2.023   2.398   3.160
 1668TIP3    H2 5011   2.166   2.352   3.178
 1669TIP3   OH2 5012   5.884   5.796   0.393
 1669TIP3    H1 5013   5.934   5.716   0.379
 1669TIP3    H2 5014   5.814   5.792   0.328
 1670TIP3   OH2 5015   5.580   5.894   4.965
 1670TIP3    H1 5016   5.672   5.895   4.990
 1670TIP3    H2 5017   5.580   5.911   4.871
 1671TIP3   OH2 5018   4.812   0.394   2.681
 1671TIP3    H1 5019   4.882   0.394   2.615
 1671TIP3    H2 5020   4.821   0.479   2.725
 1672TIP3   OH2 5021   5.722   1.564   4.967
 1672TIP3    H1 5022   5.663   1.631   5.002
 1672TIP3    H2 5023   5.665   1.506   4.917
 1673TIP3   OH2 5024   5.805   2.273   0.372
 1673TIP3    H1 5025   5.764   2.341   0.319
 1673TIP3    H2 5026   5.885   2.314   0.405
 1674TIP3   OH2 5027   2.262   3.305   3.088
 1674TIP3    H1 5028   2.292   3.275   3.173
 1674TIP3    H2 5029   2.187   3.363   3.107
 1675TIP3   OH2 5030   1.594   5.637   1.853
 1675TIP3    H1 5031   1.533   5.613   1.783
 1675TIP3    H2 5032   1.638   5.715   1.822
 1676TIP3   OH2 5033   5.271   4.786   2.141
 1676TIP3    H1 5034   5.186   4.785   2.185
 1676TIP3    H2 5035   5.302   4.696   2.147
 1677TIP3   OH2 5036   1.155   3.111   0.286
 1677TIP3    H1 5037   1.226   3.082   0.229
 1677TIP3    H2 5038   1.101   3.166   0.229
 1678TIP3   OH2 5039   5.720   2.891   4.919
 1678TIP3    H1 5040   5.697   2.976   4.957
 1678TIP3    H2 5041   5.636   2.846   4.909
 1679TIP3   OH2 5042   2.489   1.364   2.107
 1679TIP3    H1 5043   2.468   1.455   2.084
 1679TIP3    H2 5044   2.415   1.313   2.073
 1680TIP3   OH2 5045   5.784   3.890   1.668
 1680TIP3    H1 5046   5.847   3.953   1.702
 1680TIP3    H2 5047   5.838   3.814   1.644
 1681TIP3   OH2 5048   1.679   2.858   0.748
 1681TIP3    H1 5049   1.593   2.892   0.720
 1681TIP3    H2 5050   1.708   2.804   0.675
 1682TIP3   OH2 5051   5.220   0.924   4.223
 1682TIP3    H1 5052   5.194   0.903   4.133
 1682TIP3    H2 5053   5.289   0.861   4.243
 1683TIP3   OH2 5054   5.935   3.408   2.218
 1683TIP3    H1 5055   5.845   3.422   2.246
 1683TIP3    H2 5056   5.945   3.462   2.140
 1684TIP3   OH2 5057   5.946   5.526   2.794
 1684TIP3    H1 5058   5.920   5.564   2.878
 1684TIP3    H2 5059   6.022   5.579   2.767
 1685TIP3   OH2 5060   2.428   0.789   2.001
 1685TIP3    H1 5061   2.377   0.757   2.075
 1685TIP3    H2 5062   2.415   0.724   1.932
 1686TIP3   OH2 5063   3.327   5.882   2.149
 1686TIP3    H1 5064   3.416   5.889   2.115
 1686TIP3    H2 5065   3.274   5.933   2.088
 1687TIP3   OH2 5066   0.798   5.201   3.989
 1687TIP3    H1 5067   0.856   5.129   3.962
 1687TIP3    H2 5068   0.817   5.271   3.927
 1688TIP3   OH2 5069   3.283   2.959   4.673
 1688TIP3    H1 5070   3.212   3.013   4.707
 1688TIP3    H2 5071   3.266   2.954   4.579
 1689TIP3   OH2 5072   5.156   1.712   2.882
 1689TIP3    H1 5073   5.168   1.640   2.819
 1689TIP3    H2 5074   5.215   1.690   2.954
 1690TIP3   OH2 5075   3.849   3.615   4.926
 1690TIP3    H1 5076   3.850   3.525   4.891
 1690TIP3    H2 5077   3.779   3.658   4.876
 1691TIP3   OH2 5078   5.758   3.049   2.317
 1691TIP3    H1 5079   5.826   3.116   2.308
 1691TIP3    H2 5080   5.786   2.978   2.258
 1692TIP3   OH2 5081   1.726   4.436   1.753
 1692TIP3    H1 5082   1.671   4.482   1.816
 1692TIP3    H2 5083   1.791   4.390   1.807
 1693TIP3   OH2 5084   1.017   1.605   5.201
 1693TIP3    H1 5085   1.028   1.575   5.110
 1693TIP3    H2 5086   0.936   1.656   5.199
 1694TIP3   OH2 5087   2.153   1.031   0.053
 1694TIP3    H1 5088   2.206   1.053  -0.023
 1694TIP3    H2 5089   2.067   1.069   0.034
 1695TIP3   OH2 5090   2.253   3.975   2.951
 1695TIP3    H1 5091   2.283   3.971   2.860
 1695TIP3    H2 5092   2.332   3.961   3.003
 1696TIP3   OH2 5093   2.152   0.864   4.939
 1696TIP3    H1 5094   2.081   0.846   4.877
 1696TIP3    H2 5095   2.163   0.959   4.934
 1697TIP3   OH2 5096   4.794   2.546   5.019
 1697TIP3    H1 5097   4.806   2.481   4.950
 1697TIP3    H2 5098   4.826   2.503   5.098
 1698TIP3   OH2 5099   2.939   3.174   1.475
 1698TIP3    H1 5100   2.906   3.094   1.434
 1698TIP3    H2 5101   2.861   3.225   1.494
 1699TIP3   OH2 5102   6.078   4.608   4.120
 1699TIP3    H1 5103   6.100   4.522   4.156
 1699TIP3    H2 5104   6.162   4.649   4.103
 1700TIP3   OH2 5105   1.117   3.392   2.799
 1700TIP3    H1 5106   1.162   3.349   2.725
 1700TIP3    H2 5107   1.108   3.322   2.864
 1701TIP3   OH2 5108   0.303   1.683   2.852
 1701TIP3    H1 5109   0.336   1.712   2.936
 1701TIP3    H2 5110   0.215   1.721   2.846
 1702TIP3   OH2 5111   4.683   0.735   2.233
 1702TIP3    H1 5112   4.729   0.652   2.234
 1702TIP3    H2 5113   4.666   0.755   2.325
 1703TIP3   OH2 5114   1.772   4.692   4.523
 1703TIP3    H1 5115   1.796   4.767   4.577
 1703TIP3    H2 5116   1.816   4.618   4.563
 1704TIP3   OH2 5117   1.758   2.655   0.602
 1704TIP3    H1 5118   1.699   2.584   0.629
 1704TIP3    H2 5119   1.843   2.612   0.589
 1705TIP3   OH2 5120   4.718   1.860   2.883
 1705TIP3    H1 5121   4.633   1.905   2.878
 1705TIP3    H2 5122   4.707   1.782   2.827
 1706TIP3   OH2 5123   2.394   0.427   2.188
 1706TIP3    H1 5124   2.465   0.373   2.155
 1706TIP3    H2 5125   2.325   0.419   2.122
 1707TIP3   OH2 5126   1.296   1.646   1.977
 1707TIP3    H1 5127   1.314   1.559   1.940
 1707TIP3    H2 5128   1.295   1.705   1.902
 1708TIP3   OH2 5129   5.222   2.604   1.184
 1708TIP3    H1 5130   5.295   2.638   1.131
 1708TIP3    H2 5131   5.222   2.510   1.166
 1709TIP3   OH2 5132   6.084   4.865   1.612
 1709TIP3    H1 5133   6.171   4.839   1.641
 1709TIP3    H2 5134   6.028   4.847   1.688
 1710TIP3   OH2 5135   2.926   2.962   2.519
 1710TIP3    H1 5136   2.836   2.933   2.507
 1710TIP3    H2 5137   2.951   2.999   2.434
 1711TIP3   OH2 5138   5.600   0.894   1.447
 1711TIP3    H1 5139   5.672   0.956   1.440
 1711TIP3    H2 5140   5.578   0.873   1.356
 1712TIP3   OH2 5141   1.050   4.093   1.841
 1712TIP3    H1 5142   1.142   4.079   1.821
 1712TIP3    H2 5143   1.047   4.106   1.936
 1713TIP3   OH2 5144   0.103   5.682   2.597
 1713TIP3    H1 5145   0.094   5.594   2.560
 1713TIP3    H2 5146   0.154   5.731   2.532
 1714TIP3   OH2 5147   3.662   2.211   4.266
 1714TIP3    H1 5148   3.731   2.185   4.327
 1714TIP3    H2 5149   3.581   2.188   4.310
 1715TIP3   OH2 5150   2.998   4.832   1.525
 1715TIP3    H1 5151   2.981   4.858   1.616
 1715TIP3    H2 5152   3.072   4.886   1.498
 1716TIP3   OH2 5153   0.111   4.858   3.630
 1716TIP3    H1 5154   0.153   4.938   3.596
 1716TIP3    H2 5155   0.040   4.840   3.568
 1717TIP3   OH2 5156   0.990   0.107   0.975
 1717TIP3    H1 5157   0.982   0.162   1.052
 1717TIP3    H2 5158   1.085   0.094   0.965
 1718TIP3   OH2 5159   5.866   2.674   3.519
 1718TIP3    H1 5160   5.772   2.692   3.516
 1718TIP3    H2 5161   5.899   2.706   3.435
 1719TIP3   OH2 5162   3.719   1.152   4.336
 1719TIP3    H1 5163   3.649   1.158   4.400
 1719TIP3    H2 5164   3.722   1.238   4.294
 1720TIP3   OH2 5165   6.358   5.034   1.184
 1720TIP3    H1 5166   6.270   5.066   1.162
 1720TIP3    H2 5167   6.413   5.113   1.180
 1721TIP3   OH2 5168   2.436   3.187   3.624
 1721TIP3    H1 5169   2.438   3.133   3.703
 1721TIP3    H2 5170   2.449   3.125   3.552
 1722TIP3   OH2 5171   4.659   5.579   3.333
 1722TIP3    H1 5172   4.656   5.673   3.351
 1722TIP3    H2 5173   4.641   5.538   3.417
 1723TIP3   OH2 5174   1.244   2.424   3.586
 1723TIP3    H1 5175   1.214   2.375   3.510
 1723TIP3    H2 5176   1.271   2.509   3.551
 1724TIP3   OH2 5177   4.110   2.154   1.487
 1724TIP3    H1 5178   4.129   2.070   1.445
 1724TIP3    H2 5179   4.109   2.217   1.415
 1725TIP3   OH2 5180   3.101   0.086   2.915
 1725TIP3    H1 5181   3.027   0.129   2.958
 1725TIP3    H2 5182   3.179   0.127   2.952
 1726TIP3   OH2 5183   2.996   1.248   5.046
 1726TIP3    H1 5184   3.065   1.281   4.988
 1726TIP3    H2 5185   2.924   1.310   5.037
 1727TIP3   OH2 5186   5.091   1.583   0.469
 1727TIP3    H1 5187   5.077   1.561   0.377
 1727TIP3    H2 5188   5.132   1.669   0.468
 1728TIP3   OH2 5189   3.330   3.938   0.773
 1728TIP3    H1 5190   3.285   3.976   0.848
 1728TIP3    H2 5191   3.355   3.851   0.801
 1729TIP3   OH2 5192   5.305   2.662   3.521
 1729TIP3    H1 5193   5.248   2.664   3.598
 1729TIP3    H2 5194   5.305   2.752   3.489
 1730TIP3   OH2 5195   4.806   1.231   0.575
 1730TIP3    H1 5196   4.823   1.136   0.574
 1730TIP3    H2 5197   4.857   1.263   0.650
 1731TIP3   OH2 5198   2.345   5.335   0.460
 1731TIP3    H1 5199   2.421   5.393   0.466
 1731TIP3    H2 5200   2.284   5.370   0.525
 1732TIP3   OH2 5201   1.666   0.261   2.849
 1732TIP3    H1 5202   1.635   0.257   2.758
 1732TIP3    H2 5203   1.755   0.297   2.842
 1733TIP3   OH2 5204   1.285   2.733   0.725
 1733TIP3    H1 5205   1.201   2.690   0.738
 1733TIP3    H2 5206   1.345   2.687   0.785
 1734TIP3   OH2 5207   5.335   0.934   4.987
 1734TIP3    H1 5208   5.426   0.916   4.963
 1734TIP3    H2 5209   5.303   0.992   4.917
 1735TIP3   OH2 5210   6.021   0.678   2.467
 1735TIP3    H1 5211   5.951   0.613   2.462
 1735TIP3    H2 5212   5.987   0.745   2.526
 1736TIP3   OH2 5213   5.377   2.120   0.969
 1736TIP3    H1 5214   5.377   2.101   0.875
 1736TIP3    H2 5215   5.331   2.204   0.976
 1737TIP3   OH2 5216   3.824   5.948   3.740
 1737TIP3    H1 5217   3.876   6.020   3.705
 1737TIP3    H2 5218   3.887   5.881   3.764
 1738TIP3   OH2 5219   5.190   5.710   4.089
 1738TIP3    H1 5220   5.157   5.722   4.178
 1738TIP3    H2 5221   5.192   5.615   4.077
 1739TIP3   OH2 5222   3.632   0.012   4.637
 1739TIP3    H1 5223   3.655  -0.031   4.555
 1739TIP3    H2 5224   3.715   0.042   4.673
 1740TIP3   OH2 5225   0.687   5.267   4.647
 1740TIP3    H1 5226   0.722   5.301   4.730
 1740TIP3    H2 5227   0.616   5.328   4.625
 1741TIP3   OH2 5228   5.406   3.252   2.605
 1741TIP3    H1 5229   5.461   3.328   2.623
 1741TIP3    H2 5230   5.338   3.255   2.671
 1742TIP3   OH2 5231   4.503   2.033   5.190
 1742TIP3    H1 5232   4.414   2.034   5.154
 1742TIP3    H2 5233   4.526   1.940   5.194
 1743TIP3   OH2 5234   5.533   3.529   3.010
 1743TIP3    H1 5235   5.455   3.517   3.063
 1743TIP3    H2 5236   5.596   3.572   3.067
 1744TIP3   OH2 5237   0.299   4.623   2.943
 1744TIP3    H1 5238   0.235   4.573   2.994
 1744TIP3    H2 5239   0.317   4.568   2.867
 1745TIP3   OH2 5240   1.883   1.725   2.601
 1745TIP3    H1 5241   1.978   1.715   2.595
 1745TIP3    H2 5242   1.851   1.707   2.513
 1746TIP3   OH2 5243   0.639   5.618   3.230
 1746TIP3    H1 5244   0.689   5.577   3.300
 1746TIP3    H2 5245   0.606   5.699   3.268
 1747TIP3   OH2 5246   1.676   4.177   2.309
 1747TIP3    H1 5247   1.638   4.240   2.248
 1747TIP3    H2 5248   1.730   4.120   2.253
 1748TIP3   OH2 5249   1.865   2.856   2.784
 1748TIP3    H1 5250   1.826   2.934   2.825
 1748TIP3    H2 5251   1.809   2.784   2.813
 1749TIP3   OH2 5252   1.576   2.444   2.958
 1749TIP3    H1 5253   1.506   2.494   2.916
 1749TIP3    H2 5254   1.560   2.353   2.931
 1750TIP3   OH2 5255   5.183   3.900   0.275
 1750TIP3    H1 5256   5.186   3.952   0.195
 1750TIP3    H2 5257   5.251   3.938   0.331
 1751TIP3   OH2 5258   4.139   1.036   0.328
 1751TIP3    H1 5259   4.219   1.001   0.289
 1751TIP3    H2 5260   4.164   1.124   0.358
 1752TIP3   OH2 5261   6.031   3.637   5.106
 1752TIP3    H1 5262   6.113   3.680   5.130
 1752TIP3    H2 5263   6.058   3.557   5.061
 1753TIP3   OH2 5264   1.887   2.173   0.873
 1753TIP3    H1 5265   1.792   2.181   0.878
 1753TIP3    H2 5266   1.919   2.210   0.955
 1754TIP3   OH2 5267   1.949   4.404   0.872
 1754TIP3    H1 5268   1.952   4.318   0.915
 1754TIP3    H2 5269   1.965   4.467   0.943
 1755TIP3   OH2 5270   1.349   1.787   0.709
 1755TIP3    H1 5271   1.338   1.871   0.665
 1755TIP3    H2 5272   1.321   1.722   0.645
 1756TIP3   OH2 5273   5.793   5.532   0.567
 1756TIP3    H1 5274   5.887   5.544   0.555
 1756TIP3    H2 5275   5.785   5.449   0.615
 1757TIP3   OH2 5276   1.154   5.831   3.267
 1757TIP3    H1 5277   1.114   5.770   3.328
 1757TIP3    H2 5278   1.179   5.906   3.321
 1758TIP3   OH2 5279   1.255   3.340   2.539
 1758TIP3    H1 5280   1.313   3.416   2.541
 1758TIP3    H2 5281   1.313   3.265   2.533
 1759TIP3   OH2 5282   2.694   2.810   0.750
 1759TIP3    H1 5283   2.704   2.715   0.747
 1759TIP3    H2 5284   2.628   2.829   0.683
 1760TIP3   OH2 5285   3.063   1.576   2.253
 1760TIP3    H1 5286   3.136   1.542   2.305
 1760TIP3    H2 5287   3.105   1.611   2.174
 1761TIP3   OH2 5288   1.775   1.172   5.234
 1761TIP3    H1 5289   1.715   1.182   5.160
 1761TIP3    H2 5290   1.848   1.120   5.199
 1762TIP3   OH2 5291   1.580   0.428   2.341
 1762TIP3    H1 5292   1.490   0.417   2.311
 1762TIP3    H2 5293   1.607   0.512   2.304
 1763TIP3   OH2 5294   1.255   5.489   4.052
 1763TIP3    H1 5295   1.203   5.413   4.027
 1763TIP3    H2 5296   1.346   5.460   4.043
 1764TIP3   OH2 5297   4.699   0.365   2.406
 1764TIP3    H1 5298   4.715   0.276   2.437
 1764TIP3    H2 5299   4.642   0.403   2.472
 1765TIP3   OH2 5300   0.599   0.721   3.838
 1765TIP3    H1 5301   0.545   0.688   3.767
 1765TIP3    H2 5302   0.572   0.812   3.849
 1766TIP3   OH2 5303   5.595   2.202   0.070
 1766TIP3    H1 5304   5.561   2.242  -0.011
 1766TIP3    H2 5305   5.623   2.276   0.124
 1767TIP3   OH2 5306   5.627   0.454   2.296
 1767TIP3    H1 5307   5.590   0.484   2.213
 1767TIP3    H2 5308   5.572   0.380   2.321
 1768TIP3   OH2 5309   2.292   4.178   1.904
 1768TIP3    H1 5310   2.366   4.164   1.963
 1768TIP3    H2 5311   2.244   4.096   1.905
 1769TIP3   OH2 5312   0.908   5.728   4.621
 1769TIP3    H1 5313   0.965   5.792   4.663
 1769TIP3    H2 5314   0.832   5.721   4.679
 1770TIP3   OH2 5315   5.041   4.651   4.614
 1770TIP3    H1 5316   4.946   4.642   4.619
 1770TIP3    H2 5317   5.056   4.713   4.542
 1771TIP3   OH2 5318   1.416   4.582   1.382
 1771TIP3    H1 5319   1.496   4.558   1.430
 1771TIP3    H2 5320   1.448   4.612   1.297
 1772TIP3   OH2 5321   6.007   4.750   3.534
 1772TIP3    H1 5322   5.949   4.797   3.594
 1772TIP3    H2 5323   5.958   4.747   3.452
 1773TIP3   OH2 5324   2.767   1.579   4.741
 1773TIP3    H1 5325   2.676   1.602   4.727
 1773TIP3    H2 5326   2.816   1.652   4.703
 1774TIP3   OH2 5327   2.370   5.632   0.071
 1774TIP3    H1 5328   2.405   5.631   0.160
 1774TIP3    H2 5329   2.436   5.677   0.019
 1775TIP3   OH2 5330   0.689   0.054   3.475
 1775TIP3    H1 5331   0.721   0.139   3.505
 1775TIP3    H2 5332   0.738  -0.010   3.526
 1776TIP3   OH2 5333   0.173   0.594  -0.007
 1776TIP3    H1 5334   0.090   0.569   0.034
 1776TIP3    H2 5335   0.162   0.570  -0.099
 1777TIP3   OH2 5336   5.638   2.422   4.388
 1777TIP3    H1 5337   5.673   2.427   4.299
 1777TIP3    H2 5338   5.618   2.513   4.412
 1778TIP3   OH2 5339   0.304   2.923   3.596
 1778TIP3    H1 5340   0.383   2.963   3.633
 1778TIP3    H2 5341   0.280   2.982   3.524
 1779TIP3   OH2 5342   3.245   5.561   3.043
 1779TIP3    H1 5343   3.197   5.641   3.024
 1779TIP3    H2 5344   3.264   5.566   3.137
 1780TIP3   OH2 5345   5.944   4.587   1.373
 1780TIP3    H1 5346   5.868   4.529   1.386
 1780TIP3    H2 5347   5.977   4.565   1.286
 1781TIP3   OH2 5348   0.760   3.304   1.124
 1781TIP3    H1 5349   0.704   3.364   1.075
 1781TIP3    H2 5350   0.828   3.277   1.062
 1782TIP3   OH2 5351   5.464   0.760   2.297
 1782TIP3    H1 5352   5.455   0.678   2.247
 1782TIP3    H2 5353   5.375   0.780   2.326
 1783TIP3   OH2 5354   4.047   1.746   2.433
 1783TIP3    H1 5355   3.970   1.800   2.451
 1783TIP3    H2 5356   4.119   1.808   2.426
 1784TIP3   OH2 5357   2.373   4.627   4.260
 1784TIP3    H1 5358   2.439   4.636   4.191
 1784TIP3    H2 5359   2.334   4.714   4.267
 1785TIP3   OH2 5360   5.362   0.734   2.938
 1785TIP3    H1 5361   5.285   0.764   2.889
 1785TIP3    H2 5362   5.367   0.640   2.921
 1786TIP3   OH2 5363   2.690   2.272   2.013
 1786TIP3    H1 5364   2.757   2.336   1.988
 1786TIP3    H2 5365   2.649   2.247   1.930
 1787TIP3   OH2 5366   1.401   3.512   4.659
 1787TIP3    H1 5367   1.389   3.606   4.644
 1787TIP3    H2 5368   1.477   3.506   4.717
 1788TIP3   OH2 5369   5.219   1.704   5.095
 1788TIP3    H1 5370   5.215   1.799   5.109
 1788TIP3    H2 5371   5.140   1.670   5.138
 1789TIP3   OH2 5372   4.366   1.306   4.862
 1789TIP3    H1 5373   4.289   1.252   4.845
 1789TIP3    H2 5374   4.437   1.263   4.813
 1790TIP3   OH2 5375   5.660   5.518   0.883
 1790TIP3    H1 5376   5.614   5.565   0.953
 1790TIP3    H2 5377   5.720   5.582   0.846
 1791TIP3   OH2 5378   5.971   4.071   1.712
 1791TIP3    H1 5379   5.976   4.078   1.807
 1791TIP3    H2 5380   6.002   4.155   1.679
 1792TIP3   OH2 5381   5.023   3.199   0.230
 1792TIP3    H1 5382   5.087   3.237   0.170
 1792TIP3    H2 5383   4.952   3.263   0.233
 1793TIP3   OH2 5384   5.680   5.835   3.451
 1793TIP3    H1 5385   5.763   5.793   3.430
 1793TIP3    H2 5386   5.616   5.763   3.450
 1794TIP3   OH2 5387   5.430   2.016   3.374
 1794TIP3    H1 5388   5.358   2.016   3.311
 1794TIP3    H2 5389   5.508   2.033   3.321
 1795TIP3   OH2 5390   1.045   4.952   4.443
 1795TIP3    H1 5391   1.036   4.872   4.391
 1795TIP3    H2 5392   0.978   5.011   4.407
 1796TIP3   OH2 5393   4.778   1.864   3.782
 1796TIP3    H1 5394   4.688   1.888   3.760
 1796TIP3    H2 5395   4.822   1.948   3.797
 1797TIP3   OH2 5396   3.494   2.890   0.058
 1797TIP3    H1 5397   3.496   2.873  -0.036
 1797TIP3    H2 5398   3.544   2.971   0.069
 1798TIP3   OH2 5399   3.454   0.459   1.764
 1798TIP3    H1 5400   3.482   0.542   1.804
 1798TIP3    H2 5401   3.414   0.411   1.837
 1799TIP3   OH2 5402   4.884   0.849   0.396
 1799TIP3    H1 5403   4.962   0.843   0.340
 1799TIP3    H2 5404   4.888   0.770   0.450
 1800TIP3   OH2 5405   4.089   1.517   2.325
 1800TIP3    H1 5406   4.013   1.459   2.325
 1800TIP3    H2 5407   4.065   1.588   2.386
 1801TIP3   OH2 5408   4.074   0.551   3.480
 1801TIP3    H1 5409   4.166   0.528   3.463
 1801TIP3    H2 5410   4.066   0.640   3.444
 1802TIP3   OH2 5411   2.683   1.233   1.973
 1802TIP3    H1 5412   2.766   1.262   2.012
 1802TIP3    H2 5413   2.615   1.276   2.024
 1803TIP3   OH2 5414   1.571   4.375   0.323
 1803TIP3    H1 5415   1.544   4.433   0.252
 1803TIP3    H2 5416   1.655   4.410   0.352
 1804TIP3   OH2 5417   1.395   5.993   2.995
 1804TIP3    H1 5418   1.342   5.913   2.996
 1804TIP3    H2 5419   1.331   6.064   3.004
 1805TIP3   OH2 5420   3.306   3.703   5.198
 1805TIP3    H1 5421   3.237   3.704   5.132
 1805TIP3    H2 5422   3.334   3.612   5.203
 1806TIP3   OH2 5423   3.020   4.827   2.035
 1806TIP3    H1 5424   3.005   4.870   2.119
 1806TIP3    H2 5425   3.084   4.759   2.055
 1807TIP3   OH2 5426   0.973   0.859   1.615
 1807TIP3    H1 5427   1.026   0.938   1.599
 1807TIP3    H2 5428   0.971   0.814   1.531
 1808TIP3   OH2 5429   5.354   5.849   1.725
 1808TIP3    H1 5430   5.334   5.865   1.818
 1808TIP3    H2 5431   5.447   5.828   1.724
 1809TIP3   OH2 5432   0.617   3.246   4.778
 1809TIP3    H1 5433   0.682   3.245   4.708
 1809TIP3    H2 5434   0.635   3.327   4.826
 1810TIP3   OH2 5435   6.272   3.145   1.704
 1810TIP3    H1 5436   6.321   3.080   1.652
 1810TIP3    H2 5437   6.332   3.170   1.774
 1811TIP3   OH2 5438   5.242   3.025   1.779
 1811TIP3    H1 5439   5.335   3.022   1.800
 1811TIP3    H2 5440   5.235   2.982   1.693
 1812TIP3   OH2 5441   0.663   1.236   0.766
 1812TIP3    H1 5442   0.734   1.288   0.801
 1812TIP3    H2 5443   0.692   1.211   0.678
 1813TIP3   OH2 5444   5.220   3.811   3.013
 1813TIP3    H1 5445   5.297   3.799   3.069
 1813TIP3    H2 5446   5.234   3.750   2.940
 1814TIP3   OH2 5447   3.425   2.722   2.723
 1814TIP3    H1 5448   3.341   2.710   2.680
 1814TIP3    H2 5449   3.420   2.668   2.802
 1815TIP3   OH2 5450   4.374   4.274   3.783
 1815TIP3    H1 5451   4.463   4.241   3.793
 1815TIP3    H2 5452   4.381   4.347   3.722
 1816TIP3   OH2 5453   0.618   5.340   2.329
 1816TIP3    H1 5454   0.586   5.270   2.271
 1816TIP3    H2 5455   0.675   5.295   2.391
 1817TIP3   OH2 5456   3.647   3.507   2.626
 1817TIP3    H1 5457   3.586   3.462   2.684
 1817TIP3    H2 5458   3.633   3.600   2.645
 1818TIP3   OH2 5459   5.599   3.437   1.968
 1818TIP3    H1 5460   5.602   3.345   1.943
 1818TIP3    H2 5461   5.666   3.479   1.913
 1819TIP3   OH2 5462   5.214   4.996   1.563
 1819TIP3    H1 5463   5.256   5.082   1.560
 1819TIP3    H2 5464   5.271   4.944   1.619
 1820TIP3   OH2 5465   4.948   2.181   1.323
 1820TIP3    H1 5466   4.862   2.209   1.352
 1820TIP3    H2 5467   4.962   2.097   1.368
 1821TIP3   OH2 5468   3.003   4.896   4.531
 1821TIP3    H1 5469   2.923   4.945   4.511
 1821TIP3    H2 5470   2.995   4.876   4.624
 1822TIP3   OH2 5471   6.380   3.932   4.591
 1822TIP3    H1 5472   6.339   3.879   4.660
 1822TIP3    H2 5473   6.343   4.020   4.603
 1823TIP3   OH2 5474   1.821   4.658   3.337
 1823TIP3    H1 5475   1.800   4.711   3.260
 1823TIP3    H2 5476   1.802   4.715   3.411
 1824TIP3   OH2 5477   2.650   0.438  -0.006
 1824TIP3    H1 5478   2.654   0.432   0.090
 1824TIP3    H2 5479   2.558   0.421  -0.027
 1825TIP3   OH2 5480   2.809   0.157   3.403
 1825TIP3    H1 5481   2.898   0.127   3.388
 1825TIP3    H2 5482   2.818   0.239   3.451
 1826TIP3   OH2 5483   5.529   2.665   4.481
 1826TIP3    H1 5484   5.511   2.754   4.450
 1826TIP3    H2 5485   5.534   2.674   4.577
 1827TIP3   OH2 5486   2.042   1.440   0.667
 1827TIP3    H1 5487   2.102   1.465   0.597
 1827TIP3    H2 5488   2.069   1.352   0.693
 1828TIP3   OH2 5489   6.118   2.919   4.897
 1828TIP3    H1 5490   6.188   2.884   4.842
 1828TIP3    H2 5491   6.130   2.877   4.982
 1829TIP3   OH2 5492   2.688   2.118   2.239
 1829TIP3    H1 5493   2.686   2.160   2.153
 1829TIP3    H2 5494   2.648   2.181   2.297
 1830TIP3   OH2 5495   5.437   1.171   4.182
 1830TIP3    H1 5496   5.497   1.223   4.128
 1830TIP3    H2 5497   5.353   1.214   4.173
 1831TIP3   OH2 5498   3.060   2.808   0.214
 1831TIP3    H1 5499   2.990   2.744   0.230
 1831TIP3    H2 5500   3.046   2.876   0.279
 1832TIP3   OH2 5501   5.409   3.008   4.961
 1832TIP3    H1 5502   5.412   3.090   4.911
 1832TIP3    H2 5503   5.340   3.022   5.025
 1833TIP3   OH2 5504   1.696   3.210   0.621
 1833TIP3    H1 5505   1.728   3.150   0.689
 1833TIP3    H2 5506   1.662   3.285   0.669
 1834TIP3   OH2 5507   0.532   4.310   4.772
 1834TIP3    H1 5508   0.455   4.316   4.828
 1834TIP3    H2 5509   0.583   4.389   4.794
 1835TIP3   OH2 5510   3.098   3.224   4.496
 1835TIP3    H1 5511   3.163   3.175   4.446
 1835TIP3    H2 5512   3.015   3.179   4.479
 1836TIP3   OH2 5513   1.850   2.135   0.277
 1836TIP3    H1 5514   1.917   2.166   0.338
 1836TIP3    H2 5515   1.872   2.043   0.262
 1837TIP3   OH2 5516   1.229   5.252   2.355
 1837TIP3    H1 5517   1.252   5.334   2.312
 1837TIP3    H2 5518   1.200   5.278   2.442
 1838TIP3   OH2 5519   4.123   5.628   4.542
 1838TIP3    H1 5520   4.135   5.722   4.525
 1838TIP3    H2 5521   4.029   5.616   4.547
 1839TIP3   OH2 5522   1.597   5.596   4.306
 1839TIP3    H1 5523   1.637   5.522   4.261
 1839TIP3    H2 5524   1.561   5.558   4.386
 1840TIP3   OH2 5525   0.327   5.893   3.808
 1840TIP3    H1 5526   0.353   5.970   3.859
 1840TIP3    H2 5527   0.390   5.891   3.736
 1841TIP3   OH2 5528   6.022   0.203   2.546
 1841TIP3    H1 5529   6.090   0.256   2.503
 1841TIP3    H2 5530   5.996   0.255   2.622
 1842TIP3   OH2 5531   0.016   2.276   3.256
 1842TIP3    H1 5532  -0.020   2.189   3.240
 1842TIP3    H2 5533   0.067   2.295   3.178
 1843TIP3   OH2 5534   0.035   3.440   1.189
 1843TIP3    H1 5535   0.109   3.493   1.218
 1843TIP3    H2 5536   0.063   3.405   1.104
 1844TIP3   OH2 5537   1.445   3.551   2.543
 1844TIP3    H1 5538   1.535   3.536   2.572
 1844TIP3    H2 5539   1.416   3.628   2.593
 1845TIP3   OH2 5540   0.718   3.243   2.613
 1845TIP3    H1 5541   0.695   3.330   2.580
 1845TIP3    H2 5542   0.678   3.182   2.551
 1846TIP3   OH2 5543   4.935   1.699   3.125
 1846TIP3    H1 5544   4.969   1.712   3.036
 1846TIP3    H2 5545   5.012   1.676   3.177
 1847TIP3   OH2 5546   2.893   0.831   2.028
 1847TIP3    H1 5547   2.815   0.873   2.065
 1847TIP3    H2 5548   2.858   0.758   1.977
 1848TIP3   OH2 5549   3.984   4.606   2.046
 1848TIP3    H1 5550   3.912   4.628   1.987
 1848TIP3    H2 5551   4.037   4.685   2.051
 1849TIP3   OH2 5552   2.171   3.195   0.214
 1849TIP3    H1 5553   2.263   3.195   0.241
 1849TIP3    H2 5554   2.143   3.104   0.221
 1850TIP3   OH2 5555   4.653   0.977   1.511
 1850TIP3    H1 5556   4.662   1.007   1.420
 1850TIP3    H2 5557   4.588   0.906   1.506
 1851TIP3   OH2 5558   1.705   3.944   3.858
 1851TIP3    H1 5559   1.659   4.006   3.801
 1851TIP3    H2 5560   1.709   3.989   3.943
 1852TIP3   OH2 5561   1.351   3.042   3.596
 1852TIP3    H1 5562   1.364   3.097   3.673
 1852TIP3    H2 5563   1.407   3.081   3.529
 1853TIP3   OH2 5564   0.908   2.381   4.245
 1853TIP3    H1 5565   0.914   2.474   4.264
 1853TIP3    H2 5566   0.862   2.344   4.321
 1854TIP3   OH2 5567   3.000   4.863   0.798
 1854TIP3    H1 5568   2.942   4.893   0.868
 1854TIP3    H2 5569   2.949   4.797   0.751
 1855TIP3   OH2 5570   0.128   3.184   1.867
 1855TIP3    H1 5571   0.079   3.148   1.941
 1855TIP3    H2 5572   0.211   3.136   1.868
 1856TIP3   OH2 5573   0.518   1.037   2.298
 1856TIP3    H1 5574   0.601   1.085   2.293
 1856TIP3    H2 5575   0.530   0.976   2.371
 1857TIP3   OH2 5576   4.653   2.360   3.460
 1857TIP3    H1 5577   4.734   2.315   3.436
 1857TIP3    H2 5578   4.616   2.308   3.531
 1858TIP3   OH2 5579   3.109   5.594   4.237
 1858TIP3    H1 5580   3.116   5.640   4.153
 1858TIP3    H2 5581   3.125   5.502   4.214
 1859TIP3   OH2 5582   1.398   2.466   4.999
 1859TIP3    H1 5583   1.384   2.432   4.911
 1859TIP3    H2 5584   1.471   2.414   5.034
 1860TIP3   OH2 5585   1.975   3.743   3.556
 1860TIP3    H1 5586   1.948   3.666   3.507
 1860TIP3    H2 5587   1.969   3.716   3.648
 1861TIP3   OH2 5588   5.521   0.560   4.217
 1861TIP3    H1 5589   5.475   0.519   4.291
 1861TIP3    H2 5590   5.566   0.487   4.174
 1862TIP3   OH2 5591   0.979   1.543   4.461
 1862TIP3    H1 5592   1.026   1.521   4.381
 1862TIP3    H2 5593   0.887   1.528   4.439
 1863TIP3   OH2 5594   0.298   5.733   4.603
 1863TIP3    H1 5595   0.213   5.724   4.558
 1863TIP3    H2 5596   0.306   5.827   4.620
 1864TIP3   OH2 5597   1.883   3.596   4.949
 1864TIP3    H1 5598   1.899   3.661   5.018
 1864TIP3    H2 5599   1.803   3.626   4.906
 1865TIP3   OH2 5600   4.053   3.186   4.540
 1865TIP3    H1 5601   4.039   3.101   4.583
 1865TIP3    H2 5602   3.991   3.245   4.584
 1866TIP3   OH2 5603   3.467   5.343   0.431
 1866TIP3    H1 5604   3.503   5.262   0.396
 1866TIP3    H2 5605   3.541   5.383   0.478
 1867TIP3   OH2 5606   2.238   3.909   1.603
 1867TIP3    H1 5607   2.219   3.822   1.567
 1867TIP3    H2 5608   2.223   3.899   1.697
 1868TIP3   OH2 5609   6.209   5.345   1.916
 1868TIP3    H1 5610   6.190   5.271   1.973
 1868TIP3    H2 5611   6.141   5.342   1.848
 1869TIP3   OH2 5612   4.118   5.191   4.758
 1869TIP3    H1 5613   4.088   5.161   4.844
 1869TIP3    H2 5614   4.094   5.283   4.754
 1870TIP3   OH2 5615   6.141   1.185   4.430
 1870TIP3    H1 5616   6.098   1.181   4.345
 1870TIP3    H2 5617   6.073   1.161   4.493
 1871TIP3   OH2 5618   4.415   2.119   2.564
 1871TIP3    H1 5619   4.502   2.079   2.564
 1871TIP3    H2 5620   4.381   2.103   2.651
 1872TIP3   OH2 5621   3.941   5.599   3.368
 1872TIP3    H1 5622   3.948   5.524   3.310
 1872TIP3    H2 5623   3.862   5.582   3.419
 1873TIP3   OH2 5624   6.302   2.157   0.088
 1873TIP3    H1 5625   6.299   2.197   0.175
 1873TIP3    H2 5626   6.211   2.129   0.073
 1874TIP3   OH2 5627   4.569   1.602   1.688
 1874TIP3    H1 5628   4.541   1.510   1.687
 1874TIP3    H2 5629   4.515   1.642   1.757
 1875TIP3   OH2 5630   5.305   0.294   4.817
 1875TIP3    H1 5631   5.307   0.385   4.787
 1875TIP3    H2 5632   5.380   0.288   4.877
 1876TIP3   OH2 5633   0.170   2.866   0.245
 1876TIP3    H1 5634   0.184   2.840   0.154
 1876TIP3    H2 5635   0.254   2.846   0.288
 1877TIP3   OH2 5636   4.370   0.728   0.222
 1877TIP3    H1 5637   4.428   0.678   0.279
 1877TIP3    H2 5638   4.282   0.708   0.253
 1878TIP3   OH2 5639   2.810   3.943   5.110
 1878TIP3    H1 5640   2.761   3.889   5.172
 1878TIP3    H2 5641   2.845   4.014   5.164
 1879TIP3   OH2 5642   1.087   5.714   1.096
 1879TIP3    H1 5643   1.055   5.626   1.076
 1879TIP3    H2 5644   1.144   5.702   1.172
 1880TIP3   OH2 5645   5.228   5.199   4.969
 1880TIP3    H1 5646   5.240   5.292   4.989
 1880TIP3    H2 5647   5.316   5.165   4.956
 1881TIP3   OH2 5648   3.420   1.556   1.473
 1881TIP3    H1 5649   3.502   1.526   1.431
 1881TIP3    H2 5650   3.444   1.639   1.515
 1882TIP3   OH2 5651   5.448   5.930   4.114
 1882TIP3    H1 5652   5.375   5.872   4.135
 1882TIP3    H2 5653   5.437   5.950   4.021
 1883TIP3   OH2 5654   5.378   1.335   1.167
 1883TIP3    H1 5655   5.425   1.281   1.230
 1883TIP3    H2 5656   5.340   1.273   1.105
 1884TIP3   OH2 5657   2.027   3.978   0.398
 1884TIP3    H1 5658   2.011   3.885   0.385
 1884TIP3    H2 5659   2.119   3.984   0.424
 1885TIP3   OH2 5660   4.964   5.519   0.277
 1885TIP3    H1 5661   5.044   5.526   0.329
 1885TIP3    H2 5662   4.916   5.447   0.317
 1886TIP3   OH2 5663   2.404   0.211   3.023
 1886TIP3    H1 5664   2.356   0.220   3.106
 1886TIP3    H2 5665   2.336   0.217   2.956
 1887TIP3   OH2 5666   3.964   1.631   3.582
 1887TIP3    H1 5667   3.906   1.694   3.539
 1887TIP3    H2 5668   3.916   1.606   3.661
 1888TIP3   OH2 5669   5.288   2.277   4.681
 1888TIP3    H1 5670   5.289   2.218   4.607
 1888TIP3    H2 5671   5.256   2.224   4.754
 1889TIP3   OH2 5672   5.355   4.477   3.941
 1889TIP3    H1 5673   5.390   4.488   4.030
 1889TIP3    H2 5674   5.322   4.387   3.940
 1890TIP3   OH2 5675   1.942   4.859   2.785
 1890TIP3    H1 5676   2.009   4.867   2.852
 1890TIP3    H2 5677   1.893   4.781   2.808
 1891TIP3   OH2 5678   1.290   4.659   4.279
 1891TIP3    H1 5679   1.360   4.706   4.234
 1891TIP3    H2 5680   1.322   4.649   4.369
 1892TIP3   OH2 5681   6.289   3.864   0.107
 1892TIP3    H1 5682   6.283   3.900   0.196
 1892TIP3    H2 5683   6.263   3.772   0.117
 1893TIP3   OH2 5684   4.794   3.635   3.559
 1893TIP3    H1 5685   4.755   3.722   3.558
 1893TIP3    H2 5686   4.884   3.650   3.590
 1894TIP3   OH2 5687   0.228   4.684   3.785
 1894TIP3    H1 5688   0.196   4.599   3.754
 1894TIP3    H2 5689   0.195   4.746   3.719
 1895TIP3   OH2 5690   2.711   0.152   3.712
 1895TIP3    H1 5691   2.688   0.069   3.669
 1895TIP3    H2 5692   2.633   0.175   3.762
 1896TIP3   OH2 5693   0.909   1.052   3.745
 1896TIP3    H1 5694   0.819   1.025   3.764
 1896TIP3    H2 5695   0.917   1.138   3.787
 1897TIP3   OH2 5696   4.000   3.830   4.274
 1897TIP3    H1 5697   3.927   3.809   4.332
 1897TIP3    H2 5698   4.043   3.905   4.316
 1898TIP3   OH2 5699   4.464   2.660   1.949
 1898TIP3    H1 5700   4.457   2.610   1.868
 1898TIP3    H2 5701   4.536   2.722   1.933
 1899TIP3   OH2 5702   4.044   4.556   4.388
 1899TIP3    H1 5703   4.040   4.467   4.423
 1899TIP3    H2 5704   4.131   4.563   4.348
 1900TIP3   OH2 5705   4.128   0.163   4.902
 1900TIP3    H1 5706   4.054   0.161   4.840
 1900TIP3    H2 5707   4.086   0.164   4.988
 1901TIP3   OH2 5708   4.052   4.709   0.841
 1901TIP3    H1 5709   4.142   4.729   0.865
 1901TIP3    H2 5710   4.001   4.737   0.918
 1902TIP3   OH2 5711   5.966   5.229   1.765
 1902TIP3    H1 5712   5.990   5.208   1.675
 1902TIP3    H2 5713   5.948   5.144   1.806
 1903TIP3   OH2 5714   3.279   3.716   0.013
 1903TIP3    H1 5715   3.334   3.794   0.004
 1903TIP3    H2 5716   3.213   3.725  -0.055
 1904TIP3   OH2 5717   1.949   2.522   1.809
 1904TIP3    H1 5718   1.953   2.437   1.765
 1904TIP3    H2 5719   1.997   2.508   1.891
 1905TIP3   OH2 5720   3.545   2.144   4.998
 1905TIP3    H1 5721   3.624   2.198   4.991
 1905TIP3    H2 5722   3.476   2.207   5.020
 1906TIP3   OH2 5723   5.432   3.156   4.010
 1906TIP3    H1 5724   5.448   3.241   3.970
 1906TIP3    H2 5725   5.403   3.176   4.099
 1907TIP3   OH2 5726   5.173   0.009   0.039
 1907TIP3    H1 5727   5.206  -0.077   0.014
 1907TIP3    H2 5728   5.188   0.015   0.133
 1908TIP3   OH2 5729   5.153   4.092   1.145
 1908TIP3    H1 5730   5.124   4.066   1.232
 1908TIP3    H2 5731   5.094   4.163   1.120
 1909TIP3   OH2 5732   1.171   4.258   2.298
 1909TIP3    H1 5733   1.164   4.338   2.245
 1909TIP3    H2 5734   1.124   4.279   2.379
 1910TIP3   OH2 5735   4.257   1.810   0.405
 1910TIP3    H1 5736   4.334   1.765   0.372
 1910TIP3    H2 5737   4.243   1.774   0.493
 1911TIP3   OH2 5738   0.443   3.496   0.198
 1911TIP3    H1 5739   0.402   3.471   0.116
 1911TIP3    H2 5740   0.371   3.499   0.261
 1912TIP3   OH2 5741   6.308   1.441   3.274
 1912TIP3    H1 5742   6.240   1.476   3.331
 1912TIP3    H2 5743   6.358   1.518   3.246
 1913TIP3   OH2 5744   5.957   4.216   0.587
 1913TIP3    H1 5745   5.969   4.210   0.493
 1913TIP3    H2 5746   5.862   4.220   0.599
 1914TIP3   OH2 5747   0.546   0.464   3.394
 1914TIP3    H1 5748   0.628   0.429   3.428
 1914TIP3    H2 5749   0.537   0.550   3.436
 1915TIP3   OH2 5750   4.267   4.967   4.150
 1915TIP3    H1 5751   4.225   5.053   4.147
 1915TIP3    H2 5752   4.199   4.906   4.124
 1916TIP3   OH2 5753   1.507   4.226  -0.010
 1916TIP3    H1 5754   1.431   4.179  -0.044
 1916TIP3    H2 5755   1.471   4.280   0.060
 1917TIP3   OH2 5756   0.178   2.969   4.131
 1917TIP3    H1 5757   0.157   2.915   4.207
 1917TIP3    H2 5758   0.138   3.054   4.150
 1918TIP3   OH2 5759   0.604   3.717   0.261
 1918TIP3    H1 5760   0.553   3.649   0.217
 1918TIP3    H2 5761   0.540   3.766   0.312
 1919TIP3   OH2 5762   2.540   0.724   0.556
 1919TIP3    H1 5763   2.526   0.658   0.489
 1919TIP3    H2 5764   2.454   0.736   0.597
 1920TIP3   OH2 5765   1.859   4.094   2.564
 1920TIP3    H1 5766   1.951   4.069   2.560
 1920TIP3    H2 5767   1.843   4.111   2.657
 1921TIP3   OH2 5768   2.800   1.748   2.515
 1921TIP3    H1 5769   2.747   1.789   2.446
 1921TIP3    H2 5770   2.750   1.764   2.595
 1922TIP3   OH2 5771   2.886   2.575   0.222
 1922TIP3    H1 5772   2.899   2.560   0.316
 1922TIP3    H2 5773   2.935   2.505   0.180
 1923TIP3   OH2 5774   3.419   2.454   1.305
 1923TIP3    H1 5775   3.509   2.424   1.314
 1923TIP3    H2 5776   3.418   2.540   1.348
 1924TIP3   OH2 5777   6.048   3.898   4.937
 1924TIP3    H1 5778   6.075   3.864   5.023
 1924TIP3    H2 5779   5.975   3.957   4.957
 1925TIP3   OH2 5780   3.204   1.957   0.906
 1925TIP3    H1 5781   3.184   1.869   0.874
 1925TIP3    H2 5782   3.151   1.966   0.986
 1926TIP3   OH2 5783   6.284   3.373   3.003
 1926TIP3    H1 5784   6.299   3.305   3.068
 1926TIP3    H2 5785   6.367   3.422   3.002
 1927TIP3   OH2 5786   1.442   3.836   2.264
 1927TIP3    H1 5787   1.433   3.741   2.266
 1927TIP3    H2 5788   1.368   3.868   2.315
 1928TIP3   OH2 5789   2.183   2.622   4.768
 1928TIP3    H1 5790   2.247   2.692   4.750
 1928TIP3    H2 5791   2.166   2.582   4.682
 1929TIP3   OH2 5792   3.891   3.597   2.530
 1929TIP3    H1 5793   3.844   3.664   2.480
 1929TIP3    H2 5794   3.842   3.588   2.611
 1930TIP3   OH2 5795   1.410   1.449   4.945
 1930TIP3    H1 5796   1.347   1.474   5.012
 1930TIP3    H2 5797   1.360   1.448   4.864
 1931TIP3   OH2 5798   0.029   2.940   0.460
 1931TIP3    H1 5799   0.069   2.916   0.376
 1931TIP3    H2 5800   0.061   2.874   0.521
 1932TIP3   OH2 5801   1.662   1.741   0.438
 1932TIP3    H1 5802   1.648   1.799   0.363
 1932TIP3    H2 5803   1.577   1.738   0.481
 1933TIP3   OH2 5804   0.279   4.881   4.141
 1933TIP3    H1 5805   0.294   4.850   4.230
 1933TIP3    H2 5806   0.314   4.970   4.140
 1934TIP3   OH2 5807   3.349   1.789   3.734
 1934TIP3    H1 5808   3.271   1.842   3.751
 1934TIP3    H2 5809   3.414   1.820   3.796
 1935TIP3   OH2 5810   2.564   3.496   1.353
 1935TIP3    H1 5811   2.628   3.567   1.356
 1935TIP3    H2 5812   2.565   3.467   1.262
 1936TIP3   OH2 5813   4.240   0.611   4.822
 1936TIP3    H1 5814   4.240   0.676   4.893
 1936TIP3    H2 5815   4.177   0.545   4.851
 1937TIP3   OH2 5816   4.843   1.263   0.873
 1937TIP3    H1 5817   4.836   1.168   0.865
 1937TIP3    H2 5818   4.918   1.277   0.931
 1938TIP3   OH2 5819   5.716   4.252   3.985
 1938TIP3    H1 5820   5.808   4.264   4.008
 1938TIP3    H2 5821   5.716   4.241   3.890
 1939TIP3   OH2 5822   4.341   2.450   3.813
 1939TIP3    H1 5823   4.298   2.486   3.891
 1939TIP3    H2 5824   4.353   2.526   3.755
 1940TIP3   OH2 5825   5.816   1.585   3.148
 1940TIP3    H1 5826   5.839   1.601   3.057
 1940TIP3    H2 5827   5.898   1.598   3.196
 1941TIP3   OH2 5828   1.879   5.865   4.688
 1941TIP3    H1 5829   1.838   5.942   4.728
 1941TIP3    H2 5830   1.920   5.819   4.761
 1942TIP3   OH2 5831   0.258   2.539   2.581
 1942TIP3    H1 5832   0.316   2.517   2.509
 1942TIP3    H2 5833   0.173   2.501   2.557
 1943TIP3   OH2 5834   1.135   0.744   0.393
 1943TIP3    H1 5835   1.108   0.779   0.309
 1943TIP3    H2 5836   1.231   0.753   0.393
 1944TIP3   OH2 5837   4.943   5.019   2.103
 1944TIP3    H1 5838   4.930   5.109   2.074
 1944TIP3    H2 5839   5.024   5.021   2.154
 1945TIP3   OH2 5840   4.721   0.968   1.209
 1945TIP3    H1 5841   4.791   1.032   1.196
 1945TIP3    H2 5842   4.765   0.883   1.201
 1946TIP3   OH2 5843   0.511   0.603   0.323
 1946TIP3    H1 5844   0.592   0.637   0.360
 1946TIP3    H2 5845   0.470   0.678   0.281
 1947TIP3   OH2 5846   2.062   2.883   0.526
 1947TIP3    H1 5847   2.012   2.802   0.517
 1947TIP3    H2 5848   2.066   2.900   0.620
 1948TIP3   OH2 5849   4.918   4.043   2.320
 1948TIP3    H1 5850   4.905   4.135   2.298
 1948TIP3    H2 5851   4.940   4.043   2.413
 1949TIP3   OH2 5852   0.192   4.414   3.753
 1949TIP3    H1 5853   0.179   4.364   3.673
 1949TIP3    H2 5854   0.281   4.394   3.781
 1950TIP3   OH2 5855   0.418   5.066   3.038
 1950TIP3    H1 5856   0.416   5.011   2.959
 1950TIP3    H2 5857   0.490   5.127   3.023
 1951TIP3   OH2 5858   0.728   4.902   3.999
 1951TIP3    H1 5859   0.813   4.939   3.975
 1951TIP3    H2 5860   0.664   4.961   3.958
 1952TIP3   OH2 5861   2.615   3.600   0.839
 1952TIP3    H1 5862   2.573   3.574   0.757
 1952TIP3    H2 5863   2.542   3.605   0.902
 1953TIP3   OH2 5864   0.065   0.441   4.676
 1953TIP3    H1 5865   0.122   0.518   4.684
 1953TIP3    H2 5866   0.097   0.395   4.599
 1954TIP3   OH2 5867   0.233   4.454   2.715
 1954TIP3    H1 5868   0.154   4.491   2.675
 1954TIP3    H2 5869   0.287   4.428   2.640
 1955TIP3   OH2 5870   6.048   4.937   0.817
 1955TIP3    H1 5871   5.964   4.956   0.777
 1955TIP3    H2 5872   6.082   4.862   0.768
 1956TIP3   OH2 5873   2.280   2.073   3.907
 1956TIP3    H1 5874   2.355   2.012   3.900
 1956TIP3    H2 5875   2.210   2.020   3.945
 1957TIP3   OH2 5876   0.394   4.808   5.109
 1957TIP3    H1 5877   0.445   4.886   5.088
 1957TIP3    H2 5878   0.446   4.735   5.075
 1958TIP3   OH2 5879   0.153   5.159   3.808
 1958TIP3    H1 5880   0.118   5.172   3.720
 1958TIP3    H2 5881   0.244   5.133   3.793
 1959TIP3   OH2 5882   5.436   1.976   4.270
 1959TIP3    H1 5883   5.531   1.985   4.274
 1959TIP3    H2 5884   5.413   2.008   4.182
 1960TIP3   OH2 5885   4.823   4.209   1.256
 1960TIP3    H1 5886   4.812   4.176   1.345
 1960TIP3    H2 5887   4.794   4.137   1.200
 1961TIP3   OH2 5888   2.109   3.435   0.340
 1961TIP3    H1 5889   2.132   3.360   0.286
 1961TIP3    H2 5890   2.052   3.399   0.408
 1962TIP3   OH2 5891   5.833   1.727   2.312
 1962TIP3    H1 5892   5.801   1.745   2.223
 1962TIP3    H2 5893   5.923   1.696   2.299
 1963TIP3   OH2 5894   3.410   3.767   1.118
 1963TIP3    H1 5895   3.492   3.781   1.071
 1963TIP3    H2 5896   3.387   3.854   1.151
 1964TIP3   OH2 5897   5.692   2.893   0.250
 1964TIP3    H1 5898   5.644   2.833   0.307
 1964TIP3    H2 5899   5.637   2.971   0.247
 1965TIP3   OH2 5900   5.824   5.058   0.113
 1965TIP3    H1 5901   5.862   4.993   0.054
 1965TIP3    H2 5902   5.892   5.124   0.124
 1966TIP3   OH2 5903   1.272   3.815   1.655
 1966TIP3    H1 5904   1.272   3.910   1.665
 1966TIP3    H2 5905   1.200   3.786   1.712
 1967TIP3   OH2 5906   3.857   1.857   5.134
 1967TIP3    H1 5907   3.880   1.831   5.223
 1967TIP3    H2 5908   3.842   1.775   5.088
 1968TIP3   OH2 5909   6.252   1.796   0.755
 1968TIP3    H1 5910   6.276   1.742   0.680
 1968TIP3    H2 5911   6.166   1.832   0.732
 1969TIP3   OH2 5912   2.050   3.761   0.651
 1969TIP3    H1 5913   2.119   3.815   0.612
 1969TIP3    H2 5914   1.995   3.735   0.577
 1970TIP3   OH2 5915   0.552   5.712   4.473
 1970TIP3    H1 5916   0.483   5.729   4.537
 1970TIP3    H2 5917   0.511   5.730   4.388
 1971TIP3   OH2 5918   0.387   5.920   5.153
 1971TIP3    H1 5919   0.360   5.942   5.242
 1971TIP3    H2 5920   0.417   6.003   5.116
 1972TIP3   OH2 5921   3.414   4.692   4.939
 1972TIP3    H1 5922   3.460   4.740   4.870
 1972TIP3    H2 5923   3.324   4.723   4.935
 1973TIP3   OH2 5924   0.972   3.797   0.169
 1973TIP3    H1 5925   0.965   3.811   0.263
 1973TIP3    H2 5926   1.065   3.803   0.150
 1974TIP3   OH2 5927   2.882   3.382   0.047
 1974TIP3    H1 5928   2.956   3.375   0.108
 1974TIP3    H2 5929   2.825   3.448   0.087
 1975TIP3   OH2 5930   2.246   1.108   2.660
 1975TIP3    H1 5931   2.305   1.058   2.717
 1975TIP3    H2 5932   2.186   1.042   2.625
 1976TIP3   OH2 5933   1.342   5.446   4.299
 1976TIP3    H1 5934   1.297   5.472   4.219
 1976TIP3    H2 5935   1.283   5.474   4.370
 1977TIP3   OH2 5936   2.388   0.546   4.132
 1977TIP3    H1 5937   2.354   0.619   4.081
 1977TIP3    H2 5938   2.339   0.470   4.103
 1978TIP3   OH2 5939   1.491   3.967   3.134
 1978TIP3    H1 5940   1.513   3.967   3.041
 1978TIP3    H2 5941   1.490   3.874   3.158
 1979TIP3   OH2 5942   0.365   3.738   3.875
 1979TIP3    H1 5943   0.366   3.757   3.969
 1979TIP3    H2 5944   0.424   3.663   3.865
 1980TIP3   OH2 5945   2.163   0.633   1.197
 1980TIP3    H1 5946   2.069   0.647   1.209
 1980TIP3    H2 5947   2.197   0.719   1.170
 1981TIP3   OH2 5948   4.298   2.553   4.129
 1981TIP3    H1 5949   4.220   2.593   4.168
 1981TIP3    H2 5950   4.336   2.501   4.200
 1982TIP3   OH2 5951   3.349   1.053   1.329
 1982TIP3    H1 5952   3.317   1.085   1.413
 1982TIP3    H2 5953   3.325   0.960   1.327
 1983TIP3   OH2 5954   4.377   5.961   2.787
 1983TIP3    H1 5955   4.466   5.993   2.776
 1983TIP3    H2 5956   4.363   5.904   2.711
 1984TIP3   OH2 5957   5.611   0.875   4.944
 1984TIP3    H1 5958   5.653   0.887   5.029
 1984TIP3    H2 5959   5.671   0.917   4.881
 1985TIP3   OH2 5960   2.025   4.681   2.463
 1985TIP3    H1 5961   2.030   4.763   2.513
 1985TIP3    H2 5962   1.998   4.708   2.375
 1986TIP3   OH2 5963   1.207   3.480   4.903
 1986TIP3    H1 5964   1.221   3.567   4.940
 1986TIP3    H2 5965   1.294   3.441   4.898
 1987TIP3   OH2 5966   4.317   2.714   1.064
 1987TIP3    H1 5967   4.223   2.730   1.076
 1987TIP3    H2 5968   4.329   2.621   1.083
 1988TIP3   OH2 5969   5.034   2.197   4.018
 1988TIP3    H1 5970   5.001   2.177   3.931
 1988TIP3    H2 5971   5.047   2.292   4.018
 1989TIP3   OH2 5972   3.770   2.341   2.111
 1989TIP3    H1 5973   3.859   2.377   2.113
 1989TIP3    H2 5974   3.727   2.379   2.188
 1990TIP3   OH2 5975   3.449   5.597   0.036
 1990TIP3    H1 5976   3.468   5.503   0.039
 1990TIP3    H2 5977   3.498   5.629  -0.040
 1991TIP3   OH2 5978   3.047   2.276   4.815
 1991TIP3    H1 5979   3.021   2.348   4.873
 1991TIP3    H2 5980   3.127   2.241   4.854
 1992TIP3   OH2 5981   0.762   2.956   0.458
 1992TIP3    H1 5982   0.760   3.051   0.453
 1992TIP3    H2 5983   0.851   2.933   0.431
 1993TIP3   OH2 5984   1.417   3.087   4.988
 1993TIP3    H1 5985   1.342   3.052   5.036
 1993TIP3    H2 5986   1.486   3.022   5.004
 1994TIP3   OH2 5987   1.042   3.362   2.368
 1994TIP3    H1 5988   1.125   3.348   2.413
 1994TIP3    H2 5989   1.065   3.409   2.288
 1995TIP3   OH2 5990   0.248   3.171   3.885
 1995TIP3    H1 5991   0.171   3.223   3.861
 1995TIP3    H2 5992   0.222   3.128   3.966
 1996TIP3   OH2 5993   3.508   3.832   0.292
 1996TIP3    H1 5994   3.452   3.791   0.226
 1996TIP3    H2 5995   3.465   3.916   0.311
 1997TIP3   OH2 5996   3.216   0.395   1.288
 1997TIP3    H1 5997   3.211   0.306   1.323
 1997TIP3    H2 5998   3.309   0.410   1.273
 1998TIP3   OH2 5999   3.695   5.244   4.039
 1998TIP3    H1 6000   3.713   5.243   3.945
 1998TIP3    H2 6001   3.717   5.333   4.067
 1999TIP3   OH2 6002   3.652   4.368   4.438
 1999TIP3    H1 6003   3.583   4.304   4.425
 1999TIP3    H2 6004   3.732   4.323   4.410
 2000TIP3   OH2 6005   0.180   4.381   1.703
 2000TIP3    H1 6006   0.183   4.418   1.615
 2000TIP3    H2 6007   0.219   4.448   1.758
 2001TIP3   OH2 6008   3.747   0.523   2.936
 2001TIP3    H1 6009   3.759   0.516   3.031
 2001TIP3    H2 6010   3.809   0.591   2.909
 2002TIP3   OH2 6011   4.793   0.142   3.507
 2002TIP3    H1 6012   4.867   0.086   3.532
 2002TIP3    H2 6013   4.814   0.172   3.419
 2003TIP3   OH2 6014   3.818   0.280   0.743
 2003TIP3    H1 6015   3.843   0.235   0.663
 2003TIP3    H2 6016   3.722   0.278   0.742
 2004TIP3   OH2 6017   1.700   4.901   2.422
 2004TIP3    H1 6018   1.614   4.942   2.431
 2004TIP3    H2 6019   1.692   4.818   2.468
 2005TIP3   OH2 6020   5.911   0.762   3.243
 2005TIP3    H1 6021   5.979   0.719   3.295
 2005TIP3    H2 6022   5.866   0.820   3.305
 2006TIP3   OH2 6023   2.800   4.814   4.091
 2006TIP3    H1 6024   2.821   4.780   4.178
 2006TIP3    H2 6025   2.706   4.800   4.082
 2007TIP3   OH2 6026   6.082   4.017   4.467
 2007TIP3    H1 6027   5.998   4.059   4.448
 2007TIP3    H2 6028   6.118   4.067   4.541
 2008TIP3   OH2 6029   0.207   1.221   1.191
 2008TIP3    H1 6030   0.260   1.239   1.269
 2008TIP3    H2 6031   0.130   1.277   1.201
 2009TIP3   OH2 6032   4.750   4.641   1.096
 2009TIP3    H1 6033   4.786   4.583   1.029
 2009TIP3    H2 6034   4.725   4.583   1.168
 2010TIP3   OH2 6035   5.356   4.276   4.641
 2010TIP3    H1 6036   5.269   4.272   4.681
 2010TIP3    H2 6037   5.375   4.369   4.633
 2011TIP3   OH2 6038   5.095   0.819   0.211
 2011TIP3    H1 6039   5.126   0.858   0.129
 2011TIP3    H2 6040   5.071   0.729   0.187
 2012TIP3   OH2 6041   1.570   2.808   0.163
 2012TIP3    H1 6042   1.483   2.824   0.127
 2012TIP3    H2 6043   1.622   2.882   0.133
 2013TIP3   OH2 6044   5.087   1.204   4.600
 2013TIP3    H1 6045   5.030   1.273   4.568
 2013TIP3    H2 6046   5.140   1.179   4.524
 2014TIP3   OH2 6047   6.380   5.697   4.514
 2014TIP3    H1 6048   6.399   5.697   4.420
 2014TIP3    H2 6049   6.294   5.737   4.521
 2015TIP3   OH2 6050   5.962   1.121   4.216
 2015TIP3    H1 6051   5.874   1.095   4.244
 2015TIP3    H2 6052   5.998   1.043   4.174
 2016TIP3   OH2 6053   6.110   5.115   0.611
 2016TIP3    H1 6054   6.198   5.081   0.601
 2016TIP3    H2 6055   6.090   5.103   0.704
 2017TIP3   OH2 6056   2.631   2.344   4.605
 2017TIP3    H1 6057   2.694   2.373   4.671
 2017TIP3    H2 6058   2.655   2.392   4.526
 2018TIP3   OH2 6059   3.772   1.216   0.471
 2018TIP3    H1 6060   3.730   1.286   0.421
 2018TIP3    H2 6061   3.779   1.252   0.560
 2019TIP3   OH2 6062   1.192   4.904   2.452
 2019TIP3    H1 6063   1.108   4.950   2.448
 2019TIP3    H2 6064   1.244   4.956   2.513
 2020TIP3   OH2 6065   5.894   0.228   1.788
 2020TIP3    H1 6066   5.897   0.150   1.732
 2020TIP3    H2 6067   5.893   0.301   1.726
 2021TIP3   OH2 6068   1.648   3.523   2.098
 2021TIP3    H1 6069   1.619   3.560   2.015
 2021TIP3    H2 6070   1.575   3.535   2.158
 2022TIP3   OH2 6071   2.655   0.427   4.475
 2022TIP3    H1 6072   2.573   0.461   4.439
 2022TIP3    H2 6073   2.652   0.333   4.456
 2023TIP3   OH2 6074   1.920   5.716   4.935
 2023TIP3    H1 6075   1.961   5.755   5.012
 2023TIP3    H2 6076   1.833   5.756   4.932
 2024TIP3   OH2 6077   0.324   2.842   1.218
 2024TIP3    H1 6078   0.344   2.935   1.216
 2024TIP3    H2 6079   0.325   2.815   1.127
 2025TIP3   OH2 6080   1.960   1.684   4.160
 2025TIP3    H1 6081   1.909   1.604   4.168
 2025TIP3    H2 6082   1.909   1.741   4.102
 2026TIP3   OH2 6083   0.596   0.771   0.834
 2026TIP3    H1 6084   0.646   0.851   0.816
 2026TIP3    H2 6085   0.505   0.800   0.838
 2027TIP3   OH2 6086   2.646   5.998   2.530
 2027TIP3    H1 6087   2.575   5.948   2.570
 2027TIP3    H2 6088   2.637   5.982   2.436
 2028TIP3   OH2 6089   4.491   4.855   5.232
 2028TIP3    H1 6090   4.563   4.796   5.210
 2028TIP3    H2 6091   4.463   4.892   5.149
 2029TIP3   OH2 6092   0.010   1.758   0.110
 2029TIP3    H1 6093   0.014   1.853   0.111
 2029TIP3    H2 6094   0.099   1.730   0.092
 2030TIP3   OH2 6095   0.339   0.524   3.759
 2030TIP3    H1 6096   0.284   0.468   3.704
 2030TIP3    H2 6097   0.385   0.581   3.697
 2031TIP3   OH2 6098   2.669   4.316   2.498
 2031TIP3    H1 6099   2.729   4.242   2.492
 2031TIP3    H2 6100   2.725   4.393   2.488
 2032TIP3   OH2 6101   5.769   0.026   0.445
 2032TIP3    H1 6102   5.697   0.006   0.385
 2032TIP3    H2 6103   5.833  -0.044   0.430
 2033TIP3   OH2 6104   0.920   1.654   1.722
 2033TIP3    H1 6105   0.957   1.577   1.766
 2033TIP3    H2 6106   0.827   1.649   1.741
 2034TIP3   OH2 6107   0.158   0.706   4.789
 2034TIP3    H1 6108   0.200   0.783   4.828
 2034TIP3    H2 6109   0.201   0.632   4.830
 2035TIP3   OH2 6110   2.752   2.994   2.802
 2035TIP3    H1 6111   2.786   3.081   2.823
 2035TIP3    H2 6112   2.827   2.947   2.765
 2036TIP3   OH2 6113   5.109   1.941   4.022
 2036TIP3    H1 6114   5.169   1.959   3.950
 2036TIP3    H2 6115   5.062   2.023   4.036
 2037TIP3   OH2 6116   0.861  -0.047   0.769
 2037TIP3    H1 6117   0.801   0.015   0.726
 2037TIP3    H2 6118   0.939   0.004   0.789
 2038TIP3   OH2 6119   0.909   2.795   1.281
 2038TIP3    H1 6120   0.872   2.752   1.204
 2038TIP3    H2 6121   0.846   2.865   1.301
 2039TIP3   OH2 6122   0.564   0.578   0.636
 2039TIP3    H1 6123   0.493   0.526   0.674
 2039TIP3    H2 6124   0.588   0.639   0.706
 2040TIP3   OH2 6125   3.740   5.705   0.124
 2040TIP3    H1 6126   3.676   5.735   0.188
 2040TIP3    H2 6127   3.752   5.612   0.144
 2041TIP3   OH2 6128   1.011   1.672   0.589
 2041TIP3    H1 6129   1.014   1.619   0.509
 2041TIP3    H2 6130   1.095   1.655   0.632
 2042TIP3   OH2 6131   3.789   3.726   4.107
 2042TIP3    H1 6132   3.873   3.762   4.135
 2042TIP3    H2 6133   3.789   3.735   4.012
 2043TIP3   OH2 6134   1.776   1.294   2.497
 2043TIP3    H1 6135   1.722   1.341   2.433
 2043TIP3    H2 6136   1.771   1.348   2.576
 2044TIP3   OH2 6137   5.551   0.087   3.580
 2044TIP3    H1 6138   5.600   0.006   3.567
 2044TIP3    H2 6139   5.513   0.106   3.494
 2045TIP3   OH2 6140   4.563   0.928   2.915
 2045TIP3    H1 6141   4.556   0.838   2.944
 2045TIP3    H2 6142   4.520   0.979   2.984
 2046TIP3   OH2 6143   2.959   5.365   4.495
 2046TIP3    H1 6144   2.911   5.377   4.577
 2046TIP3    H2 6145   3.005   5.447   4.481
 2047TIP3   OH2 6146   4.580   5.493   1.662
 2047TIP3    H1 6147   4.558   5.583   1.637
 2047TIP3    H2 6148   4.625   5.457   1.585
 2048TIP3   OH2 6149   4.028   1.568   0.991
 2048TIP3    H1 6150   3.965   1.504   1.024
 2048TIP3    H2 6151   4.064   1.609   1.069
 2049TIP3   OH2 6152   1.877   0.421   2.879
 2049TIP3    H1 6153   1.923   0.388   2.802
 2049TIP3    H2 6154   1.938   0.485   2.918
 2050TIP3   OH2 6155   4.489   0.763   1.142
 2050TIP3    H1 6156   4.462   0.680   1.104
 2050TIP3    H2 6157   4.566   0.789   1.091
 2051TIP3   OH2 6158   5.591   4.634   2.481
 2051TIP3    H1 6159   5.563   4.645   2.572
 2051TIP3    H2 6160   5.669   4.579   2.486
 2052TIP3   OH2 6161   5.740   3.175   3.442
 2052TIP3    H1 6162   5.754   3.223   3.361
 2052TIP3    H2 6163   5.708   3.089   3.414
 2053TIP3   OH2 6164   2.719   4.029   3.324
 2053TIP3    H1 6165   2.716   3.958   3.388
 2053TIP3    H2 6166   2.793   4.084   3.352
 2054TIP3   OH2 6167   2.085   3.720   4.101
 2054TIP3    H1 6168   2.108   3.719   4.194
 2054TIP3    H2 6169   2.139   3.651   4.062
 2055TIP3   OH2 6170   2.641   1.244   4.993
 2055TIP3    H1 6171   2.675   1.249   5.082
 2055TIP3    H2 6172   2.564   1.302   4.994
 2056TIP3   OH2 6173   2.031   1.338   1.860
 2056TIP3    H1 6174   2.009   1.431   1.865
 2056TIP3    H2 6175   1.969   1.303   1.796
 2057TIP3   OH2 6176   0.847   3.596   3.638
 2057TIP3    H1 6177   0.793   3.618   3.714
 2057TIP3    H2 6178   0.934   3.577   3.674
 2058TIP3   OH2 6179   0.421   4.371   4.463
 2058TIP3    H1 6180   0.408   4.299   4.524
 2058TIP3    H2 6181   0.448   4.444   4.518
 2059TIP3   OH2 6182   0.618   2.846   4.959
 2059TIP3    H1 6183   0.636   2.876   5.048
 2059TIP3    H2 6184   0.529   2.810   4.963
 2060TIP3   OH2 6185   2.848   5.387   1.425
 2060TIP3    H1 6186   2.923   5.424   1.379
 2060TIP3    H2 6187   2.859   5.292   1.417
 2061TIP3   OH2 6188   1.240   4.855   0.860
 2061TIP3    H1 6189   1.161   4.885   0.815
 2061TIP3    H2 6190   1.225   4.873   0.952
 2062TIP3   OH2 6191   4.838   2.880   1.120
 2062TIP3    H1 6192   4.777   2.885   1.046
 2062TIP3    H2 6193   4.817   2.796   1.162
 2063TIP3   OH2 6194   5.659   2.202   4.122
 2063TIP3    H1 6195   5.700   2.288   4.120
 2063TIP3    H2 6196   5.570   2.217   4.089
 2064TIP3   OH2 6197   0.163   4.857   4.542
 2064TIP3    H1 6198   0.171   4.906   4.624
 2064TIP3    H2 6199   0.252   4.855   4.506
 2065TIP3   OH2 6200   5.674   2.133   2.248
 2065TIP3    H1 6201   5.765   2.112   2.226
 2065TIP3    H2 6202   5.668   2.228   2.235
 2066TIP3   OH2 6203   5.820   1.569   4.498
 2066TIP3    H1 6204   5.802   1.509   4.426
 2066TIP3    H2 6205   5.912   1.552   4.519
 2067TIP3   OH2 6206   5.930   4.834   2.487
 2067TIP3    H1 6207   5.843   4.853   2.523
 2067TIP3    H2 6208   5.949   4.908   2.429
 2068TIP3   OH2 6209   4.283   0.422   0.270
 2068TIP3    H1 6210   4.217   0.442   0.337
 2068TIP3    H2 6211   4.234   0.377   0.201
 2069TIP3   OH2 6212   4.259   1.851   3.077
 2069TIP3    H1 6213   4.173   1.816   3.055
 2069TIP3    H2 6214   4.288   1.799   3.152
 2070TIP3   OH2 6215   1.575   0.178   4.729
 2070TIP3    H1 6216   1.570   0.242   4.800
 2070TIP3    H2 6217   1.551   0.228   4.651
 2071TIP3   OH2 6218   6.040   5.534   0.293
 2071TIP3    H1 6219   6.014   5.463   0.353
 2071TIP3    H2 6220   5.989   5.518   0.214
 2072TIP3   OH2 6221   0.366   2.838   0.953
 2072TIP3    H1 6222   0.291   2.779   0.942
 2072TIP3    H2 6223   0.355   2.904   0.884
 2073TIP3   OH2 6224   5.647   1.789   4.492
 2073TIP3    H1 6225   5.692   1.707   4.476
 2073TIP3    H2 6226   5.695   1.830   4.563
 2074TIP3   OH2 6227   5.894   5.366   1.402
 2074TIP3    H1 6228   5.887   5.420   1.480
 2074TIP3    H2 6229   5.986   5.369   1.378
 2075TIP3   OH2 6230   3.768   4.547   1.662
 2075TIP3    H1 6231   3.704   4.618   1.664
 2075TIP3    H2 6232   3.836   4.578   1.602
 2076TIP3   OH2 6233   0.928   1.017   5.166
 2076TIP3    H1 6234   0.980   1.016   5.246
 2076TIP3    H2 6235   0.955   1.096   5.120
 2077TIP3   OH2 6236   5.691   4.135   0.292
 2077TIP3    H1 6237   5.765   4.137   0.231
 2077TIP3    H2 6238   5.614   4.137   0.236
 2078TIP3   OH2 6239   3.520   1.771   3.970
 2078TIP3    H1 6240   3.598   1.717   3.979
 2078TIP3    H2 6241   3.483   1.775   4.058
 2079TIP3   OH2 6242   3.581   5.440   5.149
 2079TIP3    H1 6243   3.502   5.388   5.165
 2079TIP3    H2 6244   3.612   5.411   5.064
 2080TIP3   OH2 6245   4.896   0.278   3.280
 2080TIP3    H1 6246   4.948   0.353   3.253
 2080TIP3    H2 6247   4.926   0.206   3.224
 2081TIP3   OH2 6248   2.612   4.533   4.937
 2081TIP3    H1 6249   2.639   4.604   4.995
 2081TIP3    H2 6250   2.518   4.527   4.949
 2082TIP3   OH2 6251   0.311   1.775   0.141
 2082TIP3    H1 6252   0.323   1.854   0.194
 2082TIP3    H2 6253   0.323   1.805   0.050
 2083TIP3   OH2 6254   5.295   5.315   2.733
 2083TIP3    H1 6255   5.266   5.249   2.669
 2083TIP3    H2 6256   5.375   5.279   2.769
 2084TIP3   OH2 6257   5.640   3.064   5.150
 2084TIP3    H1 6258   5.654   3.153   5.117
 2084TIP3    H2 6259   5.554   3.039   5.117
 2085TIP3   OH2 6260   2.188   5.362   2.744
 2085TIP3    H1 6261   2.156   5.368   2.654
 2085TIP3    H2 6262   2.270   5.412   2.743
 2086TIP3   OH2 6263   3.436   2.225   4.439
 2086TIP3    H1 6264   3.398   2.305   4.476
 2086TIP3    H2 6265   3.458   2.171   4.515
 2087TIP3   OH2 6266   5.387   1.471   2.366
 2087TIP3    H1 6267   5.435   1.388   2.368
 2087TIP3    H2 6268   5.452   1.537   2.392
 2088TIP3   OH2 6269   4.409   1.672   1.222
 2088TIP3    H1 6270   4.449   1.616   1.155
 2088TIP3    H2 6271   4.377   1.748   1.174
 2089TIP3   OH2 6272   4.229   2.990   4.405
 2089TIP3    H1 6273   4.184   3.003   4.322
 2089TIP3    H2 6274   4.244   3.078   4.439
 2090TIP3   OH2 6275   5.489   1.115   4.603
 2090TIP3    H1 6276   5.546   1.173   4.553
 2090TIP3    H2 6277   5.406   1.162   4.609
 2091TIP3   OH2 6278   0.869   0.150   3.731
 2091TIP3    H1 6279   0.928   0.216   3.768
 2091TIP3    H2 6280   0.908   0.066   3.756
 2092TIP3   OH2 6281   1.413   1.441   0.319
 2092TIP3    H1 6282   1.383   1.357   0.284
 2092TIP3    H2 6283   1.459   1.418   0.399
 2093TIP3   OH2 6284   4.260   1.604   0.797
 2093TIP3    H1 6285   4.246   1.595   0.891
 2093TIP3    H2 6286   4.344   1.649   0.789
 2094TIP3   OH2 6287   3.611   3.007   1.439
 2094TIP3    H1 6288   3.664   3.080   1.405
 2094TIP3    H2 6289   3.522   3.026   1.408
 2095TIP3   OH2 6290   0.740   2.385   2.918
 2095TIP3    H1 6291   0.685   2.463   2.916
 2095TIP3    H2 6292   0.822   2.414   2.957
 2096TIP3   OH2 6293   2.166   2.163   4.427
 2096TIP3    H1 6294   2.164   2.069   4.443
 2096TIP3    H2 6295   2.254   2.191   4.453
 2097TIP3   OH2 6296   4.240   4.225   3.357
 2097TIP3    H1 6297   4.282   4.156   3.408
 2097TIP3    H2 6298   4.272   4.307   3.397
 2098TIP3   OH2 6299   5.773   3.011   0.523
 2098TIP3    H1 6300   5.729   3.022   0.607
 2098TIP3    H2 6301   5.855   2.966   0.545
 2099TIP3   OH2 6302   2.840   1.730   1.169
 2099TIP3    H1 6303   2.766   1.679   1.204
 2099TIP3    H2 6304   2.803   1.817   1.154
 2100TIP3   OH2 6305   5.190   0.384   1.818
 2100TIP3    H1 6306   5.129   0.312   1.834
 2100TIP3    H2 6307   5.276   0.342   1.816
 2101TIP3   OH2 6308   1.798   0.493   0.228
 2101TIP3    H1 6309   1.754   0.531   0.303
 2101TIP3    H2 6310   1.789   0.557   0.158
 2102TIP3   OH2 6311   3.629   1.207   2.253
 2102TIP3    H1 6312   3.664   1.120   2.237
 2102TIP3    H2 6313   3.547   1.209   2.204
 2103TIP3   OH2 6314   6.156   3.872   1.662
 2103TIP3    H1 6315   6.089   3.936   1.688
 2103TIP3    H2 6316   6.176   3.825   1.743
 2104TIP3   OH2 6317   4.716   3.206   1.314
 2104TIP3    H1 6318   4.748   3.122   1.346
 2104TIP3    H2 6319   4.726   3.201   1.219
 2105TIP3   OH2 6320   4.497   1.776   0.794
 2105TIP3    H1 6321   4.557   1.797   0.865
 2105TIP3    H2 6322   4.517   1.840   0.726
 2106TIP3   OH2 6323   2.063   5.538   4.691
 2106TIP3    H1 6324   1.985   5.573   4.648
 2106TIP3    H2 6325   2.062   5.578   4.778
 2107TIP3   OH2 6326   0.222   1.669   0.625
 2107TIP3    H1 6327   0.269   1.692   0.706
 2107TIP3    H2 6328   0.290   1.666   0.558
 2108TIP3   OH2 6329   2.033   0.770   3.092
 2108TIP3    H1 6330   2.075   0.685   3.078
 2108TIP3    H2 6331   1.983   0.759   3.173
 2109TIP3   OH2 6332   0.708   1.122   0.119
 2109TIP3    H1 6333   0.694   1.094   0.210
 2109TIP3    H2 6334   0.657   1.203   0.111
 2110TIP3   OH2 6335   2.736   4.307   1.502
 2110TIP3    H1 6336   2.718   4.367   1.574
 2110TIP3    H2 6337   2.661   4.316   1.444
 2111TIP3   OH2 6338   4.413   5.537   3.843
 2111TIP3    H1 6339   4.414   5.459   3.897
 2111TIP3    H2 6340   4.381   5.607   3.901
 2112TIP3   OH2 6341   5.141   5.273   1.652
 2112TIP3    H1 6342   5.227   5.314   1.648
 2112TIP3    H2 6343   5.110   5.273   1.562
 2113TIP3   OH2 6344   5.620   4.077   3.260
 2113TIP3    H1 6345   5.636   4.034   3.176
 2113TIP3    H2 6346   5.707   4.104   3.290
 2114TIP3   OH2 6347   5.828   0.384   3.035
 2114TIP3    H1 6348   5.797   0.469   3.064
 2114TIP3    H2 6349   5.749   0.330   3.028
 2115TIP3   OH2 6350   2.540   2.215   1.641
 2115TIP3    H1 6351   2.515   2.180   1.556
 2115TIP3    H2 6352   2.461   2.258   1.674
 2116TIP3   OH2 6353   0.514   4.697   0.589
 2116TIP3    H1 6354   0.556   4.717   0.672
 2116TIP3    H2 6355   0.527   4.776   0.536
 2117TIP3   OH2 6356   2.778   4.188   4.543
 2117TIP3    H1 6357   2.871   4.180   4.519
 2117TIP3    H2 6358   2.775   4.261   4.605
 2118TIP3   OH2 6359   4.014   5.033   1.860
 2118TIP3    H1 6360   4.088   5.029   1.920
 2118TIP3    H2 6361   4.054   5.055   1.775
 2119TIP3   OH2 6362   1.290   4.077   1.704
 2119TIP3    H1 6363   1.280   4.162   1.660
 2119TIP3    H2 6364   1.382   4.074   1.728
 2120TIP3   OH2 6365   3.993   1.015   0.596
 2120TIP3    H1 6366   4.036   1.027   0.512
 2120TIP3    H2 6367   3.899   1.026   0.576
 2121TIP3   OH2 6368   6.058   5.188   2.617
 2121TIP3    H1 6369   5.980   5.233   2.584
 2121TIP3    H2 6370   6.122   5.257   2.631
 2122TIP3   OH2 6371   3.115   3.698   0.903
 2122TIP3    H1 6372   3.071   3.737   0.828
 2122TIP3    H2 6373   3.109   3.764   0.972
 2123TIP3   OH2 6374   4.274   1.153   1.600
 2123TIP3    H1 6375   4.346   1.115   1.650
 2123TIP3    H2 6376   4.296   1.136   1.508
 2124TIP3   OH2 6377   6.318   3.990   1.498
 2124TIP3    H1 6378   6.263   3.941   1.559
 2124TIP3    H2 6379   6.352   4.063   1.549
 2125TIP3   OH2 6380   2.497   3.391   3.356
 2125TIP3    H1 6381   2.450   3.441   3.422
 2125TIP3    H2 6382   2.453   3.306   3.354
 2126TIP3   OH2 6383   2.628   3.393   3.636
 2126TIP3    H1 6384   2.655   3.412   3.726
 2126TIP3    H2 6385   2.547   3.344   3.645
 2127TIP3   OH2 6386   6.364   5.531   3.548
 2127TIP3    H1 6387   6.448   5.573   3.565
 2127TIP3    H2 6388   6.303   5.604   3.536
 2128TIP3   OH2 6389   0.881   4.768   2.411
 2128TIP3    H1 6390   0.816   4.821   2.459
 2128TIP3    H2 6391   0.874   4.681   2.450
 2129TIP3   OH2 6392   5.099   4.720   2.372
 2129TIP3    H1 6393   5.060   4.745   2.456
 2129TIP3    H2 6394   5.147   4.640   2.391
 2130TIP3   OH2 6395   1.523   2.868   2.747
 2130TIP3    H1 6396   1.547   2.808   2.818
 2130TIP3    H2 6397   1.427   2.872   2.752
 2131TIP3   OH2 6398   5.287   2.368   0.936
 2131TIP3    H1 6399   5.227   2.341   1.005
 2131TIP3    H2 6400   5.252   2.451   0.904
 2132TIP3   OH2 6401   5.397   2.056   0.683
 2132TIP3    H1 6402   5.472   2.005   0.653
 2132TIP3    H2 6403   5.393   2.131   0.623
 2133TIP3   OH2 6404   3.206   5.527   0.133
 2133TIP3    H1 6405   3.289   5.545   0.090
 2133TIP3    H2 6406   3.214   5.436   0.165
 2134TIP3   OH2 6407   1.312   0.388   3.473
 2134TIP3    H1 6408   1.392   0.392   3.526
 2134TIP3    H2 6409   1.318   0.463   3.413
 2135TIP3   OH2 6410   3.970   4.572   3.813
 2135TIP3    H1 6411   4.049   4.541   3.858
 2135TIP3    H2 6412   3.940   4.646   3.865
 2136TIP3   OH2 6413   0.024   4.265   4.893
 2136TIP3    H1 6414  -0.020   4.275   4.977
 2136TIP3    H2 6415   0.108   4.224   4.914
 2137TIP3   OH2 6416   0.056   5.578   4.768
 2137TIP3    H1 6417   0.076   5.652   4.826
 2137TIP3    H2 6418   0.044   5.617   4.682
 2138TIP3   OH2 6419   5.755   1.975   4.660
 2138TIP3    H1 6420   5.835   1.996   4.612
 2138TIP3    H2 6421   5.698   2.050   4.646
 2139TIP3   OH2 6422   5.918   2.953   2.558
 2139TIP3    H1 6423   5.858   2.950   2.633
 2139TIP3    H2 6424   5.867   2.920   2.485
 2140TIP3   OH2 6425   2.430   2.551   0.014
 2140TIP3    H1 6426   2.394   2.502  -0.060
 2140TIP3    H2 6427   2.524   2.555  -0.004
 2141TIP3   OH2 6428   3.820   1.962   2.981
 2141TIP3    H1 6429   3.912   1.988   2.983
 2141TIP3    H2 6430   3.781   2.003   3.057
 2142TIP3   OH2 6431   5.925   2.549   0.913
 2142TIP3    H1 6432   5.877   2.509   0.841
 2142TIP3    H2 6433   5.897   2.500   0.991
 2143TIP3   OH2 6434   6.101   2.507   1.436
 2143TIP3    H1 6435   6.017   2.489   1.393
 2143TIP3    H2 6436   6.156   2.432   1.413
 2144TIP3   OH2 6437   2.695   2.359   0.617
 2144TIP3    H1 6438   2.612   2.311   0.626
 2144TIP3    H2 6439   2.688   2.402   0.532
 2145TIP3   OH2 6440   4.797   3.673   2.520
 2145TIP3    H1 6441   4.798   3.594   2.574
 2145TIP3    H2 6442   4.776   3.744   2.581
 2146TIP3   OH2 6443   3.887   5.696   0.828
 2146TIP3    H1 6444   3.793   5.709   0.842
 2146TIP3    H2 6445   3.921   5.784   0.810
 2147TIP3   OH2 6446   4.784   3.625   1.555
 2147TIP3    H1 6447   4.830   3.553   1.598
 2147TIP3    H2 6448   4.854   3.680   1.520
 2148TIP3   OH2 6449   3.108   0.242   0.755
 2148TIP3    H1 6450   3.091   0.166   0.698
 2148TIP3    H2 6451   3.165   0.298   0.703
 2149TIP3   OH2 6452   2.049   3.062   3.447
 2149TIP3    H1 6453   2.098   3.019   3.377
 2149TIP3    H2 6454   2.035   2.992   3.512
 2150TIP3   OH2 6455   2.797   4.501   2.298
 2150TIP3    H1 6456   2.886   4.503   2.263
 2150TIP3    H2 6457   2.758   4.422   2.261
 2151TIP3   OH2 6458   5.686   2.807   2.118
 2151TIP3    H1 6459   5.636   2.769   2.046
 2151TIP3    H2 6460   5.769   2.833   2.078
 2152TIP3   OH2 6461   3.850   4.003   3.555
 2152TIP3    H1 6462   3.869   4.096   3.567
 2152TIP3    H2 6463   3.936   3.961   3.550
 2153TIP3   OH2 6464   2.794   3.162   0.918
 2153TIP3    H1 6465   2.833   3.075   0.926
 2153TIP3    H2 6466   2.723   3.151   0.855
 2154TIP3   OH2 6467   4.234   0.934   2.916
 2154TIP3    H1 6468   4.143   0.958   2.899
 2154TIP3    H2 6469   4.234   0.838   2.912
 2155TIP3   OH2 6470   5.241   1.118   4.394
 2155TIP3    H1 6471   5.220   1.056   4.324
 2155TIP3    H2 6472   5.337   1.119   4.398
 2156TIP3   OH2 6473   4.245   0.502   1.343
 2156TIP3    H1 6474   4.159   0.539   1.365
 2156TIP3    H2 6475   4.282   0.564   1.280
 2157TIP3   OH2 6476   4.339   4.445   0.736
 2157TIP3    H1 6477   4.302   4.486   0.657
 2157TIP3    H2 6478   4.287   4.365   0.748
 2158TIP3   OH2 6479   2.629   4.798   4.601
 2158TIP3    H1 6480   2.630   4.857   4.526
 2158TIP3    H2 6481   2.619   4.711   4.564
 2159TIP3   OH2 6482   4.381   2.171   3.898
 2159TIP3    H1 6483   4.398   2.165   3.804
 2159TIP3    H2 6484   4.384   2.265   3.916
 2160TIP3   OH2 6485   0.073   3.952   3.363
 2160TIP3    H1 6486   0.097   3.861   3.343
 2160TIP3    H2 6487   0.068   3.955   3.458
 2161TIP3   OH2 6488   5.971   1.796   0.656
 2161TIP3    H1 6489   5.894   1.768   0.704
 2161TIP3    H2 6490   5.965   1.751   0.572
 2162TIP3   OH2 6491   4.588   3.272   0.671
 2162TIP3    H1 6492   4.552   3.314   0.592
 2162TIP3    H2 6493   4.638   3.341   0.714
 2163TIP3   OH2 6494   6.269  -0.018   1.103
 2163TIP3    H1 6495   6.248   0.057   1.047
 2163TIP3    H2 6496   6.184  -0.057   1.124
 2164TIP3   OH2 6497   2.669   2.845   2.454
 2164TIP3    H1 6498   2.688   2.806   2.539
 2164TIP3    H2 6499   2.574   2.854   2.453
 2165TIP3   OH2 6500   4.196   5.659   3.094
 2165TIP3    H1 6501   4.235   5.746   3.078
 2165TIP3    H2 6502   4.103   5.671   3.073
 2166TIP3   OH2 6503   0.785   2.080   1.718
 2166TIP3    H1 6504   0.734   2.156   1.749
 2166TIP3    H2 6505   0.755   2.008   1.773
 2167TIP3   OH2 6506   4.731   4.761   4.097
 2167TIP3    H1 6507   4.764   4.850   4.112
 2167TIP3    H2 6508   4.766   4.737   4.011
 2168TIP3   OH2 6509   3.994   0.094   1.996
 2168TIP3    H1 6510   4.064   0.072   1.935
 2168TIP3    H2 6511   3.922   0.124   1.940
 2169TIP3   OH2 6512   5.337   1.614   3.063
 2169TIP3    H1 6513   5.379   1.699   3.071
 2169TIP3    H2 6514   5.401   1.552   3.098
 2170TIP3   OH2 6515   0.825   2.637   3.991
 2170TIP3    H1 6516   0.746   2.610   4.038
 2170TIP3    H2 6517   0.896   2.625   4.054
 2171TIP3   OH2 6518   0.183   3.161   3.461
 2171TIP3    H1 6519   0.238   3.237   3.479
 2171TIP3    H2 6520   0.098   3.183   3.500
 2172TIP3   OH2 6521   0.946   5.848   2.258
 2172TIP3    H1 6522   1.017   5.794   2.292
 2172TIP3    H2 6523   0.934   5.818   2.168
 2173TIP3   OH2 6524   3.173   5.811   1.079
 2173TIP3    H1 6525   3.193   5.901   1.054
 2173TIP3    H2 6526   3.231   5.793   1.154
 2174TIP3   OH2 6527   1.326   0.797   1.253
 2174TIP3    H1 6528   1.232   0.807   1.236
 2174TIP3    H2 6529   1.335   0.812   1.347
 2175TIP3   OH2 6530   2.326   1.161   4.358
 2175TIP3    H1 6531   2.399   1.215   4.330
 2175TIP3    H2 6532   2.340   1.076   4.316
 2176TIP3   OH2 6533   3.752   3.241   1.403
 2176TIP3    H1 6534   3.848   3.245   1.400
 2176TIP3    H2 6535   3.726   3.319   1.452
 2177TIP3   OH2 6536   1.619   2.671   2.186
 2177TIP3    H1 6537   1.699   2.694   2.232
 2177TIP3    H2 6538   1.549   2.686   2.249
 2178TIP3   OH2 6539   3.615   0.610   1.223
 2178TIP3    H1 6540   3.701   0.651   1.236
 2178TIP3    H2 6541   3.594   0.628   1.131
 2179TIP3   OH2 6542   4.363   3.603   2.872
 2179TIP3    H1 6543   4.349   3.596   2.966
 2179TIP3    H2 6544   4.283   3.567   2.833
 2180TIP3   OH2 6545   5.982   0.466   1.992
 2180TIP3    H1 6546   5.975   0.560   1.975
 2180TIP3    H2 6547   5.985   0.426   1.905
 2181TIP3   OH2 6548   0.543   5.600   2.819
 2181TIP3    H1 6549   0.464   5.639   2.783
 2181TIP3    H2 6550   0.599   5.675   2.842
 2182TIP3   OH2 6551   0.272   5.680   2.813
 2182TIP3    H1 6552   0.221   5.676   2.732
 2182TIP3    H2 6553   0.227   5.744   2.867
 2183TIP3   OH2 6554   1.243   5.653   3.618
 2183TIP3    H1 6555   1.241   5.699   3.702
 2183TIP3    H2 6556   1.336   5.640   3.600
 2184TIP3   OH2 6557   1.063   4.449   3.618
 2184TIP3    H1 6558   1.055   4.404   3.533
 2184TIP3    H2 6559   0.992   4.513   3.618
 2185TIP3   OH2 6560   5.273   3.536   3.095
 2185TIP3    H1 6561   5.218   3.530   3.173
 2185TIP3    H2 6562   5.214   3.517   3.022
 2186TIP3   OH2 6563   5.381   1.520   2.114
 2186TIP3    H1 6564   5.464   1.473   2.103
 2186TIP3    H2 6565   5.361   1.513   2.207
 2187TIP3   OH2 6566   3.221   0.946   4.815
 2187TIP3    H1 6567   3.286   0.922   4.749
 2187TIP3    H2 6568   3.178   0.864   4.838
 2188TIP3   OH2 6569   2.272   1.036   1.249
 2188TIP3    H1 6570   2.189   1.007   1.212
 2188TIP3    H2 6571   2.260   1.130   1.265
 2189TIP3   OH2 6572   4.825   5.821   2.989
 2189TIP3    H1 6573   4.745   5.850   2.946
 2189TIP3    H2 6574   4.827   5.726   2.976
 2190TIP3   OH2 6575   5.038   4.384   4.930
 2190TIP3    H1 6576   4.996   4.341   4.856
 2190TIP3    H2 6577   5.107   4.438   4.891
 2191TIP3   OH2 6578   2.994   3.512   3.170
 2191TIP3    H1 6579   2.924   3.567   3.134
 2191TIP3    H2 6580   3.027   3.561   3.245
 2192TIP3   OH2 6581   0.027   2.077   4.574
 2192TIP3    H1 6582   0.016   1.982   4.565
 2192TIP3    H2 6583   0.065   2.104   4.490
 2193TIP3   OH2 6584   0.721   2.338   3.506
 2193TIP3    H1 6585   0.666   2.405   3.466
 2193TIP3    H2 6586   0.694   2.337   3.598
 2194TIP3   OH2 6587   0.378   3.249   1.004
 2194TIP3    H1 6588   0.352   3.171   0.954
 2194TIP3    H2 6589   0.424   3.304   0.941
 2195TIP3   OH2 6590   4.791   5.883   1.900
 2195TIP3    H1 6591   4.863   5.858   1.842
 2195TIP3    H2 6592   4.748   5.957   1.856
 2196TIP3   OH2 6593   0.230   0.256   1.026
 2196TIP3    H1 6594   0.320   0.288   1.027
 2196TIP3    H2 6595   0.186   0.305   1.096
 2197TIP3   OH2 6596   0.876   5.085   0.498
 2197TIP3    H1 6597   0.948   5.148   0.501
 2197TIP3    H2 6598   0.822   5.115   0.425
 2198TIP3   OH2 6599   0.268   3.407   3.531
 2198TIP3    H1 6600   0.275   3.430   3.623
 2198TIP3    H2 6601   0.345   3.446   3.490
 2199TIP3   OH2 6602   5.259   4.077   3.748
 2199TIP3    H1 6603   5.263   4.153   3.689
 2199TIP3    H2 6604   5.275   4.002   3.690
 2200TIP3   OH2 6605   4.497   5.368   5.010
 2200TIP3    H1 6606   4.475   5.411   4.927
 2200TIP3    H2 6607   4.565   5.305   4.987
 2201TIP3   OH2 6608   1.163   4.135   2.932
 2201TIP3    H1 6609   1.186   4.205   2.994
 2201TIP3    H2 6610   1.222   4.150   2.858
 2202TIP3   OH2 6611   6.051   4.875   4.783
 2202TIP3    H1 6612   6.018   4.926   4.710
 2202TIP3    H2 6613   6.009   4.789   4.774
 2203TIP3   OH2 6614   6.304   5.490   3.981
 2203TIP3    H1 6615   6.274   5.417   4.035
 2203TIP3    H2 6616   6.396   5.472   3.965
 2204TIP3   OH2 6617   3.458   5.875   0.912
 2204TIP3    H1 6618   3.539   5.864   0.961
 2204TIP3    H2 6619   3.463   5.811   0.841
 2205TIP3   OH2 6620   0.230   1.288   2.360
 2205TIP3    H1 6621   0.161   1.255   2.302
 2205TIP3    H2 6622   0.251   1.215   2.418
 2206TIP3   OH2 6623   0.197   1.368   5.093
 2206TIP3    H1 6624   0.289   1.351   5.116
 2206TIP3    H2 6625   0.189   1.340   5.002
 2207TIP3   OH2 6626   1.931   4.505   4.007
 2207TIP3    H1 6627   1.877   4.444   3.957
 2207TIP3    H2 6628   2.012   4.457   4.023
 2208TIP3   OH2 6629   3.201   4.556   0.745
 2208TIP3    H1 6630   3.135   4.539   0.813
 2208TIP3    H2 6631   3.277   4.505   0.772
 2209TIP3   OH2 6632   6.189   2.599   1.958
 2209TIP3    H1 6633   6.179   2.681   1.909
 2209TIP3    H2 6634   6.241   2.543   1.901
 2210TIP3   OH2 6635   2.694   5.269   1.700
 2210TIP3    H1 6636   2.717   5.198   1.760
 2210TIP3    H2 6637   2.734   5.243   1.617
 2211TIP3   OH2 6638   2.071   2.336   4.221
 2211TIP3    H1 6639   2.123   2.262   4.252
 2211TIP3    H2 6640   2.095   2.345   4.129
 2212TIP3   OH2 6641   2.085   0.214   1.686
 2212TIP3    H1 6642   2.000   0.257   1.673
 2212TIP3    H2 6643   2.092   0.205   1.781
 2213TIP3   OH2 6644   0.845   5.152   1.798
 2213TIP3    H1 6645   0.938   5.172   1.812
 2213TIP3    H2 6646   0.808   5.145   1.885
 2214TIP3   OH2 6647   3.411   0.350   0.390
 2214TIP3    H1 6648   3.370   0.265   0.376
 2214TIP3    H2 6649   3.505   0.330   0.392
 2215TIP3   OH2 6650   2.249   4.056   4.748
 2215TIP3    H1 6651   2.334   4.065   4.789
 2215TIP3    H2 6652   2.256   4.106   4.666
 2216TIP3   OH2 6653   1.529   2.158   2.923
 2216TIP3    H1 6654   1.575   2.107   2.990
 2216TIP3    H2 6655   1.489   2.092   2.866
 2217TIP3   OH2 6656   2.461   3.183   4.619
 2217TIP3    H1 6657   2.398   3.253   4.602
 2217TIP3    H2 6658   2.493   3.201   4.708
 2218TIP3   OH2 6659   1.562   1.041   1.884
 2218TIP3    H1 6660   1.473   1.075   1.881
 2218TIP3    H2 6661   1.560   0.963   1.829
 2219TIP3   OH2 6662   4.614   1.504   5.086
 2219TIP3    H1 6663   4.694   1.453   5.085
 2219TIP3    H2 6664   4.547   1.444   5.119
 2220TIP3   OH2 6665   3.676   2.807   2.653
 2220TIP3    H1 6666   3.585   2.778   2.661
 2220TIP3    H2 6667   3.694   2.852   2.735
 2221TIP3   OH2 6668   3.635   3.429   0.630
 2221TIP3    H1 6669   3.618   3.516   0.667
 2221TIP3    H2 6670   3.696   3.445   0.559
 2222TIP3   OH2 6671   5.111   4.188   0.368
 2222TIP3    H1 6672   5.102   4.243   0.446
 2222TIP3    H2 6673   5.164   4.240   0.308
 2223TIP3   OH2 6674   0.601   0.339   1.453
 2223TIP3    H1 6675   0.614   0.301   1.540
 2223TIP3    H2 6676   0.666   0.410   1.448
 2224TIP3   OH2 6677   2.554   3.400   2.556
 2224TIP3    H1 6678   2.484   3.350   2.515
 2224TIP3    H2 6679   2.624   3.403   2.491
 2225TIP3   OH2 6680   2.537   4.309   1.023
 2225TIP3    H1 6681   2.467   4.363   1.060
 2225TIP3    H2 6682   2.515   4.220   1.050
 2226TIP3   OH2 6683   3.699   4.657   1.159
 2226TIP3    H1 6684   3.676   4.651   1.066
 2226TIP3    H2 6685   3.790   4.626   1.163
 2227TIP3   OH2 6686   5.291   5.092   4.343
 2227TIP3    H1 6687   5.310   5.186   4.343
 2227TIP3    H2 6688   5.285   5.069   4.250
 2228TIP3   OH2 6689   0.684   4.419   3.708
 2228TIP3    H1 6690   0.657   4.345   3.762
 2228TIP3    H2 6691   0.664   4.496   3.760
 2229TIP3   OH2 6692   1.996   4.472   0.586
 2229TIP3    H1 6693   1.968   4.471   0.678
 2229TIP3    H2 6694   2.090   4.451   0.590
 2230TIP3   OH2 6695   1.378   1.469   1.628
 2230TIP3    H1 6696   1.429   1.452   1.707
 2230TIP3    H2 6697   1.355   1.562   1.633
 2231TIP3   OH2 6698   3.564   5.916   1.334
 2231TIP3    H1 6699   3.581   5.999   1.289
 2231TIP3    H2 6700   3.646   5.897   1.380
 2232TIP3   OH2 6701   2.259   3.301   1.756
 2232TIP3    H1 6702   2.264   3.318   1.850
 2232TIP3    H2 6703   2.204   3.372   1.722
 2233TIP3   OH2 6704   6.007   0.785   0.369
 2233TIP3    H1 6705   6.099   0.788   0.342
 2233TIP3    H2 6706   5.960   0.833   0.300
 2234TIP3   OH2 6707   4.114   1.512   0.325
 2234TIP3    H1 6708   4.103   1.438   0.384
 2234TIP3    H2 6709   4.194   1.555   0.355
 2235TIP3   OH2 6710   4.614   1.111   3.705
 2235TIP3    H1 6711   4.625   1.206   3.694
 2235TIP3    H2 6712   4.675   1.073   3.642
 2236TIP3   OH2 6713   0.804   2.982   4.768
 2236TIP3    H1 6714   0.779   2.931   4.846
 2236TIP3    H2 6715   0.739   3.051   4.763
 2237TIP3   OH2 6716   5.651   2.474   3.900
 2237TIP3    H1 6717   5.587   2.503   3.834
 2237TIP3    H2 6718   5.677   2.387   3.871
 2238TIP3   OH2 6719   0.680   4.718   2.887
 2238TIP3    H1 6720   0.695   4.636   2.841
 2238TIP3    H2 6721   0.750   4.775   2.858
 2239TIP3   OH2 6722   3.766   1.838   0.376
 2239TIP3    H1 6723   3.826   1.869   0.444
 2239TIP3    H2 6724   3.717   1.916   0.349
 2240TIP3   OH2 6725   6.057   3.789   3.768
 2240TIP3    H1 6726   6.037   3.729   3.696
 2240TIP3    H2 6727   6.096   3.865   3.725
 2241TIP3   OH2 6728   3.548   2.861   4.286
 2241TIP3    H1 6729   3.518   2.812   4.363
 2241TIP3    H2 6730   3.624   2.910   4.317
 2242TIP3   OH2 6731   6.061   4.679   4.489
 2242TIP3    H1 6732   6.143   4.707   4.448
 2242TIP3    H2 6733   6.088   4.615   4.555
 2243TIP3   OH2 6734   2.158   3.220   4.376
 2243TIP3    H1 6735   2.245   3.261   4.381
 2243TIP3    H2 6736   2.159   3.152   4.442
 2244TIP3   OH2 6737   6.176   4.956   3.222
 2244TIP3    H1 6738   6.213   4.997   3.300
 2244TIP3    H2 6739   6.118   5.023   3.185
 2245TIP3   OH2 6740   2.005   2.826   1.287
 2245TIP3    H1 6741   1.928   2.866   1.326
 2245TIP3    H2 6742   1.971   2.751   1.238
 2246TIP3   OH2 6743   3.872   5.274   1.655
 2246TIP3    H1 6744   3.804   5.208   1.667
 2246TIP3    H2 6745   3.864   5.302   1.564
 2247TIP3   OH2 6746   4.259   4.457   4.230
 2247TIP3    H1 6747   4.252   4.362   4.227
 2247TIP3    H2 6748   4.331   4.474   4.291
 2248TIP3   OH2 6749   4.076   3.805   2.206
 2248TIP3    H1 6750   4.064   3.871   2.138
 2248TIP3    H2 6751   4.108   3.855   2.282
 2249TIP3   OH2 6752   1.665   3.490   3.569
 2249TIP3    H1 6753   1.753   3.459   3.548
 2249TIP3    H2 6754   1.670   3.585   3.562
 2250TIP3   OH2 6755   4.204   3.434   4.073
 2250TIP3    H1 6756   4.194   3.499   4.004
 2250TIP3    H2 6757   4.217   3.484   4.153
 2251TIP3   OH2 6758   5.936   3.344   1.335
 2251TIP3    H1 6759   5.889   3.428   1.333
 2251TIP3    H2 6760   6.003   3.356   1.402
 2252TIP3   OH2 6761   5.607   5.178   4.432
 2252TIP3    H1 6762   5.583   5.186   4.525
 2252TIP3    H2 6763   5.536   5.221   4.385
 2253TIP3   OH2 6764   2.617   3.745   2.662
 2253TIP3    H1 6765   2.661   3.781   2.585
 2253TIP3    H2 6766   2.687   3.715   2.719
 2254TIP3   OH2 6767   6.255   1.677   5.155
 2254TIP3    H1 6768   6.207   1.710   5.080
 2254TIP3    H2 6769   6.215   1.721   5.230
 2255TIP3   OH2 6770   2.224   0.437   1.961
 2255TIP3    H1 6771   2.162   0.489   1.910
 2255TIP3    H2 6772   2.192   0.347   1.953
 2256TIP3   OH2 6773   4.425   3.872   2.859
 2256TIP3    H1 6774   4.432   3.911   2.946
 2256TIP3    H2 6775   4.409   3.779   2.876
 2257TIP3   OH2 6776   5.866   0.296   3.610
 2257TIP3    H1 6777   5.897   0.382   3.636
 2257TIP3    H2 6778   5.781   0.286   3.653
 2258TIP3   OH2 6779   1.942   3.761   1.746
 2258TIP3    H1 6780   1.849   3.766   1.724
 2258TIP3    H2 6781   1.949   3.689   1.808
 2259TIP3   OH2 6782   3.716   0.960   1.036
 2259TIP3    H1 6783   3.696   1.052   1.052
 2259TIP3    H2 6784   3.632   0.915   1.051
 2260TIP3   OH2 6785   4.306   0.543   2.172
 2260TIP3    H1 6786   4.214   0.555   2.146
 2260TIP3    H2 6787   4.352   0.617   2.132
 2261TIP3   OH2 6788   4.927   0.307   4.780
 2261TIP3    H1 6789   4.977   0.388   4.795
 2261TIP3    H2 6790   4.956   0.248   4.850
 2262TIP3   OH2 6791   5.038   2.724   1.733
 2262TIP3    H1 6792   5.105   2.730   1.665
 2262TIP3    H2 6793   5.083   2.750   1.813
 2263TIP3   OH2 6794   1.522   0.317   3.653
 2263TIP3    H1 6795   1.597   0.324   3.712
 2263TIP3    H2 6796   1.508   0.223   3.644
 2264TIP3   OH2 6797   3.369   5.901   2.887
 2264TIP3    H1 6798   3.440   5.838   2.871
 2264TIP3    H2 6799   3.314   5.858   2.953
 2265TIP3   OH2 6800   4.101   2.316   3.877
 2265TIP3    H1 6801   4.178   2.330   3.821
 2265TIP3    H2 6802   4.078   2.224   3.864
 2266TIP3   OH2 6803   0.599   1.205   4.909
 2266TIP3    H1 6804   0.653   1.209   4.988
 2266TIP3    H2 6805   0.606   1.114   4.880
 2267TIP3   OH2 6806   6.141   3.543   3.161
 2267TIP3    H1 6807   6.169   3.467   3.110
 2267TIP3    H2 6808   6.221   3.594   3.174
 2268TIP3   OH2 6809   5.301   2.195   2.839
 2268TIP3    H1 6810   5.323   2.257   2.770
 2268TIP3    H2 6811   5.292   2.111   2.794
 2269TIP3   OH2 6812   2.719   0.143   1.589
 2269TIP3    H1 6813   2.775   0.067   1.575
 2269TIP3    H2 6814   2.775   0.218   1.568
 2270TIP3   OH2 6815   1.256   5.261   0.941
 2270TIP3    H1 6816   1.326   5.204   0.908
 2270TIP3    H2 6817   1.296   5.348   0.945
 2271TIP3   OH2 6818   2.950   3.389   2.554
 2271TIP3    H1 6819   2.873   3.417   2.505
 2271TIP3    H2 6820   3.019   3.384   2.489
 2272TIP3   OH2 6821   2.849   5.490   1.693
 2272TIP3    H1 6822   2.872   5.487   1.600
 2272TIP3    H2 6823   2.804   5.407   1.709
 2273TIP3   OH2 6824   3.402   0.952   1.818
 2273TIP3    H1 6825   3.343   0.939   1.892
 2273TIP3    H2 6826   3.464   0.879   1.823
 2274TIP3   OH2 6827   4.980   3.353   3.880
 2274TIP3    H1 6828   4.926   3.413   3.931
 2274TIP3    H2 6829   4.930   3.271   3.880
 2275TIP3   OH2 6830   3.049   3.086   4.803
 2275TIP3    H1 6831   3.010   3.140   4.872
 2275TIP3    H2 6832   2.984   3.019   4.785
 2276TIP3   OH2 6833   0.400   5.845   0.288
 2276TIP3    H1 6834   0.363   5.853   0.200
 2276TIP3    H2 6835   0.385   5.754   0.313
 2277TIP3   OH2 6836   5.489   3.225   4.789
 2277TIP3    H1 6837   5.504   3.191   4.701
 2277TIP3    H2 6838   5.526   3.314   4.787
 2278TIP3   OH2 6839   1.961   3.427   4.504
 2278TIP3    H1 6840   1.910   3.347   4.490
 2278TIP3    H2 6841   2.042   3.397   4.545
 2279TIP3   OH2 6842   1.924   2.591   3.317
 2279TIP3    H1 6843   1.924   2.556   3.406
 2279TIP3    H2 6844   1.847   2.552   3.276
 2280TIP3   OH2 6845   6.238   1.819   4.933
 2280TIP3    H1 6846   6.287   1.897   4.907
 2280TIP3    H2 6847   6.168   1.812   4.867
 2281TIP3   OH2 6848   5.377   3.415   4.290
 2281TIP3    H1 6849   5.369   3.444   4.381
 2281TIP3    H2 6850   5.355   3.322   4.292
 2282TIP3   OH2 6851   6.170   2.878   2.577
 2282TIP3    H1 6852   6.075   2.889   2.565
 2282TIP3    H2 6853   6.188   2.918   2.662
 2283TIP3   OH2 6854   2.160   5.270   1.817
 2283TIP3    H1 6855   2.238   5.326   1.826
 2283TIP3    H2 6856   2.104   5.296   1.891
 2284TIP3   OH2 6857   2.379   1.101   0.790
 2284TIP3    H1 6858   2.412   1.054   0.714
 2284TIP3    H2 6859   2.456   1.141   0.829
 2285TIP3   OH2 6860   0.520   1.479   1.133
 2285TIP3    H1 6861   0.475   1.397   1.111
 2285TIP3    H2 6862   0.484   1.504   1.218
 2286TIP3   OH2 6863   4.181   4.629   0.560
 2286TIP3    H1 6864   4.102   4.627   0.506
 2286TIP3    H2 6865   4.149   4.647   0.648
 2287TIP3   OH2 6866   1.660   1.031   0.827
 2287TIP3    H1 6867   1.720   1.102   0.804
 2287TIP3    H2 6868   1.590   1.074   0.877
 2288TIP3   OH2 6869   2.356   3.149   3.291
 2288TIP3    H1 6870   2.413   3.085   3.334
 2288TIP3    H2 6871   2.293   3.096   3.242
 2289TIP3   OH2 6872   5.888   3.595   3.251
 2289TIP3    H1 6873   5.971   3.556   3.227
 2289TIP3    H2 6874   5.894   3.686   3.222
 2290TIP3   OH2 6875   4.293   2.772   0.255
 2290TIP3    H1 6876   4.264   2.855   0.218
 2290TIP3    H2 6877   4.221   2.745   0.312
 2291TIP3   OH2 6878   5.599   3.211   4.538
 2291TIP3    H1 6879   5.690   3.183   4.540
 2291TIP3    H2 6880   5.600   3.302   4.565
 2292TIP3   OH2 6881   0.154   0.004   2.249
 2292TIP3    H1 6882   0.214  -0.018   2.177
 2292TIP3    H2 6883   0.203   0.066   2.303
 2293TIP3   OH2 6884   4.420   0.478   2.431
 2293TIP3    H1 6885   4.381   0.467   2.344
 2293TIP3    H2 6886   4.447   0.570   2.434
 2294TIP3   OH2 6887   5.958   3.458   4.576
 2294TIP3    H1 6888   5.926   3.536   4.622
 2294TIP3    H2 6889   5.916   3.462   4.490
 2295TIP3   OH2 6890   3.616   3.139   2.654
 2295TIP3    H1 6891   3.632   3.066   2.714
 2295TIP3    H2 6892   3.574   3.206   2.707
 2296TIP3   OH2 6893   3.291   2.072   0.618
 2296TIP3    H1 6894   3.224   2.036   0.560
 2296TIP3    H2 6895   3.261   2.049   0.706
 2297TIP3   OH2 6896   5.796   3.547   0.465
 2297TIP3    H1 6897   5.843   3.493   0.528
 2297TIP3    H2 6898   5.838   3.632   0.470
 2298TIP3   OH2 6899   1.105   3.147   2.025
 2298TIP3    H1 6900   1.036   3.211   2.044
 2298TIP3    H2 6901   1.058   3.070   1.994
 2299TIP3   OH2 6902   4.754   5.629   2.704
 2299TIP3    H1 6903   4.684   5.673   2.752
 2299TIP3    H2 6904   4.719   5.617   2.616
 2300TIP3   OH2 6905   1.817   4.569   2.738
 2300TIP3    H1 6906   1.832   4.505   2.807
 2300TIP3    H2 6907   1.863   4.534   2.662
 2301TIP3   OH2 6908   1.041   0.273   0.704
 2301TIP3    H1 6909   1.100   0.266   0.779
 2301TIP3    H2 6910   1.089   0.235   0.631
 2302TIP3   OH2 6911   1.803   4.103   2.847
 2302TIP3    H1 6912   1.897   4.096   2.863
 2302TIP3    H2 6913   1.771   4.158   2.919
 2303TIP3   OH2 6914   4.963   0.095   3.087
 2303TIP3    H1 6915   4.927   0.006   3.086
 2303TIP3    H2 6916   4.937   0.132   3.003
 2304TIP3   OH2 6917   4.262   2.828   3.998
 2304TIP3    H1 6918   4.305   2.744   4.015
 2304TIP3    H2 6919   4.268   2.839   3.903
 2305TIP3   OH2 6920   5.534   1.920   2.358
 2305TIP3    H1 6921   5.580   1.983   2.303
 2305TIP3    H2 6922   5.444   1.953   2.363
 2306TIP3   OH2 6923   0.509   3.219   3.483
 2306TIP3    H1 6924   0.479   3.199   3.571
 2306TIP3    H2 6925   0.580   3.283   3.495
 2307TIP3   OH2 6926   1.277   0.871   4.434
 2307TIP3    H1 6927   1.218   0.892   4.507
 2307TIP3    H2 6928   1.355   0.924   4.451
 2308TIP3   OH2 6929   4.546   5.482   4.282
 2308TIP3    H1 6930   4.627   5.527   4.309
 2308TIP3    H2 6931   4.569   5.440   4.200
 2309TIP3   OH2 6932   4.483   3.562   0.993
 2309TIP3    H1 6933   4.457   3.491   1.052
 2309TIP3    H2 6934   4.444   3.539   0.909
 2310TIP3   OH2 6935   2.799   5.386   3.486
 2310TIP3    H1 6936   2.764   5.437   3.559
 2310TIP3    H2 6937   2.893   5.381   3.503
 2311TIP3   OH2 6938   0.486   3.857   2.236
 2311TIP3    H1 6939   0.562   3.915   2.231
 2311TIP3    H2 6940   0.498   3.795   2.164
 2312TIP3   OH2 6941   4.002   5.361   3.234
 2312TIP3    H1 6942   4.010   5.340   3.141
 2312TIP3    H2 6943   4.069   5.307   3.277
 2313TIP3   OH2 6944   1.841   5.961   2.231
 2313TIP3    H1 6945   1.870   5.979   2.142
 2313TIP3    H2 6946   1.792   6.039   2.257
 2314TIP3   OH2 6947   2.619   4.881   2.548
 2314TIP3    H1 6948   2.544   4.926   2.588
 2314TIP3    H2 6949   2.580   4.811   2.496
 2315TIP3   OH2 6950   0.404   4.550   0.288
 2315TIP3    H1 6951   0.337   4.486   0.311
 2315TIP3    H2 6952   0.354   4.627   0.259
 2316TIP3   OH2 6953   3.058   4.526   1.917
 2316TIP3    H1 6954   3.109   4.468   1.861
 2316TIP3    H2 6955   3.123   4.584   1.958
 2317TIP3   OH2 6956   6.125   1.757   3.055
 2317TIP3    H1 6957   6.124   1.680   2.998
 2317TIP3    H2 6958   6.051   1.810   3.025
 2318TIP3   OH2 6959   0.826   2.831   4.506
 2318TIP3    H1 6960   0.793   2.906   4.556
 2318TIP3    H2 6961   0.793   2.754   4.554
 2319TIP3   OH2 6962   5.650   0.812   0.337
 2319TIP3    H1 6963   5.556   0.807   0.319
 2319TIP3    H2 6964   5.679   0.721   0.340
 2320TIP3   OH2 6965   4.771   5.522   1.892
 2320TIP3    H1 6966   4.713   5.485   1.826
 2320TIP3    H2 6967   4.859   5.515   1.853
 2321TIP3   OH2 6968   2.753   5.926   4.503
 2321TIP3    H1 6969   2.811   5.861   4.542
 2321TIP3    H2 6970   2.806   5.972   4.439
 2322TIP3   OH2 6971   5.062   5.008   3.442
 2322TIP3    H1 6972   5.116   4.937   3.477
 2322TIP3    H2 6973   4.972   4.983   3.465
 2323TIP3   OH2 6974   5.863  -0.006   0.726
 2323TIP3    H1 6975   5.896   0.070   0.678
 2323TIP3    H2 6976   5.823  -0.061   0.658
 2324TIP3   OH2 6977   4.816   1.496   1.703
 2324TIP3    H1 6978   4.750   1.561   1.678
 2324TIP3    H2 6979   4.883   1.547   1.749
 2325TIP3   OH2 6980   1.161   5.013   1.078
 2325TIP3    H1 6981   1.164   5.098   1.121
 2325TIP3    H2 6982   1.222   4.958   1.127
 2326TIP3   OH2 6983   3.932   1.757   1.967
 2326TIP3    H1 6984   3.921   1.801   1.883
 2326TIP3    H2 6985   3.927   1.827   2.032
 2327TIP3   OH2 6986   3.912   2.381   4.074
 2327TIP3    H1 6987   3.999   2.375   4.036
 2327TIP3    H2 6988   3.855   2.407   4.002
 2328TIP3   OH2 6989   4.199   3.077   4.152
 2328TIP3    H1 6990   4.274   3.099   4.096
 2328TIP3    H2 6991   4.125   3.125   4.114
 2329TIP3   OH2 6992   0.872   5.743   4.102
 2329TIP3    H1 6993   0.934   5.678   4.136
 2329TIP3    H2 6994   0.854   5.800   4.176
 2330TIP3   OH2 6995   4.123   5.863   1.431
 2330TIP3    H1 6996   4.169   5.944   1.409
 2330TIP3    H2 6997   4.030   5.888   1.431
 2331TIP3   OH2 6998   0.871   1.899   0.657
 2331TIP3    H1 6999   0.920   1.822   0.630
 2331TIP3    H2 7000   0.935   1.953   0.704
 2332TIP3   OH2 7001   4.200   2.288   4.337
 2332TIP3    H1 7002   4.153   2.250   4.411
 2332TIP3    H2 7003   4.259   2.353   4.377
 2333TIP3   OH2 7004   3.189   5.052   1.461
 2333TIP3    H1 7005   3.265   5.017   1.509
 2333TIP3    H2 7006   3.221   5.133   1.421
 2334TIP3   OH2 7007   0.446   4.827   1.038
 2334TIP3    H1 7008   0.424   4.907   0.991
 2334TIP3    H2 7009   0.541   4.831   1.050
 2335TIP3   OH2 7010   4.955   0.391   5.110
 2335TIP3    H1 7011   4.992   0.397   5.198
 2335TIP3    H2 7012   4.996   0.462   5.061
 2336TIP3   OH2 7013   0.650   2.156   3.741
 2336TIP3    H1 7014   0.699   2.097   3.798
 2336TIP3    H2 7015   0.610   2.219   3.800
 2337TIP3   OH2 7016   3.505   2.401   4.120
 2337TIP3    H1 7017   3.442   2.451   4.173
 2337TIP3    H2 7018   3.570   2.371   4.183
 2338TIP3   OH2 7019   1.516   5.359   1.045
 2338TIP3    H1 7020   1.517   5.454   1.053
 2338TIP3    H2 7021   1.557   5.342   0.960
 2339TIP3   OH2 7022   4.493   3.127   3.545
 2339TIP3    H1 7023   4.399   3.141   3.537
 2339TIP3    H2 7024   4.532   3.193   3.488
 2340TIP3   OH2 7025   4.725   1.095   2.679
 2340TIP3    H1 7026   4.654   1.128   2.734
 2340TIP3    H2 7027   4.787   1.056   2.741
 2341TIP3   OH2 7028   2.538   5.793   4.465
 2341TIP3    H1 7029   2.490   5.808   4.546
 2341TIP3    H2 7030   2.626   5.827   4.482
 2342TIP3   OH2 7031   2.162   2.689   2.839
 2342TIP3    H1 7032   2.246   2.645   2.824
 2342TIP3    H2 7033   2.141   2.729   2.755
 2343TIP3   OH2 7034   3.037   1.774   4.458
 2343TIP3    H1 7035   3.012   1.697   4.408
 2343TIP3    H2 7036   3.007   1.756   4.547
 2344TIP3   OH2 7037   0.155   4.423   0.868
 2344TIP3    H1 7038   0.229   4.483   0.879
 2344TIP3    H2 7039   0.077   4.478   0.878
 2345TIP3   OH2 7040   2.067   4.024   4.243
 2345TIP3    H1 7041   2.120   4.054   4.169
 2345TIP3    H2 7042   2.011   4.098   4.264
 2346TIP3   OH2 7043   5.940   5.481   4.169
 2346TIP3    H1 7044   5.940   5.387   4.188
 2346TIP3    H2 7045   5.881   5.491   4.095
 2347TIP3   OH2 7046   5.584   3.887   0.092
 2347TIP3    H1 7047   5.519   3.870   0.024
 2347TIP3    H2 7048   5.569   3.978   0.117
 2348TIP3   OH2 7049   1.596   2.935   3.784
 2348TIP3    H1 7050   1.605   2.896   3.871
 2348TIP3    H2 7051   1.547   2.870   3.734
 2349TIP3   OH2 7052   0.078   5.420   1.697
 2349TIP3    H1 7053   0.063   5.472   1.776
 2349TIP3    H2 7054   0.155   5.460   1.657
 2350TIP3   OH2 7055   5.795   3.339   3.237
 2350TIP3    H1 7056   5.819   3.429   3.258
 2350TIP3    H2 7057   5.802   3.333   3.142
 2351TIP3   OH2 7058   3.385   2.339   2.252
 2351TIP3    H1 7059   3.368   2.275   2.183
 2351TIP3    H2 7060   3.334   2.308   2.326
 2352TIP3   OH2 7061   4.374   0.291   2.688
 2352TIP3    H1 7062   4.411   0.262   2.604
 2352TIP3    H2 7063   4.427   0.367   2.712
 2353TIP3   OH2 7064   1.977   0.822   1.869
 2353TIP3    H1 7065   2.010   0.909   1.845
 2353TIP3    H2 7066   1.884   0.835   1.885
 2354TIP3   OH2 7067   4.672   5.707   0.459
 2354TIP3    H1 7068   4.743   5.666   0.509
 2354TIP3    H2 7069   4.638   5.775   0.517
 2355TIP3   OH2 7070   5.107   3.187   2.275
 2355TIP3    H1 7071   5.153   3.270   2.286
 2355TIP3    H2 7072   5.017   3.212   2.252
 2356TIP3   OH2 7073   3.607   4.295   3.370
 2356TIP3    H1 7074   3.654   4.354   3.311
 2356TIP3    H2 7075   3.516   4.324   3.367
 2357TIP3   OH2 7076   3.945   4.004   3.876
 2357TIP3    H1 7077   3.962   4.081   3.930
 2357TIP3    H2 7078   4.027   3.953   3.881
 2358TIP3   OH2 7079   4.267   5.680   1.557
 2358TIP3    H1 7080   4.232   5.764   1.528
 2358TIP3    H2 7081   4.360   5.695   1.571
 2359TIP3   OH2 7082   1.533   2.178   0.604
 2359TIP3    H1 7083   1.597   2.234   0.560
 2359TIP3    H2 7084   1.525   2.214   0.692
 2360TIP3   OH2 7085   0.419   4.820   4.391
 2360TIP3    H1 7086   0.473   4.893   4.422
 2360TIP3    H2 7087   0.481   4.749   4.376
 2361TIP3   OH2 7088   1.583   1.617   3.972
 2361TIP3    H1 7089   1.573   1.534   4.018
 2361TIP3    H2 7090   1.648   1.600   3.904
 2362TIP3   OH2 7091   5.897   3.858   3.292
 2362TIP3    H1 7092   5.958   3.860   3.219
 2362TIP3    H2 7093   5.863   3.948   3.298
 2363TIP3   OH2 7094   5.874   0.659   1.357
 2363TIP3    H1 7095   5.936   0.698   1.295
 2363TIP3    H2 7096   5.928   0.635   1.433
 2364TIP3   OH2 7097   5.536   4.891   3.467
 2364TIP3    H1 7098   5.457   4.940   3.444
 2364TIP3    H2 7099   5.520   4.803   3.434
 2365TIP3   OH2 7100   0.589   1.754   4.497
 2365TIP3    H1 7101   0.646   1.697   4.446
 2365TIP3    H2 7102   0.569   1.703   4.576
 2366TIP3   OH2 7103   3.426   5.614   3.542
 2366TIP3    H1 7104   3.353   5.588   3.486
 2366TIP3    H2 7105   3.391   5.685   3.596
 2367TIP3   OH2 7106   3.275   4.607   1.130
 2367TIP3    H1 7107   3.287   4.517   1.099
 2367TIP3    H2 7108   3.186   4.630   1.104
 2368TIP3   OH2 7109   0.181   1.215   2.652
 2368TIP3    H1 7110   0.231   1.281   2.699
 2368TIP3    H2 7111   0.232   1.135   2.660
 2369TIP3   OH2 7112   3.798   1.126   3.594
 2369TIP3    H1 7113   3.730   1.169   3.542
 2369TIP3    H2 7114   3.789   1.033   3.573
 2370TIP3   OH2 7115   2.364   4.646   0.437
 2370TIP3    H1 7116   2.459   4.634   0.437
 2370TIP3    H2 7117   2.350   4.729   0.484
 2371TIP3   OH2 7118   0.621   2.667   1.384
 2371TIP3    H1 7119   0.596   2.638   1.297
 2371TIP3    H2 7120   0.676   2.596   1.418
 2372TIP3   OH2 7121   5.801   1.305   3.468
 2372TIP3    H1 7122   5.745   1.382   3.462
 2372TIP3    H2 7123   5.757   1.248   3.532
 2373TIP3   OH2 7124   4.366   1.698   3.620
 2373TIP3    H1 7125   4.339   1.790   3.614
 2373TIP3    H2 7126   4.367   1.679   3.714
 2374TIP3   OH2 7127   1.827   4.455   0.330
 2374TIP3    H1 7128   1.882   4.442   0.408
 2374TIP3    H2 7129   1.860   4.391   0.267
 2375TIP3   OH2 7130   2.103   2.110   2.959
 2375TIP3    H1 7131   2.038   2.158   2.907
 2375TIP3    H2 7132   2.056   2.033   2.992
 2376TIP3   OH2 7133   1.764   0.899   1.521
 2376TIP3    H1 7134   1.804   0.812   1.524
 2376TIP3    H2 7135   1.672   0.884   1.544
 2377TIP3   OH2 7136   5.060   0.251   0.888
 2377TIP3    H1 7137   5.056   0.158   0.906
 2377TIP3    H2 7138   5.007   0.292   0.956
 2378TIP3   OH2 7139   3.722   2.357   5.119
 2378TIP3    H1 7140   3.809   2.398   5.118
 2378TIP3    H2 7141   3.680   2.392   5.198
 2379TIP3   OH2 7142   4.104   3.548   2.356
 2379TIP3    H1 7143   4.025   3.546   2.410
 2379TIP3    H2 7144   4.094   3.625   2.301
 2380TIP3   OH2 7145   4.024   2.205   4.947
 2380TIP3    H1 7146   3.982   2.137   4.895
 2380TIP3    H2 7147   4.038   2.164   5.032
 2381TIP3   OH2 7148   1.869   1.536   4.639
 2381TIP3    H1 7149   1.951   1.582   4.624
 2381TIP3    H2 7150   1.894   1.459   4.691
 2382TIP3   OH2 7151   3.001   0.861   0.158
 2382TIP3    H1 7152   3.015   0.838   0.067
 2382TIP3    H2 7153   3.021   0.781   0.207
 2383TIP3   OH2 7154   3.418   4.916   1.073
 2383TIP3    H1 7155   3.382   4.932   0.986
 2383TIP3    H2 7156   3.445   4.824   1.072
 2384TIP3   OH2 7157   0.187   1.724   4.432
 2384TIP3    H1 7158   0.134   1.760   4.504
 2384TIP3    H2 7159   0.247   1.795   4.410
 2385TIP3   OH2 7160   5.161   4.761   4.393
 2385TIP3    H1 7161   5.107   4.754   4.315
 2385TIP3    H2 7162   5.251   4.764   4.360
 2386TIP3   OH2 7163   3.869   0.110   4.793
 2386TIP3    H1 7164   3.890   0.155   4.875
 2386TIP3    H2 7165   3.847   0.181   4.733
 2387TIP3   OH2 7166   3.876   3.376   2.853
 2387TIP3    H1 7167   3.827   3.458   2.851
 2387TIP3    H2 7168   3.925   3.379   2.935
 2388TIP3   OH2 7169   5.890   5.668   0.866
 2388TIP3    H1 7170   5.978   5.635   0.847
 2388TIP3    H2 7171   5.883   5.667   0.961
 2389TIP3   OH2 7172   4.619   1.297   3.465
 2389TIP3    H1 7173   4.698   1.342   3.495
 2389TIP3    H2 7174   4.550   1.363   3.472
 2390TIP3   OH2 7175   1.961   1.878   0.235
 2390TIP3    H1 7176   2.039   1.929   0.214
 2390TIP3    H2 7177   1.994   1.791   0.257
 2391TIP3   OH2 7178   3.775   4.766   3.128
 2391TIP3    H1 7179   3.807   4.729   3.210
 2391TIP3    H2 7180   3.841   4.830   3.103
 2392TIP3   OH2 7181   5.920   5.077   4.633
 2392TIP3    H1 7182   5.911   5.095   4.727
 2392TIP3    H2 7183   5.918   5.163   4.592
 2393TIP3   OH2 7184   5.803   5.873   0.696
 2393TIP3    H1 7185   5.820   5.795   0.748
 2393TIP3    H2 7186   5.804   5.843   0.605
 2394TIP3   OH2 7187   6.277   2.371   2.958
 2394TIP3    H1 7188   6.346   2.324   2.911
 2394TIP3    H2 7189   6.209   2.306   2.971
 2395TIP3   OH2 7190   0.920   0.460   3.737
 2395TIP3    H1 7191   1.000   0.430   3.694
 2395TIP3    H2 7192   0.903   0.546   3.697
 2396TIP3   OH2 7193   1.710   4.109   5.119
 2396TIP3    H1 7194   1.678   4.039   5.175
 2396TIP3    H2 7195   1.686   4.081   5.030
 2397TIP3   OH2 7196   1.232   1.048   0.644
 2397TIP3    H1 7197   1.314   1.095   0.630
 2397TIP3    H2 7198   1.258   0.967   0.687
 2398TIP3   OH2 7199   4.621   2.133   4.013
 2398TIP3    H1 7200   4.655   2.220   3.991
 2398TIP3    H2 7201   4.534   2.130   3.974
 2399TIP3   OH2 7202   2.545   5.768   4.991
 2399TIP3    H1 7203   2.571   5.720   4.912
 2399TIP3    H2 7204   2.569   5.859   4.974
 2400TIP3   OH2 7205   6.339   2.953   3.329
 2400TIP3    H1 7206   6.318   2.891   3.399
 2400TIP3    H2 7207   6.400   3.015   3.369
 2401TIP3   OH2 7208   5.243   0.753   0.817
 2401TIP3    H1 7209   5.327   0.709   0.830
 2401TIP3    H2 7210   5.208   0.764   0.906
 2402TIP3   OH2 7211   0.014   0.508   3.300
 2402TIP3    H1 7212   0.001   0.580   3.238
 2402TIP3    H2 7213   0.072   0.447   3.254
 2403TIP3   OH2 7214   2.407   5.118   4.082
 2403TIP3    H1 7215   2.443   5.206   4.091
 2403TIP3    H2 7216   2.423   5.094   3.991
 2404TIP3   OH2 7217   1.167   1.268   1.258
 2404TIP3    H1 7218   1.097   1.275   1.323
 2404TIP3    H2 7219   1.215   1.351   1.266
 2405TIP3   OH2 7220   4.175   2.251   0.094
 2405TIP3    H1 7221   4.180   2.232   0.188
 2405TIP3    H2 7222   4.210   2.172   0.052
 2406TIP3   OH2 7223   0.215   1.300   0.234
 2406TIP3    H1 7224   0.154   1.373   0.245
 2406TIP3    H2 7225   0.159   1.225   0.212
 2407TIP3   OH2 7226   2.349   0.223   0.489
 2407TIP3    H1 7227   2.413   0.264   0.431
 2407TIP3    H2 7228   2.402   0.173   0.551
 2408TIP3   OH2 7229   5.762   0.788   1.903
 2408TIP3    H1 7230   5.744   0.747   1.819
 2408TIP3    H2 7231   5.839   0.740   1.937
 2409TIP3   OH2 7232   1.740   0.077   3.625
 2409TIP3    H1 7233   1.772  -0.002   3.668
 2409TIP3    H2 7234   1.746   0.145   3.693
 2410TIP3   OH2 7235   5.605   0.690   0.885
 2410TIP3    H1 7236   5.598   0.772   0.836
 2410TIP3    H2 7237   5.656   0.712   0.962
 2411TIP3   OH2 7238   5.163   2.747   2.577
 2411TIP3    H1 7239   5.176   2.701   2.659
 2411TIP3    H2 7240   5.251   2.777   2.552
 2412TIP3   OH2 7241   0.111   4.950   1.827
 2412TIP3    H1 7242   0.166   4.915   1.757
 2412TIP3    H2 7243   0.066   5.025   1.787
 2413TIP3   OH2 7244   1.322   4.580   3.698
 2413TIP3    H1 7245   1.290   4.670   3.706
 2413TIP3    H2 7246   1.257   4.536   3.644
 2414TIP3   OH2 7247   4.413   4.141   1.618
 2414TIP3    H1 7248   4.336   4.141   1.675
 2414TIP3    H2 7249   4.443   4.050   1.618
 2415TIP3   OH2 7250   2.870   3.097   1.809
 2415TIP3    H1 7251   2.911   3.047   1.879
 2415TIP3    H2 7252   2.781   3.062   1.804
 2416TIP3   OH2 7253   0.494   1.436   0.646
 2416TIP3    H1 7254   0.564   1.396   0.698
 2416TIP3    H2 7255   0.485   1.524   0.681
 2417TIP3   OH2 7256   2.047   2.789   3.556
 2417TIP3    H1 7257   2.013   2.701   3.574
 2417TIP3    H2 7258   2.110   2.776   3.485
 2418TIP3   OH2 7259   5.987   4.281   1.540
 2418TIP3    H1 7260   5.901   4.312   1.509
 2418TIP3    H2 7261   6.024   4.237   1.464
 2419TIP3   OH2 7262   6.147   2.167   1.128
 2419TIP3    H1 7263   6.068   2.204   1.168
 2419TIP3    H2 7264   6.118   2.133   1.043
 2420TIP3   OH2 7265   1.232   5.768   4.384
 2420TIP3    H1 7266   1.247   5.847   4.436
 2420TIP3    H2 7267   1.285   5.701   4.426
 2421TIP3   OH2 7268   5.873   3.123   4.546
 2421TIP3    H1 7269   5.929   3.143   4.621
 2421TIP3    H2 7270   5.864   3.027   4.548
 2422TIP3   OH2 7271   1.934   4.418   2.969
 2422TIP3    H1 7272   1.992   4.362   2.918
 2422TIP3    H2 7273   1.856   4.364   2.984
 2423TIP3   OH2 7274   0.526   4.686   3.117
 2423TIP3    H1 7275   0.591   4.690   3.046
 2423TIP3    H2 7276   0.443   4.672   3.073
 2424TIP3   OH2 7277   0.874   0.720   4.096
 2424TIP3    H1 7278   0.879   0.629   4.064
 2424TIP3    H2 7279   0.781   0.742   4.090
 2425TIP3   OH2 7280   3.421   1.122   3.084
 2425TIP3    H1 7281   3.498   1.162   3.125
 2425TIP3    H2 7282   3.410   1.039   3.129
 2426TIP3   OH2 7283   1.342   4.198   2.725
 2426TIP3    H1 7284   1.330   4.291   2.708
 2426TIP3    H2 7285   1.378   4.163   2.643
 2427TIP3   OH2 7286   5.215   5.008   1.951
 2427TIP3    H1 7287   5.230   4.976   2.040
 2427TIP3    H2 7288   5.198   5.102   1.962
 2428TIP3   OH2 7289   4.985   4.030   1.876
 2428TIP3    H1 7290   5.039   3.959   1.839
 2428TIP3    H2 7291   4.899   4.015   1.838
 2429TIP3   OH2 7292   4.019   3.319   3.870
 2429TIP3    H1 7293   4.052   3.370   3.944
 2429TIP3    H2 7294   3.994   3.385   3.805
 2430TIP3   OH2 7295   5.445   2.945   4.684
 2430TIP3    H1 7296   5.423   2.993   4.764
 2430TIP3    H2 7297   5.489   2.866   4.715
 2431TIP3   OH2 7298   1.246   2.760   3.852
 2431TIP3    H1 7299   1.209   2.780   3.766
 2431TIP3    H2 7300   1.178   2.788   3.914
 2432TIP3   OH2 7301   1.804   2.395   4.360
 2432TIP3    H1 7302   1.880   2.380   4.303
 2432TIP3    H2 7303   1.842   2.405   4.448
 2433TIP3   OH2 7304   3.592   0.205   2.012
 2433TIP3    H1 7305   3.512   0.234   1.967
 2433TIP3    H2 7306   3.578   0.228   2.104
 2434TIP3   OH2 7307   2.390   1.393   4.705
 2434TIP3    H1 7308   2.443   1.413   4.628
 2434TIP3    H2 7309   2.370   1.300   4.698
 2435TIP3   OH2 7310   2.635   1.147   2.951
 2435TIP3    H1 7311   2.677   1.141   2.866
 2435TIP3    H2 7312   2.588   1.230   2.949
 2436TIP3   OH2 7313   5.987   2.013   4.507
 2436TIP3    H1 7314   6.024   1.933   4.544
 2436TIP3    H2 7315   6.062   2.058   4.467
 2437TIP3   OH2 7316   3.754   0.071   2.936
 2437TIP3    H1 7317   3.829   0.012   2.937
 2437TIP3    H2 7318   3.691   0.031   2.996
 2438TIP3   OH2 7319   5.363   2.196   0.233
 2438TIP3    H1 7320   5.277   2.207   0.192
 2438TIP3    H2 7321   5.423   2.185   0.159
 2439TIP3   OH2 7322   5.110   3.833   5.019
 2439TIP3    H1 7323   5.044   3.770   5.047
 2439TIP3    H2 7324   5.173   3.780   4.969
 2440TIP3   OH2 7325   2.302   4.898   4.194
 2440TIP3    H1 7326   2.350   4.969   4.151
 2440TIP3    H2 7327   2.218   4.895   4.149
 2441TIP3   OH2 7328   0.652   4.879   2.517
 2441TIP3    H1 7329   0.585   4.812   2.505
 2441TIP3    H2 7330   0.620   4.934   2.588
 2442TIP3   OH2 7331   2.027   3.259   2.311
 2442TIP3    H1 7332   2.019   3.173   2.269
 2442TIP3    H2 7333   1.939   3.297   2.305
 2443TIP3   OH2 7334   5.868   3.246   1.701
 2443TIP3    H1 7335   5.865   3.158   1.662
 2443TIP3    H2 7336   5.777   3.276   1.702
 2444TIP3   OH2 7337   3.343   2.884   3.405
 2444TIP3    H1 7338   3.302   2.843   3.480
 2444TIP3    H2 7339   3.399   2.953   3.442
 2445TIP3   OH2 7340   5.980   1.270   0.977
 2445TIP3    H1 7341   5.967   1.365   0.973
 2445TIP3    H2 7342   6.070   1.257   0.947
 2446TIP3   OH2 7343   2.037   0.369   3.768
 2446TIP3    H1 7344   1.952   0.324   3.776
 2446TIP3    H2 7345   2.048   0.413   3.852
 2447TIP3   OH2 7346   1.863   2.601   0.055
 2447TIP3    H1 7347   1.892   2.690   0.073
 2447TIP3    H2 7348   1.842   2.601  -0.038
 2448TIP3   OH2 7349   1.778   4.043   1.654
 2448TIP3    H1 7350   1.767   3.949   1.665
 2448TIP3    H2 7351   1.872   4.058   1.662
 2449TIP3   OH2 7352   0.579   3.831   0.887
 2449TIP3    H1 7353   0.503   3.887   0.867
 2449TIP3    H2 7354   0.588   3.836   0.982
 2450TIP3   OH2 7355   5.962   0.167   4.460
 2450TIP3    H1 7356   6.013   0.087   4.451
 2450TIP3    H2 7357   5.987   0.201   4.546
 2451TIP3   OH2 7358   0.482   5.446   4.590
 2451TIP3    H1 7359   0.490   5.534   4.554
 2451TIP3    H2 7360   0.406   5.450   4.648
 2452TIP3   OH2 7361   3.179   0.056   4.020
 2452TIP3    H1 7362   3.183   0.062   4.115
 2452TIP3    H2 7363   3.258   0.009   3.996
 2453TIP3   OH2 7364   2.309   5.566   4.565
 2453TIP3    H1 7365   2.219   5.566   4.598
 2453TIP3    H2 7366   2.304   5.521   4.481
 2454TIP3   OH2 7367   0.022   4.126   3.173
 2454TIP3    H1 7368   0.087   4.194   3.157
 2454TIP3    H2 7369   0.056   4.078   3.249
 2455TIP3   OH2 7370   1.111   3.246   3.225
 2455TIP3    H1 7371   1.167   3.170   3.240
 2455TIP3    H2 7372   1.090   3.242   3.131
 2456TIP3   OH2 7373   2.965   0.232   1.489
 2456TIP3    H1 7374   2.909   0.298   1.448
 2456TIP3    H2 7375   3.027   0.206   1.421
 2457TIP3   OH2 7376   2.878   0.175   2.695
 2457TIP3    H1 7377   2.804   0.183   2.634
 2457TIP3    H2 7378   2.936   0.110   2.654
 2458TIP3   OH2 7379   1.733   4.647   4.242
 2458TIP3    H1 7380   1.761   4.555   4.235
 2458TIP3    H2 7381   1.735   4.666   4.336
 2459TIP3   OH2 7382   4.301   5.400   4.811
 2459TIP3    H1 7383   4.352   5.439   4.740
 2459TIP3    H2 7384   4.301   5.306   4.791
 2460TIP3   OH2 7385   5.373   2.800   0.699
 2460TIP3    H1 7386   5.356   2.893   0.683
 2460TIP3    H2 7387   5.416   2.798   0.785
 2461TIP3   OH2 7388   2.376   5.726   4.050
 2461TIP3    H1 7389   2.382   5.654   4.112
 2461TIP3    H2 7390   2.432   5.795   4.087
 2462TIP3   OH2 7391   1.487   3.693   3.165
 2462TIP3    H1 7392   1.392   3.702   3.169
 2462TIP3    H2 7393   1.506   3.616   3.219
 2463TIP3   OH2 7394   2.097   0.518   3.008
 2463TIP3    H1 7395   2.150   0.492   3.083
 2463TIP3    H2 7396   2.156   0.512   2.933
 2464TIP3   OH2 7397   2.081   1.470   1.371
 2464TIP3    H1 7398   2.004   1.526   1.365
 2464TIP3    H2 7399   2.049   1.390   1.413
 2465TIP3   OH2 7400   3.980   5.081   0.307
 2465TIP3    H1 7401   4.024   5.055   0.225
 2465TIP3    H2 7402   3.971   5.176   0.300
 2466TIP3   OH2 7403   5.314   0.044   4.647
 2466TIP3    H1 7404   5.251   0.096   4.598
 2466TIP3    H2 7405   5.359   0.107   4.704
 2467TIP3   OH2 7406   4.514   0.498   0.826
 2467TIP3    H1 7407   4.543   0.577   0.781
 2467TIP3    H2 7408   4.457   0.530   0.896
 2468TIP3   OH2 7409   0.705   4.010   3.376
 2468TIP3    H1 7410   0.611   4.001   3.395
 2468TIP3    H2 7411   0.739   3.921   3.383
 2469TIP3   OH2 7412   3.039   2.703   1.705
 2469TIP3    H1 7413   2.969   2.738   1.761
 2469TIP3    H2 7414   3.035   2.608   1.718
 2470TIP3   OH2 7415   2.612   3.413   0.398
 2470TIP3    H1 7416   2.693   3.376   0.435
 2470TIP3    H2 7417   2.545   3.347   0.415
 2471TIP3   OH2 7418   4.128   5.068   0.041
 2471TIP3    H1 7419   4.138   5.006  -0.032
 2471TIP3    H2 7420   4.179   5.030   0.112
 2472TIP3   OH2 7421   3.966   2.073   3.843
 2472TIP3    H1 7422   3.898   2.089   3.909
 2472TIP3    H2 7423   3.996   1.984   3.860
 2473TIP3   OH2 7424   3.185   3.177   0.784
 2473TIP3    H1 7425   3.280   3.169   0.791
 2473TIP3    H2 7426   3.172   3.260   0.738
 2474TIP3   OH2 7427   1.278   0.003   0.212
 2474TIP3    H1 7428   1.370   0.025   0.197
 2474TIP3    H2 7429   1.242   0.080   0.257
 2475TIP3   OH2 7430   5.265   3.942   2.283
 2475TIP3    H1 7431   5.200   3.895   2.334
 2475TIP3    H2 7432   5.221   3.962   2.200
 2476TIP3   OH2 7433   2.377   5.903   2.599
 2476TIP3    H1 7434   2.297   5.856   2.574
 2476TIP3    H2 7435   2.360   5.994   2.573
 2477TIP3   OH2 7436   2.639   3.022   3.058
 2477TIP3    H1 7437   2.682   3.003   2.975
 2477TIP3    H2 7438   2.582   3.097   3.039
 2478TIP3   OH2 7439   1.648   1.425   2.298
 2478TIP3    H1 7440   1.558   1.456   2.289
 2478TIP3    H2 7441   1.659   1.364   2.225
 2479TIP3   OH2 7442   4.070   5.435   3.883
 2479TIP3    H1 7443   4.126   5.408   3.955
 2479TIP3    H2 7444   3.988   5.460   3.924
 2480TIP3   OH2 7445   5.891   2.802   2.314
 2480TIP3    H1 7446   5.860   2.781   2.226
 2480TIP3    H2 7447   5.981   2.771   2.316
 2481TIP3   OH2 7448   0.330   0.657   1.034
 2481TIP3    H1 7449   0.343   0.752   1.042
 2481TIP3    H2 7450   0.399   0.619   1.089
 2482TIP3   OH2 7451   4.208   2.327   1.848
 2482TIP3    H1 7452   4.182   2.413   1.813
 2482TIP3    H2 7453   4.235   2.344   1.938
 2483TIP3   OH2 7454   0.188   4.080   4.036
 2483TIP3    H1 7455   0.149   4.144   4.096
 2483TIP3    H2 7456   0.137   4.000   4.050
 2484TIP3   OH2 7457   6.138   3.950   2.595
 2484TIP3    H1 7458   6.091   3.872   2.626
 2484TIP3    H2 7459   6.229   3.935   2.622
 2485TIP3   OH2 7460   1.177   1.059   3.652
 2485TIP3    H1 7461   1.194   1.134   3.707
 2485TIP3    H2 7462   1.082   1.050   3.652
 2486TIP3   OH2 7463   1.022   1.893   1.916
 2486TIP3    H1 7464   0.927   1.899   1.930
 2486TIP3    H2 7465   1.050   1.822   1.973
 2487TIP3   OH2 7466   3.121   4.458   3.819
 2487TIP3    H1 7467   3.126   4.471   3.725
 2487TIP3    H2 7468   3.184   4.388   3.837
 2488TIP3   OH2 7469   4.664   5.166   1.486
 2488TIP3    H1 7470   4.684   5.162   1.579
 2488TIP3    H2 7471   4.570   5.181   1.482
 2489TIP3   OH2 7472   5.350   3.825   3.956
 2489TIP3    H1 7473   5.348   3.745   4.008
 2489TIP3    H2 7474   5.393   3.889   4.013
 2490TIP3   OH2 7475   0.711   2.325   4.052
 2490TIP3    H1 7476   0.753   2.344   4.136
 2490TIP3    H2 7477   0.624   2.362   4.060
 2491TIP3   OH2 7478   1.434   4.304   3.695
 2491TIP3    H1 7479   1.378   4.300   3.772
 2491TIP3    H2 7480   1.425   4.394   3.663
 2492TIP3   OH2 7481   4.850   1.757   1.948
 2492TIP3    H1 7482   4.863   1.852   1.943
 2492TIP3    H2 7483   4.917   1.721   1.889
 2493TIP3   OH2 7484   3.017   1.326   4.028
 2493TIP3    H1 7485   2.985   1.330   3.938
 2493TIP3    H2 7486   3.112   1.334   4.020
 2494TIP3   OH2 7487   1.467   3.771   1.981
 2494TIP3    H1 7488   1.371   3.773   1.984
 2494TIP3    H2 7489   1.494   3.786   2.072
 2495TIP3   OH2 7490   1.272   2.979   4.300
 2495TIP3    H1 7491   1.222   3.058   4.321
 2495TIP3    H2 7492   1.280   2.933   4.383
 2496TIP3   OH2 7493   2.356   4.437   3.924
 2496TIP3    H1 7494   2.340   4.348   3.891
 2496TIP3    H2 7495   2.348   4.493   3.847
 2497TIP3   OH2 7496   2.952   3.698   4.759
 2497TIP3    H1 7497   2.928   3.609   4.734
 2497TIP3    H2 7498   2.991   3.735   4.680
 2498TIP3   OH2 7499   2.034   1.045   3.512
 2498TIP3    H1 7500   1.966   1.004   3.459
 2498TIP3    H2 7501   2.108   0.984   3.508
 2499TIP3   OH2 7502   2.247   1.669   4.719
 2499TIP3    H1 7503   2.199   1.642   4.640
 2499TIP3    H2 7504   2.337   1.642   4.703
 2500TIP3   OH2 7505   0.840   1.741   0.261
 2500TIP3    H1 7506   0.772   1.720   0.326
 2500TIP3    H2 7507   0.900   1.666   0.265
 2501TIP3   OH2 7508   0.209   4.033   1.298
 2501TIP3    H1 7509   0.244   3.959   1.349
 2501TIP3    H2 7510   0.128   4.057   1.342
 2502TIP3   OH2 7511   1.997   2.866   5.134
 2502TIP3    H1 7512   2.039   2.783   5.155
 2502TIP3    H2 7513   2.008   2.876   5.040
 2503TIP3   OH2 7514   2.435   4.725   1.843
 2503TIP3    H1 7515   2.437   4.813   1.881
 2503TIP3    H2 7516   2.477   4.735   1.758
 2504TIP3   OH2 7517   6.245   2.711   1.256
 2504TIP3    H1 7518   6.321   2.653   1.258
 2504TIP3    H2 7519   6.170   2.652   1.262
 2505TIP3   OH2 7520   4.293   4.936   0.808
 2505TIP3    H1 7521   4.223   4.950   0.872
 2505TIP3    H2 7522   4.338   4.857   0.838
 2506TIP3   OH2 7523   1.706   5.281   3.170
 2506TIP3    H1 7524   1.720   5.210   3.234
 2506TIP3    H2 7525   1.708   5.361   3.223
 2507TIP3   OH2 7526   1.972   1.137   2.819
 2507TIP3    H1 7527   2.037   1.113   2.885
 2507TIP3    H2 7528   2.006   1.219   2.782
 2508TIP3   OH2 7529   5.470   4.385   2.866
 2508TIP3    H1 7530   5.421   4.308   2.837
 2508TIP3    H2 7531   5.506   4.422   2.785
 2509TIP3   OH2 7532   0.659   5.079   3.423
 2509TIP3    H1 7533   0.628   5.013   3.360
 2509TIP3    H2 7534   0.580   5.123   3.453
 2510TIP3   OH2 7535   4.084   4.377   1.030
 2510TIP3    H1 7536   4.128   4.311   1.083
 2510TIP3    H2 7537   4.088   4.343   0.941
 2511TIP3   OH2 7538   3.922   5.881   3.399
 2511TIP3    H1 7539   3.927   5.786   3.395
 2511TIP3    H2 7540   3.860   5.898   3.471
 2512TIP3   OH2 7541   2.854   4.446   3.984
 2512TIP3    H1 7542   2.891   4.359   3.998
 2512TIP3    H2 7543   2.774   4.448   4.037
 2513TIP3   OH2 7544   1.146   2.199   1.353
 2513TIP3    H1 7545   1.218   2.225   1.295
 2513TIP3    H2 7546   1.099   2.131   1.305
 2514TIP3   OH2 7547   2.397   1.228   2.405
 2514TIP3    H1 7548   2.429   1.145   2.370
 2514TIP3    H2 7549   2.468   1.290   2.390
 2515TIP3   OH2 7550   0.764   2.146   4.887
 2515TIP3    H1 7551   0.840   2.100   4.923
 2515TIP3    H2 7552   0.772   2.236   4.919
 2516TIP3   OH2 7553   5.574   5.483   3.036
 2516TIP3    H1 7554   5.540   5.542   2.968
 2516TIP3    H2 7555   5.658   5.453   3.000
 2517TIP3   OH2 7556   5.641   2.595   3.034
 2517TIP3    H1 7557   5.570   2.650   3.067
 2517TIP3    H2 7558   5.628   2.511   3.076
 2518TIP3   OH2 7559   2.654   1.453   0.830
 2518TIP3    H1 7560   2.726   1.473   0.890
 2518TIP3    H2 7561   2.663   1.359   0.812
 2519TIP3   OH2 7562   3.193   1.421   3.419
 2519TIP3    H1 7563   3.100   1.445   3.413
 2519TIP3    H2 7564   3.213   1.427   3.512
 2520TIP3   OH2 7565   2.340   1.573   2.357
 2520TIP3    H1 7566   2.355   1.640   2.291
 2520TIP3    H2 7567   2.427   1.543   2.382
 2521TIP3   OH2 7568   3.779   2.529   4.265
 2521TIP3    H1 7569   3.826   2.478   4.198
 2521TIP3    H2 7570   3.794   2.480   4.346
 2522TIP3   OH2 7571   2.688   1.741   0.791
 2522TIP3    H1 7572   2.747   1.778   0.725
 2522TIP3    H2 7573   2.723   1.654   0.809
 2523TIP3   OH2 7574   3.965   3.727   0.654
 2523TIP3    H1 7575   3.900   3.797   0.664
 2523TIP3    H2 7576   3.951   3.670   0.729
 2524TIP3   OH2 7577   5.315   2.092   4.469
 2524TIP3    H1 7578   5.272   2.011   4.498
 2524TIP3    H2 7579   5.360   2.067   4.388
 2525TIP3   OH2 7580   1.663   5.283   3.656
 2525TIP3    H1 7581   1.657   5.227   3.733
 2525TIP3    H2 7582   1.600   5.246   3.594
 2526TIP3   OH2 7583   4.898   5.480   3.223
 2526TIP3    H1 7584   4.898   5.517   3.134
 2526TIP3    H2 7585   4.839   5.405   3.218
 2527TIP3   OH2 7586   0.336   4.209   0.859
 2527TIP3    H1 7587   0.401   4.243   0.920
 2527TIP3    H2 7588   0.266   4.274   0.859
 2528TIP3   OH2 7589   4.389   0.774   3.461
 2528TIP3    H1 7590   4.367   0.691   3.418
 2528TIP3    H2 7591   4.327   0.837   3.423
 2529TIP3   OH2 7592   3.677   2.478   3.893
 2529TIP3    H1 7593   3.620   2.438   3.959
 2529TIP3    H2 7594   3.635   2.562   3.873
 2530TIP3   OH2 7595   2.215   1.730   1.815
 2530TIP3    H1 7596   2.303   1.700   1.839
 2530TIP3    H2 7597   2.195   1.683   1.734
 2531TIP3   OH2 7598   5.692   0.709   4.083
 2531TIP3    H1 7599   5.669   0.802   4.078
 2531TIP3    H2 7600   5.620   0.669   4.132
 2532TIP3   OH2 7601   1.365   0.781   2.417
 2532TIP3    H1 7602   1.332   0.867   2.391
 2532TIP3    H2 7603   1.416   0.751   2.342
 2533TIP3   OH2 7604   0.529   5.171   0.312
 2533TIP3    H1 7605   0.436   5.147   0.310
 2533TIP3    H2 7606   0.541   5.210   0.399
 2534TIP3   OH2 7607   2.206   1.642   0.142
 2534TIP3    H1 7608   2.262   1.719   0.135
 2534TIP3    H2 7609   2.177   1.642   0.233
 2535TIP3   OH2 7610   5.965   2.097   4.941
 2535TIP3    H1 7611   6.017   2.086   4.861
 2535TIP3    H2 7612   6.000   2.032   5.001
 2536TIP3   OH2 7613   0.360   0.640   1.845
 2536TIP3    H1 7614   0.417   0.635   1.767
 2536TIP3    H2 7615   0.404   0.703   1.902
 2537TIP3   OH2 7616   6.212   2.538   0.929
 2537TIP3    H1 7617   6.128   2.517   0.888
 2537TIP3    H2 7618   6.204   2.506   1.019
 2538TIP3   OH2 7619   5.000   4.930   0.665
 2538TIP3    H1 7620   4.917   4.970   0.638
 2538TIP3    H2 7621   4.998   4.935   0.761
 2539TIP3   OH2 7622   2.597   5.176   0.804
 2539TIP3    H1 7623   2.579   5.083   0.819
 2539TIP3    H2 7624   2.671   5.195   0.860
 2540TIP3   OH2 7625   6.169   4.571   0.288
 2540TIP3    H1 7626   6.142   4.482   0.310
 2540TIP3    H2 7627   6.252   4.582   0.334
 2541TIP3   OH2 7628   0.368   5.325   1.842
 2541TIP3    H1 7629   0.284   5.323   1.888
 2541TIP3    H2 7630   0.345   5.335   1.750
 2542TIP3   OH2 7631   6.020   3.699   4.273
 2542TIP3    H1 7632   6.030   3.716   4.179
 2542TIP3    H2 7633   6.108   3.713   4.309
 2543TIP3   OH2 7634   5.783   1.086   1.415
 2543TIP3    H1 7635   5.817   1.094   1.326
 2543TIP3    H2 7636   5.743   1.170   1.434
 2544TIP3   OH2 7637   6.146   5.871   1.090
 2544TIP3    H1 7638   6.199   5.796   1.064
 2544TIP3    H2 7639   6.083   5.835   1.153
 2545TIP3   OH2 7640   3.535   1.264   5.068
 2545TIP3    H1 7641   3.619   1.294   5.035
 2545TIP3    H2 7642   3.514   1.187   5.015
 2546TIP3   OH2 7643   4.466   3.770   4.638
 2546TIP3    H1 7644   4.446   3.784   4.730
 2546TIP3    H2 7645   4.562   3.769   4.633
 2547TIP3   OH2 7646   2.017   3.230   1.486
 2547TIP3    H1 7647   2.017   3.214   1.392
 2547TIP3    H2 7648   2.094   3.286   1.501
 2548TIP3   OH2 7649   1.973   0.769   3.379
 2548TIP3    H1 7650   1.941   0.786   3.467
 2548TIP3    H2 7651   2.051   0.715   3.391
 2549TIP3   OH2 7652   6.138   3.827   3.492
 2549TIP3    H1 7653   6.078   3.862   3.426
 2549TIP3    H2 7654   6.166   3.743   3.457
 2550TIP3   OH2 7655   1.559   0.579   1.972
 2550TIP3    H1 7656   1.638   0.527   1.986
 2550TIP3    H2 7657   1.584   0.641   1.903
 2551TIP3   OH2 7658   1.549   2.077   4.639
 2551TIP3    H1 7659   1.614   2.051   4.704
 2551TIP3    H2 7660   1.591   2.059   4.555
 2552TIP3   OH2 7661   3.819   0.116   3.249
 2552TIP3    H1 7662   3.871   0.176   3.197
 2552TIP3    H2 7663   3.751   0.172   3.288
 2553TIP3   OH2 7664   4.153   4.762   3.952
 2553TIP3    H1 7665   4.131   4.774   3.860
 2553TIP3    H2 7666   4.231   4.706   3.951
 2554TIP3   OH2 7667   5.700  -0.010   3.871
 2554TIP3    H1 7668   5.786  -0.022   3.830
 2554TIP3    H2 7669   5.669   0.074   3.836
 2555TIP3   OH2 7670   3.178   4.686   3.427
 2555TIP3    H1 7671   3.199   4.754   3.491
 2555TIP3    H2 7672   3.122   4.730   3.362
 2556TIP3   OH2 7673   4.283   0.942   2.326
 2556TIP3    H1 7674   4.376   0.920   2.319
 2556TIP3    H2 7675   4.252   0.944   2.235
 2557TIP3   OH2 7676   1.468   1.159   0.612
 2557TIP3    H1 7677   1.513   1.243   0.608
 2557TIP3    H2 7678   1.529   1.096   0.574
 2558TIP3   OH2 7679   2.808   3.567   3.452
 2558TIP3    H1 7680   2.872   3.600   3.515
 2558TIP3    H2 7681   2.746   3.518   3.505
 2559TIP3   OH2 7682   2.573   3.165   0.787
 2559TIP3    H1 7683   2.546   3.090   0.839
 2559TIP3    H2 7684   2.494   3.191   0.740
 2560TIP3   OH2 7685   1.819   0.336   1.812
 2560TIP3    H1 7686   1.816   0.384   1.895
 2560TIP3    H2 7687   1.727   0.320   1.790
 2561TIP3   OH2 7688   4.001   2.594   3.547
 2561TIP3    H1 7689   4.055   2.658   3.594
 2561TIP3    H2 7690   3.911   2.624   3.561
 2562TIP3   OH2 7691   4.691   0.446   5.079
 2562TIP3    H1 7692   4.775   0.409   5.107
 2562TIP3    H2 7693   4.662   0.389   5.008
 2563TIP3   OH2 7694   2.293   1.638   1.312
 2563TIP3    H1 7695   2.228   1.568   1.320
 2563TIP3    H2 7696   2.279   1.674   1.225
 2564TIP3   OH2 7697   4.593   2.515   3.235
 2564TIP3    H1 7698   4.604   2.457   3.311
 2564TIP3    H2 7699   4.673   2.567   3.234
 2565TIP3   OH2 7700   0.047   1.079   3.416
 2565TIP3    H1 7701   0.035   0.985   3.402
 2565TIP3    H2 7702   0.109   1.105   3.349
 2566TIP3   OH2 7703   0.528   4.607   2.486
 2566TIP3    H1 7704   0.439   4.641   2.482
 2566TIP3    H2 7705   0.564   4.623   2.399
 2567TIP3   OH2 7706   2.739   5.680   5.195
 2567TIP3    H1 7707   2.686   5.714   5.123
 2567TIP3    H2 7708   2.823   5.724   5.186
 2568TIP3   OH2 7709   2.847   5.206   2.539
 2568TIP3    H1 7710   2.847   5.198   2.444
 2568TIP3    H2 7711   2.860   5.117   2.571
 2569TIP3   OH2 7712   0.776   0.879   2.931
 2569TIP3    H1 7713   0.855   0.831   2.957
 2569TIP3    H2 7714   0.714   0.862   3.001
 2570TIP3   OH2 7715   1.181   0.649   3.525
 2570TIP3    H1 7716   1.234   0.600   3.588
 2570TIP3    H2 7717   1.136   0.715   3.579
 2571TIP3   OH2 7718   5.685   3.486   0.930
 2571TIP3    H1 7719   5.682   3.486   1.025
 2571TIP3    H2 7720   5.765   3.535   0.908
 2572TIP3   OH2 7721   2.434   2.987   0.922
 2572TIP3    H1 7722   2.494   2.960   0.992
 2572TIP3    H2 7723   2.352   3.009   0.967
 2573TIP3   OH2 7724   0.638   4.097   4.985
 2573TIP3    H1 7725   0.544   4.085   4.978
 2573TIP3    H2 7726   0.655   4.182   4.943
 2574TIP3   OH2 7727   6.258   0.783   0.271
 2574TIP3    H1 7728   6.251   0.716   0.203
 2574TIP3    H2 7729   6.351   0.803   0.275
 2575TIP3   OH2 7730   3.861   5.501   2.625
 2575TIP3    H1 7731   3.845   5.576   2.682
 2575TIP3    H2 7732   3.825   5.426   2.673
 2576TIP3   OH2 7733   3.350   0.945   0.802
 2576TIP3    H1 7734   3.277   1.003   0.782
 2576TIP3    H2 7735   3.362   0.953   0.897
 2577TIP3   OH2 7736   3.743   1.417   4.248
 2577TIP3    H1 7737   3.664   1.458   4.212
 2577TIP3    H2 7738   3.785   1.486   4.300
 2578TIP3   OH2 7739   3.360   0.049   3.515
 2578TIP3    H1 7740   3.439   0.003   3.544
 2578TIP3    H2 7741   3.359   0.130   3.567
 2579TIP3   OH2 7742   3.527   0.357   1.262
 2579TIP3    H1 7743   3.562   0.446   1.264
 2579TIP3    H2 7744   3.514   0.336   1.355
 2580TIP3   OH2 7745   3.482   2.271   0.217
 2580TIP3    H1 7746   3.400   2.292   0.262
 2580TIP3    H2 7747   3.479   2.176   0.204
 2581TIP3   OH2 7748   3.024   0.596   1.259
 2581TIP3    H1 7749   2.984   0.557   1.181
 2581TIP3    H2 7750   3.085   0.529   1.290
 2582TIP3   OH2 7751   5.962   2.521   2.064
 2582TIP3    H1 7752   6.033   2.584   2.046
 2582TIP3    H2 7753   5.989   2.441   2.019
 2583TIP3   OH2 7754   5.021   2.241   4.506
 2583TIP3    H1 7755   5.064   2.176   4.451
 2583TIP3    H2 7756   5.021   2.321   4.454
 2584TIP3   OH2 7757   4.262   1.010   3.350
 2584TIP3    H1 7758   4.192   1.069   3.321
 2584TIP3    H2 7759   4.257   1.013   3.445
 2585TIP3   OH2 7760   5.587   2.345   3.126
 2585TIP3    H1 7761   5.494   2.359   3.108
 2585TIP3    H2 7762   5.620   2.301   3.048
 2586TIP3   OH2 7763   3.695   0.697   2.361
 2586TIP3    H1 7764   3.601   0.678   2.369
 2586TIP3    H2 7765   3.727   0.702   2.451
 2587TIP3   OH2 7766   0.444   1.018   2.957
 2587TIP3    H1 7767   0.522   0.991   3.006
 2587TIP3    H2 7768   0.455   1.112   2.943
 2588TIP3   OH2 7769   2.167   3.360   4.675
 2588TIP3    H1 7770   2.140   3.272   4.701
 2588TIP3    H2 7771   2.177   3.407   4.758
 2589TIP3   OH2 7772   5.192   0.686   5.028
 2589TIP3    H1 7773   5.224   0.772   5.002
 2589TIP3    H2 7774   5.097   0.697   5.034
 2590TIP3   OH2 7775   2.108   5.262   3.809
 2590TIP3    H1 7776   2.069   5.262   3.722
 2590TIP3    H2 7777   2.132   5.171   3.825
 2591TIP3   OH2 7778   6.317   3.475   2.026
 2591TIP3    H1 7779   6.253   3.404   2.024
 2591TIP3    H2 7780   6.374   3.458   1.951
 2592TIP3   OH2 7781   3.532   5.550   2.678
 2592TIP3    H1 7782   3.582   5.493   2.736
 2592TIP3    H2 7783   3.528   5.634   2.724
 2593TIP3   OH2 7784   0.378   0.757   0.099
 2593TIP3    H1 7785   0.469   0.758   0.069
 2593TIP3    H2 7786   0.335   0.691   0.046
 2594TIP3   OH2 7787   3.432   1.359   4.691
 2594TIP3    H1 7788   3.510   1.344   4.745
 2594TIP3    H2 7789   3.423   1.454   4.688
 2595TIP3   OH2 7790   4.935   1.158   1.155
 2595TIP3    H1 7791   4.994   1.216   1.203
 2595TIP3    H2 7792   4.991   1.116   1.089
 2596TIP3   OH2 7793   4.106   4.708   3.291
 2596TIP3    H1 7794   4.120   4.785   3.347
 2596TIP3    H2 7795   4.054   4.742   3.218
 2597TIP3   OH2 7796   4.664   4.486   4.112
 2597TIP3    H1 7797   4.644   4.484   4.019
 2597TIP3    H2 7798   4.691   4.576   4.129
 2598TIP3   OH2 7799   4.970   0.124   4.999
 2598TIP3    H1 7800   4.882   0.107   5.033
 2598TIP3    H2 7801   5.010   0.181   5.064
 2599TIP3   OH2 7802   3.970   3.138   3.305
 2599TIP3    H1 7803   3.979   3.200   3.233
 2599TIP3    H2 7804   3.886   3.095   3.290
 2600TIP3   OH2 7805   4.541   0.537   4.684
 2600TIP3    H1 7806   4.592   0.605   4.729
 2600TIP3    H2 7807   4.489   0.497   4.754
 2601TIP3   OH2 7808   6.213   5.194   4.595
 2601TIP3    H1 7809   6.158   5.122   4.563
 2601TIP3    H2 7810   6.226   5.174   4.688
 2602TIP3   OH2 7811   0.934   2.537   3.738
 2602TIP3    H1 7812   0.927   2.569   3.828
 2602TIP3    H2 7813   0.897   2.449   3.742
 2603TIP3   OH2 7814   0.949   5.684   3.832
 2603TIP3    H1 7815   0.909   5.706   3.916
 2603TIP3    H2 7816   1.043   5.690   3.848
 2604TIP3   OH2 7817   4.204   0.735   2.535
 2604TIP3    H1 7818   4.226   0.778   2.452
 2604TIP3    H2 7819   4.234   0.796   2.602
 2605TIP3   OH2 7820   2.197   4.288   3.497
 2605TIP3    H1 7821   2.281   4.260   3.534
 2605TIP3    H2 7822   2.203   4.384   3.494
 2606TIP3   OH2 7823   3.114   0.300   3.888
 2606TIP3    H1 7824   3.035   0.305   3.942
 2606TIP3    H2 7825   3.158   0.220   3.917
 2607TIP3   OH2 7826   5.471   4.788   4.685
 2607TIP3    H1 7827   5.527   4.798   4.762
 2607TIP3    H2 7828   5.422   4.870   4.680
 2608TIP3   OH2 7829   4.751   4.679   1.786
 2608TIP3    H1 7830   4.768   4.648   1.697
 2608TIP3    H2 7831   4.687   4.749   1.774
 2609TIP3   OH2 7832   3.423   0.188   3.283
 2609TIP3    H1 7833   3.399   0.142   3.364
 2609TIP3    H2 7834   3.514   0.215   3.298
 2610TIP3   OH2 7835   4.624   5.163   1.025
 2610TIP3    H1 7836   4.713   5.197   1.027
 2610TIP3    H2 7837   4.629   5.078   1.070
 2611TIP3   OH2 7838   2.770   1.490   2.709
 2611TIP3    H1 7839   2.774   1.497   2.804
 2611TIP3    H2 7840   2.704   1.555   2.684
 2612TIP3   OH2 7841   3.208   3.780   3.076
 2612TIP3    H1 7842   3.174   3.728   3.004
 2612TIP3    H2 7843   3.293   3.811   3.044
 2613TIP3   OH2 7844   3.283   2.560   0.566
 2613TIP3    H1 7845   3.374   2.537   0.582
 2613TIP3    H2 7846   3.286   2.637   0.510
 2614TIP3   OH2 7847   4.954   4.792   2.921
 2614TIP3    H1 7848   5.022   4.824   2.861
 2614TIP3    H2 7849   4.891   4.863   2.925
 2615TIP3   OH2 7850   2.786   5.007   2.738
 2615TIP3    H1 7851   2.697   5.002   2.706
 2615TIP3    H2 7852   2.797   4.928   2.791
 2616TIP3   OH2 7853   0.562   3.367   4.445
 2616TIP3    H1 7854   0.534   3.441   4.391
 2616TIP3    H2 7855   0.566   3.294   4.384
 2617TIP3   OH2 7856   5.167   1.029   2.753
 2617TIP3    H1 7857   5.221   1.100   2.788
 2617TIP3    H2 7858   5.080   1.043   2.790
 2618TIP3   OH2 7859   2.653   0.944   2.080
 2618TIP3    H1 7860   2.633   1.032   2.048
 2618TIP3    H2 7861   2.573   0.894   2.062
 2619TIP3   OH2 7862   5.486   0.962   0.932
 2619TIP3    H1 7863   5.534   1.042   0.956
 2619TIP3    H2 7864   5.395   0.982   0.952
 2620TIP3   OH2 7865   3.825   0.622   1.828
 2620TIP3    H1 7866   3.805   0.536   1.790
 2620TIP3    H2 7867   3.852   0.602   1.918
 2621TIP3   OH2 7868   1.843   3.603   1.023
 2621TIP3    H1 7869   1.867   3.511   1.034
 2621TIP3    H2 7870   1.773   3.617   1.087
 2622TIP3   OH2 7871   2.209   2.599   0.672
 2622TIP3    H1 7872   2.159   2.645   0.739
 2622TIP3    H2 7873   2.146   2.580   0.603
 2623TIP3   OH2 7874   2.557   1.517   3.221
 2623TIP3    H1 7875   2.557   1.496   3.314
 2623TIP3    H2 7876   2.595   1.441   3.178
 2624TIP3   OH2 7877   5.862   4.873   3.732
 2624TIP3    H1 7878   5.925   4.875   3.803
 2624TIP3    H2 7879   5.787   4.825   3.767
 2625TIP3   OH2 7880   3.382  -0.006   0.631
 2625TIP3    H1 7881   3.381   0.023   0.722
 2625TIP3    H2 7882   3.475  -0.009   0.608
 2626TIP3   OH2 7883   3.615   0.368   3.836
 2626TIP3    H1 7884   3.579   0.365   3.924
 2626TIP3    H2 7885   3.655   0.454   3.829
 2627TIP3   OH2 7886   0.447   2.854   1.520
 2627TIP3    H1 7887   0.405   2.850   1.434
 2627TIP3    H2 7888   0.490   2.770   1.530
 2628TIP3   OH2 7889   4.573   4.224   4.166
 2628TIP3    H1 7890   4.594   4.314   4.139
 2628TIP3    H2 7891   4.615   4.214   4.251
 2629TIP3   OH2 7892   5.044   5.156   4.480
 2629TIP3    H1 7893   5.117   5.119   4.429
 2629TIP3    H2 7894   4.975   5.090   4.476
 2630TIP3   OH2 7895   4.366   1.968   4.435
 2630TIP3    H1 7896   4.432   2.037   4.443
 2630TIP3    H2 7897   4.349   1.963   4.341
 2631TIP3   OH2 7898   2.128   5.150  -0.009
 2631TIP3    H1 7899   2.049   5.099   0.011
 2631TIP3    H2 7900   2.194   5.117   0.052
 2632TIP3   OH2 7901   2.098   4.631   4.316
 2632TIP3    H1 7902   2.126   4.539   4.315
 2632TIP3    H2 7903   2.100   4.657   4.225
 2633TIP3   OH2 7904   1.321   5.827   4.795
 2633TIP3    H1 7905   1.324   5.816   4.890
 2633TIP3    H2 7906   1.405   5.867   4.773
 2634TIP3   OH2 7907   4.653   0.088   0.609
 2634TIP3    H1 7908   4.714   0.091   0.536
 2634TIP3    H2 7909   4.588   0.023   0.583
 2635TIP3   OH2 7910   0.275   2.106   4.171
 2635TIP3    H1 7911   0.226   2.024   4.180
 2635TIP3    H2 7912   0.344   2.086   4.108
 2636TIP3   OH2 7913   5.663   2.435   2.177
 2636TIP3    H1 7914   5.652   2.492   2.254
 2636TIP3    H2 7915   5.749   2.458   2.143
 2637TIP3   OH2 7916   5.320  -0.042   0.668
 2637TIP3    H1 7917   5.415  -0.054   0.661
 2637TIP3    H2 7918   5.308   0.053   0.676
 2638TIP3   OH2 7919   1.050   1.571   0.249
 2638TIP3    H1 7920   1.116   1.637   0.225
 2638TIP3    H2 7921   1.084   1.489   0.214
 2639TIP3   OH2 7922   4.727   6.010   0.324
 2639TIP3    H1 7923   4.793   5.948   0.294
 2639TIP3    H2 7924   4.647   5.984   0.278
 2640TIP3   OH2 7925   1.859   1.467   1.646
 2640TIP3    H1 7926   1.792   1.407   1.614
 2640TIP3    H2 7927   1.815   1.551   1.654
 2641TIP3   OH2 7928   1.149   5.664   2.408
 2641TIP3    H1 7929   1.230   5.654   2.358
 2641TIP3    H2 7930   1.100   5.584   2.389
 2642TIP3   OH2 7931   4.868   0.428   4.503
 2642TIP3    H1 7932   4.885   0.407   4.595
 2642TIP3    H2 7933   4.780   0.395   4.487
 2643TIP3   OH2 7934   0.590   0.131   4.652
 2643TIP3    H1 7935   0.608   0.127   4.558
 2643TIP3    H2 7936   0.675   0.145   4.693
 2644TIP3   OH2 7937   3.029   3.555   0.442
 2644TIP3    H1 7938   2.979   3.524   0.518
 2644TIP3    H2 7939   3.119   3.531   0.462
 2645TIP3   OH2 7940   3.284   0.743   1.259
 2645TIP3    H1 7941   3.293   0.710   1.170
 2645TIP3    H2 7942   3.204   0.703   1.292
 2646TIP3   OH2 7943   4.948   5.931   4.006
 2646TIP3    H1 7944   4.863   5.977   4.004
 2646TIP3    H2 7945   4.930   5.850   4.053
 2647TIP3   OH2 7946   2.549   3.614   4.659
 2647TIP3    H1 7947   2.589   3.600   4.745
 2647TIP3    H2 7948   2.539   3.709   4.652
 2648TIP3   OH2 7949   1.482   1.656   2.570
 2648TIP3    H1 7950   1.481   1.713   2.647
 2648TIP3    H2 7951   1.472   1.715   2.495
 2649TIP3   OH2 7952   5.910   4.956   5.110
 2649TIP3    H1 7953   5.988   4.942   5.055
 2649TIP3    H2 7954   5.906   5.050   5.121
 2650TIP3   OH2 7955   1.826   5.585   0.851
 2650TIP3    H1 7956   1.875   5.619   0.776
 2650TIP3    H2 7957   1.833   5.489   0.842
 2651TIP3   OH2 7958   5.026   1.827   4.585
 2651TIP3    H1 7959   5.062   1.744   4.617
 2651TIP3    H2 7960   5.068   1.841   4.501
 2652TIP3   OH2 7961   2.220   0.582   3.239
 2652TIP3    H1 7962   2.299   0.631   3.214
 2652TIP3    H2 7963   2.228   0.572   3.334
 2653TIP3   OH2 7964   5.136   1.443   2.012
 2653TIP3    H1 7965   5.207   1.499   2.044
 2653TIP3    H2 7966   5.100   1.404   2.092
 2654TIP3   OH2 7967   6.036   2.801   0.051
 2654TIP3    H1 7968   5.990   2.857  -0.011
 2654TIP3    H2 7969   6.128   2.806   0.024
 2655TIP3   OH2 7970   5.210   5.017   1.284
 2655TIP3    H1 7971   5.129   4.980   1.249
 2655TIP3    H2 7972   5.208   4.995   1.378
 2656TIP3   OH2 7973   4.053   5.732   2.789
 2656TIP3    H1 7974   4.013   5.691   2.866
 2656TIP3    H2 7975   4.119   5.669   2.760
 2657TIP3   OH2 7976   4.854   4.418   2.339
 2657TIP3    H1 7977   4.870   4.376   2.423
 2657TIP3    H2 7978   4.760   4.412   2.326
 2658TIP3   OH2 7979   3.274   1.564   2.592
 2658TIP3    H1 7980   3.196   1.509   2.579
 2658TIP3    H2 7981   3.238   1.652   2.608
 2659TIP3   OH2 7982   2.661   2.130   4.393
 2659TIP3    H1 7983   2.570   2.157   4.410
 2659TIP3    H2 7984   2.701   2.127   4.480
 2660TIP3   OH2 7985   5.810   3.332   2.943
 2660TIP3    H1 7986   5.788   3.244   2.912
 2660TIP3    H2 7987   5.895   3.351   2.904
 2661TIP3   OH2 7988   2.455   5.660   1.737
 2661TIP3    H1 7989   2.448   5.679   1.830
 2661TIP3    H2 7990   2.531   5.712   1.708
 2662TIP3   OH2 7991   4.382   2.809   2.220
 2662TIP3    H1 7992   4.386   2.754   2.141
 2662TIP3    H2 7993   4.401   2.748   2.291
 2663TIP3   OH2 7994   2.394   1.103   3.485
 2663TIP3    H1 7995   2.449   1.167   3.531
 2663TIP3    H2 7996   2.409   1.121   3.392
 2664TIP3   OH2 7997   2.884   3.773  -0.009
 2664TIP3    H1 7998   2.885   3.742   0.081
 2664TIP3    H2 7999   2.913   3.864  -0.005
 2665TIP3   OH2 8000   2.841   3.655   2.810
 2665TIP3    H1 8001   2.934   3.640   2.791
 2665TIP3    H2 8002   2.841   3.704   2.892
 2666TIP3   OH2 8003   2.787   4.440   1.967
 2666TIP3    H1 8004   2.844   4.499   1.917
 2666TIP3    H2 8005   2.707   4.490   1.980
 2667TIP3   OH2 8006   1.603   1.604   1.857
 2667TIP3    H1 8007   1.555   1.522   1.864
 2667TIP3    H2 8008   1.634   1.606   1.767
 2668TIP3   OH2 8009   1.086   3.436   1.269
 2668TIP3    H1 8010   1.004   3.419   1.315
 2668TIP3    H2 8011   1.077   3.524   1.233
 2669TIP3   OH2 8012   3.563   1.136   0.733
 2669TIP3    H1 8013   3.510   1.061   0.705
 2669TIP3    H2 8014   3.645   1.098   0.764
 2670TIP3   OH2 8015   1.722   4.385   3.387
 2670TIP3    H1 8016   1.744   4.468   3.345
 2670TIP3    H2 8017   1.758   4.392   3.475
 2671TIP3   OH2 8018   2.615   3.959   1.969
 2671TIP3    H1 8019   2.611   3.889   1.904
 2671TIP3    H2 8020   2.635   4.038   1.918
 2672TIP3   OH2 8021   4.538   5.719   1.041
 2672TIP3    H1 8022   4.453   5.755   1.014
 2672TIP3    H2 8023   4.590   5.796   1.064
 2673TIP3   OH2 8024   3.645   2.147   1.519
 2673TIP3    H1 8025   3.580   2.183   1.580
 2673TIP3    H2 8026   3.650   2.054   1.542
 2674TIP3   OH2 8027   2.471  -0.010   3.236
 2674TIP3    H1 8028   2.451  -0.074   3.305
 2674TIP3    H2 8029   2.413   0.063   3.254
 2675TIP3   OH2 8030   3.476   5.241   4.453
 2675TIP3    H1 8031   3.447   5.319   4.500
 2675TIP3    H2 8032   3.423   5.241   4.373
 2676TIP3   OH2 8033   0.382   0.355   0.132
 2676TIP3    H1 8034   0.294   0.391   0.123
 2676TIP3    H2 8035   0.374   0.265   0.101
 2677TIP3   OH2 8036   5.969   2.472   4.419
 2677TIP3    H1 8037   6.016   2.396   4.453
 2677TIP3    H2 8038   5.876   2.452   4.434
 2678TIP3   OH2 8039   5.936   1.377   1.808
 2678TIP3    H1 8040   5.854   1.423   1.823
 2678TIP3    H2 8041   5.945   1.372   1.713
 2679TIP3   OH2 8042   5.270   3.648   2.776
 2679TIP3    H1 8043   5.337   3.588   2.743
 2679TIP3    H2 8044   5.311   3.734   2.772
 2680TIP3   OH2 8045   4.309   3.938   3.241
 2680TIP3    H1 8046   4.404   3.931   3.246
 2680TIP3    H2 8047   4.293   4.029   3.216
 2681TIP3   OH2 8048   5.186   2.188   1.698
 2681TIP3    H1 8049   5.099   2.228   1.709
 2681TIP3    H2 8050   5.167   2.096   1.679
 2682TIP3   OH2 8051   4.628  -0.010   3.758
 2682TIP3    H1 8052   4.722  -0.009   3.776
 2682TIP3    H2 8053   4.588  -0.021   3.844
 2683TIP3   OH2 8054   4.587   4.453   4.812
 2683TIP3    H1 8055   4.630   4.530   4.776
 2683TIP3    H2 8056   4.494   4.466   4.792
 2684TIP3   OH2 8057   3.262   5.269   0.884
 2684TIP3    H1 8058   3.262   5.180   0.849
 2684TIP3    H2 8059   3.354   5.295   0.883
 2685TIP3   OH2 8060   4.254   0.894   1.136
 2685TIP3    H1 8061   4.345   0.869   1.119
 2685TIP3    H2 8062   4.247   0.985   1.105
 2686TIP3   OH2 8063   4.666   2.180   2.736
 2686TIP3    H1 8064   4.708   2.256   2.775
 2686TIP3    H2 8065   4.594   2.159   2.796
 2687TIP3   OH2 8066   3.112   0.220   1.039
 2687TIP3    H1 8067   3.144   0.308   1.062
 2687TIP3    H2 8068   3.098   0.224   0.945
 2688TIP3   OH2 8069   1.536   3.078   1.722
 2688TIP3    H1 8070   1.484   2.999   1.737
 2688TIP3    H2 8071   1.526   3.096   1.629
 2689TIP3   OH2 8072   6.153   5.593   0.794
 2689TIP3    H1 8073   6.212   5.646   0.741
 2689TIP3    H2 8074   6.176   5.503   0.773
 2690TIP3   OH2 8075   2.066   4.674   3.108
 2690TIP3    H1 8076   2.095   4.605   3.049
 2690TIP3    H2 8077   1.971   4.678   3.097
 2691TIP3   OH2 8078   1.045   4.831   1.632
 2691TIP3    H1 8079   1.015   4.900   1.573
 2691TIP3    H2 8080   1.137   4.819   1.611
 2692TIP3   OH2 8081   0.621   5.630   0.953
 2692TIP3    H1 8082   0.527   5.614   0.943
 2692TIP3    H2 8083   0.649   5.566   1.018
 2693TIP3   OH2 8084   2.895   5.993   1.004
 2693TIP3    H1 8085   2.831   5.953   1.062
 2693TIP3    H2 8086   2.890   5.943   0.923
 2694TIP3   OH2 8087   3.109   0.085   5.137
 2694TIP3    H1 8088   3.091   0.178   5.133
 2694TIP3    H2 8089   3.027   0.042   5.114
 2695TIP3   OH2 8090   3.363   3.309   1.494
 2695TIP3    H1 8091   3.283   3.348   1.459
 2695TIP3    H2 8092   3.376   3.353   1.579
 2696TIP3   OH2 8093   2.462   1.884   0.427
 2696TIP3    H1 8094   2.475   1.841   0.512
 2696TIP3    H2 8095   2.378   1.929   0.436
 2697TIP3   OH2 8096   2.534   0.709   2.488
 2697TIP3    H1 8097   2.542   0.793   2.533
 2697TIP3    H2 8098   2.589   0.649   2.539
 2698TIP3   OH2 8099   3.343   4.373   2.838
 2698TIP3    H1 8100   3.423   4.320   2.844
 2698TIP3    H2 8101   3.369   4.449   2.785
 2699TIP3   OH2 8102   5.435   3.635   0.825
 2699TIP3    H1 8103   5.477   3.699   0.882
 2699TIP3    H2 8104   5.483   3.553   0.842
 2700TIP3   OH2 8105   2.199   4.887   1.225
 2700TIP3    H1 8106   2.138   4.917   1.292
 2700TIP3    H2 8107   2.188   4.792   1.224
 2701TIP3   OH2 8108   0.818   3.348   1.398
 2701TIP3    H1 8109   0.821   3.267   1.348
 2701TIP3    H2 8110   0.754   3.402   1.351
 2702TIP3   OH2 8111   5.613   4.385   2.172
 2702TIP3    H1 8112   5.530   4.433   2.181
 2702TIP3    H2 8113   5.593   4.315   2.109
 2703TIP3   OH2 8114   2.972   2.915   4.225
 2703TIP3    H1 8115   2.922   2.859   4.166
 2703TIP3    H2 8116   3.036   2.958   4.168
 2704TIP3   OH2 8117   5.983   0.269   2.808
 2704TIP3    H1 8118   6.031   0.187   2.816
 2704TIP3    H2 8119   5.942   0.282   2.894
 2705TIP3   OH2 8120   5.610   1.775   3.321
 2705TIP3    H1 8121   5.556   1.794   3.244
 2705TIP3    H2 8122   5.547   1.766   3.392
 2706TIP3   OH2 8123   4.402   5.112   5.098
 2706TIP3    H1 8124   4.325   5.147   5.053
 2706TIP3    H2 8125   4.461   5.188   5.107
 2707TIP3   OH2 8126   2.290   3.016   4.953
 2707TIP3    H1 8127   2.261   2.925   4.944
 2707TIP3    H2 8128   2.248   3.046   5.034
 2708TIP3   OH2 8129   3.709   4.813   2.460
 2708TIP3    H1 8130   3.736   4.735   2.509
 2708TIP3    H2 8131   3.617   4.825   2.483
 2709TIP3   OH2 8132   1.389   4.129   4.754
 2709TIP3    H1 8133   1.361   4.134   4.846
 2709TIP3    H2 8134   1.474   4.086   4.758
 2710TIP3   OH2 8135   4.257   3.617   4.951
 2710TIP3    H1 8136   4.240   3.584   5.039
 2710TIP3    H2 8137   4.251   3.540   4.894
 2711TIP3   OH2 8138   1.609   5.090   3.842
 2711TIP3    H1 8139   1.653   5.105   3.925
 2711TIP3    H2 8140   1.533   5.036   3.865
 2712TIP3   OH2 8141   2.857   3.606   0.235
 2712TIP3    H1 8142   2.775   3.645   0.265
 2712TIP3    H2 8143   2.907   3.590   0.315
 2713TIP3   OH2 8144   4.461   0.752   4.162
 2713TIP3    H1 8145   4.422   0.683   4.215
 2713TIP3    H2 8146   4.405   0.759   4.085
 2714TIP3   OH2 8147   3.388   1.199   2.421
 2714TIP3    H1 8148   3.362   1.163   2.506
 2714TIP3    H2 8149   3.414   1.122   2.370
 2715TIP3   OH2 8150   4.185   2.624   5.009
 2715TIP3    H1 8151   4.264   2.573   5.025
 2715TIP3    H2 8152   4.147   2.636   5.096
 2716TIP3   OH2 8153   3.562   4.570   1.371
 2716TIP3    H1 8154   3.502   4.639   1.402
 2716TIP3    H2 8155   3.584   4.596   1.282
 2717TIP3   OH2 8156   4.285   2.785   4.585
 2717TIP3    H1 8157   4.379   2.772   4.580
 2717TIP3    H2 8158   4.266   2.853   4.520
 2718TIP3   OH2 8159   1.563   0.527   1.075
 2718TIP3    H1 8160   1.633   0.468   1.048
 2718TIP3    H2 8161   1.529   0.563   0.993
 2719TIP3   OH2 8162   4.563   1.150   5.048
 2719TIP3    H1 8163   4.532   1.222   4.993
 2719TIP3    H2 8164   4.483   1.108   5.079
 2720TIP3   OH2 8165   1.019   0.896   0.206
 2720TIP3    H1 8166   1.086   0.930   0.148
 2720TIP3    H2 8167   0.956   0.968   0.215
 2721TIP3   OH2 8168   1.794   4.525   2.199
 2721TIP3    H1 8169   1.793   4.610   2.244
 2721TIP3    H2 8170   1.870   4.531   2.141
 2722TIP3   OH2 8171   0.982   5.443   0.396
 2722TIP3    H1 8172   0.890   5.470   0.395
 2722TIP3    H2 8173   1.019   5.487   0.472
 2723TIP3   OH2 8174   5.680   3.913   1.210
 2723TIP3    H1 8175   5.741   3.969   1.258
 2723TIP3    H2 8176   5.596   3.958   1.217
 2724TIP3   OH2 8177   0.471   3.393   0.500
 2724TIP3    H1 8178   0.541   3.447   0.464
 2724TIP3    H2 8179   0.390   3.434   0.469
 2725TIP3   OH2 8180   2.128   1.316   3.517
 2725TIP3    H1 8181   2.182   1.303   3.595
 2725TIP3    H2 8182   2.105   1.227   3.489
 2726TIP3   OH2 8183   0.655   1.250   1.329
 2726TIP3    H1 8184   0.659   1.253   1.233
 2726TIP3    H2 8185   0.711   1.176   1.352
 2727TIP3   OH2 8186   3.977   2.453   2.788
 2727TIP3    H1 8187   3.915   2.478   2.719
 2727TIP3    H2 8188   3.944   2.368   2.820
 2728TIP3   OH2 8189   3.563   2.110   2.522
 2728TIP3    H1 8190   3.566   2.034   2.465
 2728TIP3    H2 8191   3.560   2.185   2.463
 2729TIP3   OH2 8192   3.949   2.559   0.832
 2729TIP3    H1 8193   3.909   2.538   0.748
 2729TIP3    H2 8194   3.912   2.644   0.856
 2730TIP3   OH2 8195   2.649   1.673   0.051
 2730TIP3    H1 8196   2.708   1.679  -0.024
 2730TIP3    H2 8197   2.631   1.580   0.061
 2731TIP3   OH2 8198   1.848   1.636   4.969
 2731TIP3    H1 8199   1.826   1.694   4.896
 2731TIP3    H2 8200   1.767   1.630   5.020
 2732TIP3   OH2 8201   3.808   4.541   4.147
 2732TIP3    H1 8202   3.832   4.600   4.075
 2732TIP3    H2 8203   3.886   4.538   4.202
 2733TIP3   OH2 8204   4.854   4.474   3.670
 2733TIP3    H1 8205   4.927   4.476   3.608
 2733TIP3    H2 8206   4.839   4.381   3.687
 2734TIP3   OH2 8207   1.575   3.800   0.884
 2734TIP3    H1 8208   1.589   3.865   0.952
 2734TIP3    H2 8209   1.508   3.741   0.920
 2735TIP3   OH2 8210   4.249   0.672   0.635
 2735TIP3    H1 8211   4.200   0.708   0.709
 2735TIP3    H2 8212   4.339   0.669   0.666
 2736TIP3   OH2 8213   5.694   5.675   4.783
 2736TIP3    H1 8214   5.635   5.607   4.816
 2736TIP3    H2 8215   5.772   5.669   4.839
 2737TIP3   OH2 8216   3.230   3.634   1.953
 2737TIP3    H1 8217   3.209   3.634   1.859
 2737TIP3    H2 8218   3.174   3.702   1.990
 2738TIP3   OH2 8219   4.998   1.155   0.317
 2738TIP3    H1 8220   4.938   1.198   0.377
 2738TIP3    H2 8221   4.942   1.118   0.249
 2739TIP3   OH2 8222   5.930   2.327   0.688
 2739TIP3    H1 8223   5.854   2.381   0.669
 2739TIP3    H2 8224   5.996   2.355   0.625
 2740TIP3   OH2 8225   2.214   5.013   3.397
 2740TIP3    H1 8226   2.232   5.091   3.451
 2740TIP3    H2 8227   2.255   5.033   3.312
 2741TIP3   OH2 8228   2.878   1.340   4.661
 2741TIP3    H1 8229   2.968   1.357   4.690
 2741TIP3    H2 8230   2.830   1.419   4.683
 2742TIP3   OH2 8231   5.328   1.903   1.537
 2742TIP3    H1 8232   5.282   1.822   1.517
 2742TIP3    H2 8233   5.291   1.967   1.476
 2743TIP3   OH2 8234   3.670   1.216   1.094
 2743TIP3    H1 8235   3.653   1.283   1.029
 2743TIP3    H2 8236   3.600   1.225   1.158
 2744TIP3   OH2 8237   6.349   1.056   1.315
 2744TIP3    H1 8238   6.431   1.021   1.279
 2744TIP3    H2 8239   6.297   1.080   1.238
 2745TIP3   OH2 8240   2.515   3.912   1.251
 2745TIP3    H1 8241   2.498   3.967   1.328
 2745TIP3    H2 8242   2.432   3.868   1.234
 2746TIP3   OH2 8243   2.364   2.818   2.158
 2746TIP3    H1 8244   2.412   2.799   2.238
 2746TIP3    H2 8245   2.412   2.890   2.117
 2747TIP3   OH2 8246   6.033   4.490   1.930
 2747TIP3    H1 8247   5.996   4.427   1.991
 2747TIP3    H2 8248   6.104   4.443   1.886
 2748TIP3   OH2 8249   2.660   0.292   3.036
 2748TIP3    H1 8250   2.576   0.249   3.019
 2748TIP3    H2 8251   2.647   0.339   3.118
 2749TIP3   OH2 8252   1.539   5.021   1.398
 2749TIP3    H1 8253   1.569   4.946   1.348
 2749TIP3    H2 8254   1.606   5.033   1.466
 2750TIP3   OH2 8255   6.064   2.582   3.051
 2750TIP3    H1 8256   6.122   2.508   3.036
 2750TIP3    H2 8257   6.119   2.648   3.094
 2751TIP3   OH2 8258   2.191   1.279   0.373
 2751TIP3    H1 8259   2.239   1.212   0.421
 2751TIP3    H2 8260   2.231   1.361   0.399
 2752TIP3   OH2 8261   5.519   5.356   1.790
 2752TIP3    H1 8262   5.511   5.304   1.870
 2752TIP3    H2 8263   5.611   5.380   1.786
 2753TIP3   OH2 8264   2.142   5.258   4.534
 2753TIP3    H1 8265   2.195   5.190   4.495
 2753TIP3    H2 8266   2.198   5.297   4.601
 2754TIP3   OH2 8267   1.248   2.686   3.083
 2754TIP3    H1 8268   1.187   2.742   3.132
 2754TIP3    H2 8269   1.229   2.597   3.114
 2755TIP3   OH2 8270   4.938   5.775   5.127
 2755TIP3    H1 8271   5.016   5.831   5.134
 2755TIP3    H2 8272   4.900   5.775   5.214
 2756TIP3   OH2 8273   0.740   1.352   4.704
 2756TIP3    H1 8274   0.670   1.363   4.640
 2756TIP3    H2 8275   0.705   1.289   4.767
 2757TIP3   OH2 8276   0.627   3.286   1.965
 2757TIP3    H1 8277   0.703   3.276   2.022
 2757TIP3    H2 8278   0.661   3.327   1.886
 2758TIP3   OH2 8279   4.745   1.839   0.892
 2758TIP3    H1 8280   4.812   1.823   0.959
 2758TIP3    H2 8281   4.781   1.911   0.840
 2759TIP3   OH2 8282   3.208   2.194   0.051
 2759TIP3    H1 8283   3.178   2.112   0.013
 2759TIP3    H2 8284   3.301   2.198   0.028
 2760TIP3   OH2 8285   6.259   3.967   0.655
 2760TIP3    H1 8286   6.254   4.032   0.725
 2760TIP3    H2 8287   6.242   3.884   0.699
 2761TIP3   OH2 8288   6.160   4.315   4.447
 2761TIP3    H1 8289   6.172   4.362   4.365
 2761TIP3    H2 8290   6.248   4.299   4.480
 2762TIP3   OH2 8291   0.849   1.412   0.865
 2762TIP3    H1 8292   0.911   1.376   0.801
 2762TIP3    H2 8293   0.898   1.417   0.947
 2763TIP3   OH2 8294   4.845   5.476   4.817
 2763TIP3    H1 8295   4.893   5.429   4.749
 2763TIP3    H2 8296   4.758   5.491   4.779
 2764TIP3   OH2 8297   3.591   1.791   0.027
 2764TIP3    H1 8298   3.548   1.854   0.085
 2764TIP3    H2 8299   3.664   1.839  -0.012
 2765TIP3   OH2 8300   1.108   5.221   1.851
 2765TIP3    H1 8301   1.195   5.183   1.836
 2765TIP3    H2 8302   1.097   5.217   1.946
 2766TIP3   OH2 8303   2.211   1.295   1.174
 2766TIP3    H1 8304   2.200   1.372   1.230
 2766TIP3    H2 8305   2.189   1.326   1.086
 2767TIP3   OH2 8306   2.003   3.454   3.019
 2767TIP3    H1 8307   2.063   3.458   2.945
 2767TIP3    H2 8308   1.961   3.368   3.013
 2768TIP3   OH2 8309   4.242   2.385   2.117
 2768TIP3    H1 8310   4.231   2.355   2.207
 2768TIP3    H2 8311   4.181   2.459   2.108
 2769TIP3   OH2 8312   3.725   4.841   4.548
 2769TIP3    H1 8313   3.797   4.791   4.510
 2769TIP3    H2 8314   3.726   4.925   4.501
 2770TIP3   OH2 8315   3.906   0.243   1.442
 2770TIP3    H1 8316   3.898   0.209   1.531
 2770TIP3    H2 8317   3.951   0.327   1.453
 2771TIP3   OH2 8318   0.264   0.909   4.915
 2771TIP3    H1 8319   0.277   0.911   5.010
 2771TIP3    H2 8320   0.290   0.997   4.886
 2772TIP3   OH2 8321   3.381   5.935  -0.006
 2772TIP3    H1 8322   3.297   5.889  -0.014
 2772TIP3    H2 8323   3.379   5.974   0.081
 2773TIP3   OH2 8324   5.746   2.015   3.915
 2773TIP3    H1 8325   5.740   2.101   3.875
 2773TIP3    H2 8326   5.801   2.027   3.992
 2774TIP3   OH2 8327   1.346   4.865   1.549
 2774TIP3    H1 8328   1.391   4.780   1.558
 2774TIP3    H2 8329   1.404   4.916   1.492
 2775TIP3   OH2 8330   3.618   5.161   5.120
 2775TIP3    H1 8331   3.588   5.082   5.164
 2775TIP3    H2 8332   3.694   5.190   5.170
 2776TIP3   OH2 8333   2.381   2.447   0.841
 2776TIP3    H1 8334   2.402   2.515   0.905
 2776TIP3    H2 8335   2.326   2.490   0.776
 2777TIP3   OH2 8336   5.575   0.378   4.455
 2777TIP3    H1 8337   5.484   0.371   4.426
 2777TIP3    H2 8338   5.613   0.292   4.435
 2778TIP3   OH2 8339   4.521   5.756   1.617
 2778TIP3    H1 8340   4.556   5.807   1.543
 2778TIP3    H2 8341   4.513   5.819   1.688
 2779TIP3   OH2 8342   1.833   1.195   0.713
 2779TIP3    H1 8343   1.928   1.192   0.725
 2779TIP3    H2 8344   1.821   1.212   0.619
 2780TIP3   OH2 8345   5.030   5.065   3.929
 2780TIP3    H1 8346   5.069   5.015   3.858
 2780TIP3    H2 8347   5.004   4.999   3.994
 2781TIP3   OH2 8348   3.549   0.996   2.555
 2781TIP3    H1 8349   3.526   0.908   2.588
 2781TIP3    H2 8350   3.530   1.054   2.629
 2782TIP3   OH2 8351   1.822  -0.016   3.012
 2782TIP3    H1 8352   1.732   0.017   3.012
 2782TIP3    H2 8353   1.858   0.012   3.096
 2783TIP3   OH2 8354   4.522   3.854   0.250
 2783TIP3    H1 8355   4.430   3.838   0.229
 2783TIP3    H2 8356   4.528   3.843   0.345
 2784TIP3   OH2 8357   1.353   0.072   0.941
 2784TIP3    H1 8358   1.313   0.147   0.896
 2784TIP3    H2 8359   1.391   0.109   1.021
 2785TIP3   OH2 8360   5.352   3.583   0.070
 2785TIP3    H1 8361   5.375   3.629   0.150
 2785TIP3    H2 8362   5.432   3.535   0.047
 2786TIP3   OH2 8363   2.260   5.844   3.306
 2786TIP3    H1 8364   2.205   5.766   3.299
 2786TIP3    H2 8365   2.198   5.915   3.321
 2787TIP3   OH2 8366   4.979   4.879   0.971
 2787TIP3    H1 8367   5.045   4.812   0.951
 2787TIP3    H2 8368   4.966   4.873   1.065
 2788TIP3   OH2 8369   2.463   3.690   2.429
 2788TIP3    H1 8370   2.500   3.695   2.517
 2788TIP3    H2 8371   2.525   3.634   2.381
 2789TIP3   OH2 8372   6.167   0.116   0.565
 2789TIP3    H1 8373   6.254   0.091   0.532
 2789TIP3    H2 8374   6.160   0.209   0.544
 2790TIP3   OH2 8375   1.973   1.664   3.096
 2790TIP3    H1 8376   1.966   1.706   3.182
 2790TIP3    H2 8377   1.937   1.577   3.110
 2791TIP3   OH2 8378   0.507   0.168   2.964
 2791TIP3    H1 8379   0.543   0.113   3.034
 2791TIP3    H2 8380   0.469   0.243   3.009
 2792TIP3   OH2 8381   0.064   1.049   0.421
 2792TIP3    H1 8382   0.028   1.054   0.333
 2792TIP3    H2 8383   0.131   0.981   0.416
 2793TIP3   OH2 8384   2.563   0.943   4.681
 2793TIP3    H1 8385   2.593   0.911   4.596
 2793TIP3    H2 8386   2.618   1.019   4.700
 2794TIP3   OH2 8387   5.142   2.758   1.998
 2794TIP3    H1 8388   5.219   2.731   2.048
 2794TIP3    H2 8389   5.069   2.710   2.038
 2795TIP3   OH2 8390   0.101   0.247   0.158
 2795TIP3    H1 8391   0.063   0.286   0.079
 2795TIP3    H2 8392   0.086   0.153   0.148
 2796TIP3   OH2 8393   0.205   2.546   4.182
 2796TIP3    H1 8394   0.128   2.548   4.125
 2796TIP3    H2 8395   0.170   2.550   4.271
 2797TIP3   OH2 8396   5.020   2.551   2.387
 2797TIP3    H1 8397   4.981   2.561   2.474
 2797TIP3    H2 8398   5.099   2.604   2.390
 2798TIP3   OH2 8399   6.048   1.448   3.014
 2798TIP3    H1 8400   6.009   1.384   3.073
 2798TIP3    H2 8401   6.142   1.438   3.026
 2799TIP3   OH2 8402   2.262   2.814   1.447
 2799TIP3    H1 8403   2.275   2.883   1.383
 2799TIP3    H2 8404   2.168   2.809   1.460
 2800TIP3   OH2 8405   4.217   1.812   1.745
 2800TIP3    H1 8406   4.234   1.728   1.786
 2800TIP3    H2 8407   4.263   1.876   1.800
 2801TIP3   OH2 8408   5.368   0.148   3.360
 2801TIP3    H1 8409   5.307   0.186   3.297
 2801TIP3    H2 8410   5.454   0.157   3.318
 2802TIP3   OH2 8411   5.174   1.688   3.254
 2802TIP3    H1 8412   5.226   1.676   3.333
 2802TIP3    H2 8413   5.223   1.643   3.185
 2803TIP3   OH2 8414   3.561   2.957   4.674
 2803TIP3    H1 8415   3.595   2.874   4.642
 2803TIP3    H2 8416   3.469   2.940   4.694
 2804TIP3   OH2 8417   4.268   4.489   1.415
 2804TIP3    H1 8418   4.333   4.427   1.447
 2804TIP3    H2 8419   4.275   4.565   1.473
 2805TIP3   OH2 8420   4.186   0.325   0.681
 2805TIP3    H1 8421   4.179   0.344   0.775
 2805TIP3    H2 8422   4.269   0.278   0.673
 2806TIP3   OH2 8423   3.457   1.140   2.021
 2806TIP3    H1 8424   3.468   1.085   1.943
 2806TIP3    H2 8425   3.491   1.226   1.994
 2807TIP3   OH2 8426   1.973   5.816   1.559
 2807TIP3    H1 8427   2.063   5.818   1.527
 2807TIP3    H2 8428   1.920   5.822   1.479
 2808TIP3   OH2 8429   2.532   1.654   5.047
 2808TIP3    H1 8430   2.478   1.584   5.010
 2808TIP3    H2 8431   2.468   1.722   5.071
 2809TIP3   OH2 8432   2.148   1.898   4.556
 2809TIP3    H1 8433   2.122   1.816   4.598
 2809TIP3    H2 8434   2.069   1.928   4.511
 2810TIP3   OH2 8435   2.423   5.589   4.308
 2810TIP3    H1 8436   2.485   5.518   4.290
 2810TIP3    H2 8437   2.468   5.646   4.370
 2811TIP3   OH2 8438   5.892   0.314   0.248
 2811TIP3    H1 8439   5.923   0.229   0.280
 2811TIP3    H2 8440   5.966   0.373   0.261
 2812TIP3   OH2 8441   1.583   4.781   3.222
 2812TIP3    H1 8442   1.488   4.768   3.227
 2812TIP3    H2 8443   1.593   4.870   3.189
 2813TIP3   OH2 8444   3.360   1.987   1.366
 2813TIP3    H1 8445   3.310   2.067   1.383
 2813TIP3    H2 8446   3.411   2.007   1.288
 2814TIP3   OH2 8447   4.303   0.240   1.706
 2814TIP3    H1 8448   4.272   0.297   1.775
 2814TIP3    H2 8449   4.375   0.191   1.746
 2815TIP3   OH2 8450   3.326   1.521   0.083
 2815TIP3    H1 8451   3.264   1.591   0.062
 2815TIP3    H2 8452   3.411   1.557   0.059
 2816TIP3   OH2 8453   2.124   4.710   4.598
 2816TIP3    H1 8454   2.142   4.798   4.631
 2816TIP3    H2 8455   2.108   4.722   4.504
 2817TIP3   OH2 8456   3.586   2.860   2.400
 2817TIP3    H1 8457   3.591   2.951   2.369
 2817TIP3    H2 8458   3.634   2.861   2.482
 2818TIP3   OH2 8459   3.579   3.763   4.540
 2818TIP3    H1 8460   3.582   3.764   4.635
 2818TIP3    H2 8461   3.598   3.672   4.517
 2819TIP3   OH2 8462   1.229   3.787   0.036
 2819TIP3    H1 8463   1.182   3.756  -0.042
 2819TIP3    H2 8464   1.322   3.775   0.013
 2820TIP3   OH2 8465   0.335   1.748   0.994
 2820TIP3    H1 8466   0.333   1.660   1.030
 2820TIP3    H2 8467   0.371   1.738   0.906
 2821TIP3   OH2 8468   4.598   5.803   4.114
 2821TIP3    H1 8469   4.615   5.868   4.183
 2821TIP3    H2 8470   4.685   5.777   4.085
 2822TIP3   OH2 8471   1.808   4.107   4.076
 2822TIP3    H1 8472   1.836   4.021   4.108
 2822TIP3    H2 8473   1.856   4.170   4.131
 2823TIP3   OH2 8474   0.764   4.504   4.869
 2823TIP3    H1 8475   0.841   4.545   4.906
 2823TIP3    H2 8476   0.747   4.552   4.788
 2824TIP3   OH2 8477   1.562   5.652   0.854
 2824TIP3    H1 8478   1.550   5.655   0.759
 2824TIP3    H2 8479   1.657   5.648   0.866
 2825TIP3   OH2 8480   2.095   0.908   2.529
 2825TIP3    H1 8481   2.001   0.926   2.531
 2825TIP3    H2 8482   2.104   0.821   2.569
 2826TIP3   OH2 8483   6.058   0.968   1.834
 2826TIP3    H1 8484   6.137   0.958   1.781
 2826TIP3    H2 8485   6.017   1.048   1.801
 2827TIP3   OH2 8486   3.249   5.423   1.929
 2827TIP3    H1 8487   3.209   5.392   2.010
 2827TIP3    H2 8488   3.180   5.474   1.886
 2828TIP3   OH2 8489   4.569   3.360   2.236
 2828TIP3    H1 8490   4.659   3.344   2.264
 2828TIP3    H2 8491   4.541   3.437   2.286
 2829TIP3   OH2 8492   3.523   2.997   1.850
 2829TIP3    H1 8493   3.434   3.030   1.851
 2829TIP3    H2 8494   3.548   2.993   1.943
 2830TIP3   OH2 8495   4.401   1.362   2.323
 2830TIP3    H1 8496   4.426   1.454   2.312
 2830TIP3    H2 8497   4.335   1.363   2.392
 2831TIP3   OH2 8498   4.801   4.164   4.447
 2831TIP3    H1 8499   4.810   4.115   4.365
 2831TIP3    H2 8500   4.707   4.179   4.455
 2832TIP3   OH2 8501   2.525   0.237   3.893
 2832TIP3    H1 8502   2.452   0.281   3.850
 2832TIP3    H2 8503   2.568   0.307   3.943
 2833TIP3   OH2 8504   6.073   0.848   5.170
 2833TIP3    H1 8505   6.132   0.800   5.229
 2833TIP3    H2 8506   6.058   0.932   5.215
 2834TIP3   OH2 8507   2.955   1.544   4.918
 2834TIP3    H1 8508   3.030   1.539   4.858
 2834TIP3    H2 8509   2.879   1.552   4.860
 2835TIP3   OH2 8510   5.311   4.438   1.603
 2835TIP3    H1 8511   5.275   4.361   1.647
 2835TIP3    H2 8512   5.263   4.512   1.639
 2836TIP3   OH2 8513   0.386   4.586   0.938
 2836TIP3    H1 8514   0.438   4.536   1.002
 2836TIP3    H2 8515   0.387   4.675   0.971
 2837TIP3   OH2 8516   6.159   2.070   4.757
 2837TIP3    H1 8517   6.213   2.076   4.678
 2837TIP3    H2 8518   6.198   2.134   4.817
 2838TIP3   OH2 8519   5.395   5.966   3.066
 2838TIP3    H1 8520   5.382   6.051   3.108
 2838TIP3    H2 8521   5.475   5.932   3.106
 2839TIP3   OH2 8522   4.408   5.287   3.938
 2839TIP3    H1 8523   4.374   5.199   3.924
 2839TIP3    H2 8524   4.427   5.291   4.032
 2840TIP3   OH2 8525   3.009   0.942   4.304
 2840TIP3    H1 8526   2.959   0.966   4.382
 2840TIP3    H2 8527   3.055   1.022   4.279
 2841TIP3   OH2 8528   2.091   3.067   1.726
 2841TIP3    H1 8529   2.122   2.977   1.735
 2841TIP3    H2 8530   2.168   3.120   1.743
 2842TIP3   OH2 8531   6.116   1.666   0.103
 2842TIP3    H1 8532   6.191   1.711   0.064
 2842TIP3    H2 8533   6.043   1.686   0.045
 2843TIP3   OH2 8534   5.346   4.471   0.915
 2843TIP3    H1 8535   5.325   4.380   0.933
 2843TIP3    H2 8536   5.405   4.468   0.839
 2844TIP3   OH2 8537   3.376   0.693   0.254
 2844TIP3    H1 8538   3.344   0.710   0.165
 2844TIP3    H2 8539   3.301   0.654   0.299
 2845TIP3   OH2 8540   0.558   0.909   4.869
 2845TIP3    H1 8541   0.591   0.849   4.936
 2845TIP3    H2 8542   0.467   0.926   4.895
 2846TIP3   OH2 8543   0.544   5.136   2.712
 2846TIP3    H1 8544   0.574   5.102   2.797
 2846TIP3    H2 8545   0.495   5.215   2.734
 2847TIP3   OH2 8546   5.881   4.470   2.721
 2847TIP3    H1 8547   5.884   4.399   2.657
 2847TIP3    H2 8548   5.972   4.502   2.725
 2848TIP3   OH2 8549   3.409   0.651   0.671
 2848TIP3    H1 8550   3.340   0.697   0.624
 2848TIP3    H2 8551   3.471   0.720   0.695
 2849TIP3   OH2 8552   5.086   1.291   1.356
 2849TIP3    H1 8553   5.174   1.281   1.322
 2849TIP3    H2 8554   5.063   1.383   1.338
 2850TIP3   OH2 8555   5.028   2.207   2.945
 2850TIP3    H1 8556   4.988   2.120   2.949
 2850TIP3    H2 8557   5.109   2.194   2.896
 2851TIP3   OH2 8558   0.085   4.817   0.221
 2851TIP3    H1 8559   0.178   4.814   0.241
 2851TIP3    H2 8560   0.053   4.897   0.262
 2852TIP3   OH2 8561   3.042   3.819   2.538
 2852TIP3    H1 8562   2.953   3.815   2.504
 2852TIP3    H2 8563   3.034   3.792   2.629
 2853TIP3   OH2 8564   2.449   2.507   1.929
 2853TIP3    H1 8565   2.469   2.587   1.881
 2853TIP3    H2 8566   2.526   2.452   1.917
 2854TIP3   OH2 8567   0.876   0.456   0.577
 2854TIP3    H1 8568   0.792   0.467   0.623
 2854TIP3    H2 8569   0.913   0.376   0.614
 2855TIP3   OH2 8570   5.842   1.878   3.119
 2855TIP3    H1 8571   5.795   1.801   3.152
 2855TIP3    H2 8572   5.809   1.951   3.171
 2856TIP3   OH2 8573   0.415   0.290   3.262
 2856TIP3    H1 8574   0.439   0.210   3.309
 2856TIP3    H2 8575   0.470   0.358   3.301
 2857TIP3   OH2 8576   0.270   2.522   3.151
 2857TIP3    H1 8577   0.249   2.441   3.104
 2857TIP3    H2 8578   0.264   2.591   3.085
 2858TIP3   OH2 8579   4.570   4.543   3.477
 2858TIP3    H1 8580   4.555   4.637   3.460
 2858TIP3    H2 8581   4.657   4.540   3.518
 2859TIP3   OH2 8582   1.732   0.165   1.546
 2859TIP3    H1 8583   1.674   0.220   1.598
 2859TIP3    H2 8584   1.763   0.098   1.607
 2860TIP3   OH2 8585   3.865   4.833   2.832
 2860TIP3    H1 8586   3.903   4.785   2.905
 2860TIP3    H2 8587   3.870   4.925   2.858
 2861TIP3   OH2 8588   2.942   3.242   3.211
 2861TIP3    H1 8589   2.954   3.337   3.201
 2861TIP3    H2 8590   3.023   3.204   3.178
 2862TIP3   OH2 8591   6.340   2.194   3.639
 2862TIP3    H1 8592   6.315   2.253   3.710
 2862TIP3    H2 8593   6.394   2.127   3.681
 2863TIP3   OH2 8594   4.975   3.368   4.383
 2863TIP3    H1 8595   4.964   3.453   4.340
 2863TIP3    H2 8596   4.991   3.307   4.311
 2864TIP3   OH2 8597   2.413   1.904   1.229
 2864TIP3    H1 8598   2.318   1.909   1.225
 2864TIP3    H2 8599   2.439   1.860   1.148
 2865TIP3   OH2 8600   5.707   1.137   4.409
 2865TIP3    H1 8601   5.771   1.160   4.475
 2865TIP3    H2 8602   5.710   1.041   4.405
 2866TIP3   OH2 8603   1.651   2.174   1.792
 2866TIP3    H1 8604   1.632   2.214   1.707
 2866TIP3    H2 8605   1.699   2.243   1.840
 2867TIP3   OH2 8606   3.702   2.510   4.879
 2867TIP3    H1 8607   3.771   2.570   4.907
 2867TIP3    H2 8608   3.691   2.450   4.953
 2868TIP3   OH2 8609   2.881   5.259   2.126
 2868TIP3    H1 8610   2.933   5.205   2.186
 2868TIP3    H2 8611   2.946   5.315   2.083
 2869TIP3   OH2 8612   6.239   5.366   1.065
 2869TIP3    H1 8613   6.260   5.278   1.033
 2869TIP3    H2 8614   6.159   5.390   1.019
 2870TIP3   OH2 8615   5.967   3.748   0.538
 2870TIP3    H1 8616   5.977   3.828   0.486
 2870TIP3    H2 8617   5.928   3.778   0.620
 2871TIP3   OH2 8618   0.600   2.431   0.146
 2871TIP3    H1 8619   0.679   2.453   0.196
 2871TIP3    H2 8620   0.584   2.507   0.090
 2872TIP3   OH2 8621   0.158   5.355   2.483
 2872TIP3    H1 8622   0.139   5.334   2.575
 2872TIP3    H2 8623   0.253   5.346   2.475
 2873TIP3   OH2 8624   4.009   0.357   1.842
 2873TIP3    H1 8625   4.003   0.264   1.819
 2873TIP3    H2 8626   3.978   0.361   1.933
 2874TIP3   OH2 8627   4.425   4.725   0.465
 2874TIP3    H1 8628   4.446   4.647   0.412
 2874TIP3    H2 8629   4.338   4.707   0.501
 2875TIP3   OH2 8630   2.567   5.174   4.346
 2875TIP3    H1 8631   2.527   5.179   4.433
 2875TIP3    H2 8632   2.514   5.234   4.293
 2876TIP3   OH2 8633   5.316   0.591   3.292
 2876TIP3    H1 8634   5.272   0.511   3.321
 2876TIP3    H2 8635   5.309   0.651   3.367
 2877TIP3   OH2 8636   4.654   3.176   3.045
 2877TIP3    H1 8637   4.637   3.196   3.137
 2877TIP3    H2 8638   4.732   3.226   3.023
 2878TIP3   OH2 8639   3.912   0.549   3.974
 2878TIP3    H1 8640   3.937   0.498   3.897
 2878TIP3    H2 8641   3.942   0.496   4.048
 2879TIP3   OH2 8642   4.880   5.357   0.644
 2879TIP3    H1 8643   4.802   5.396   0.682
 2879TIP3    H2 8644   4.853   5.268   0.620
 2880TIP3   OH2 8645   4.516   2.005   1.471
 2880TIP3    H1 8646   4.434   1.974   1.431
 2880TIP3    H2 8647   4.492   2.024   1.561
 2881TIP3   OH2 8648   2.217   1.966   0.564
 2881TIP3    H1 8649   2.217   1.950   0.658
 2881TIP3    H2 8650   2.134   2.011   0.547
 2882TIP3   OH2 8651   0.122   5.474   2.949
 2882TIP3    H1 8652   0.161   5.407   3.005
 2882TIP3    H2 8653   0.192   5.537   2.933
 2883TIP3   OH2 8654   5.829   1.915   1.036
 2883TIP3    H1 8655   5.793   1.968   1.107
 2883TIP3    H2 8656   5.793   1.954   0.956
 2884TIP3   OH2 8657   2.045   0.006   3.517
 2884TIP3    H1 8658   2.069   0.059   3.593
 2884TIP3    H2 8659   1.973  -0.048   3.548
 2885TIP3   OH2 8660   3.255   1.138   3.369
 2885TIP3    H1 8661   3.218   1.095   3.292
 2885TIP3    H2 8662   3.251   1.232   3.349
 2886TIP3   OH2 8663   1.614   1.164   4.326
 2886TIP3    H1 8664   1.601   1.117   4.243
 2886TIP3    H2 8665   1.706   1.188   4.326
 2887TIP3   OH2 8666   0.035   0.906   2.755
 2887TIP3    H1 8667   0.109   0.967   2.758
 2887TIP3    H2 8668  -0.033   0.953   2.707
 2888TIP3   OH2 8669   5.116   1.126   3.682
 2888TIP3    H1 8670   5.090   1.218   3.684
 2888TIP3    H2 8671   5.038   1.079   3.653
 2889TIP3   OH2 8672   5.560   5.512   4.956
 2889TIP3    H1 8673   5.607   5.429   4.963
 2889TIP3    H2 8674   5.490   5.505   5.021
 2890TIP3   OH2 8675   3.752   4.072   3.320
 2890TIP3    H1 8676   3.781   4.035   3.404
 2890TIP3    H2 8677   3.690   4.140   3.345
 2891TIP3   OH2 8678   1.244   2.585   1.924
 2891TIP3    H1 8679   1.183   2.519   1.892
 2891TIP3    H2 8680   1.246   2.652   1.856
 2892TIP3   OH2 8681   0.721   2.868   3.614
 2892TIP3    H1 8682   0.802   2.827   3.584
 2892TIP3    H2 8683   0.746   2.913   3.695
 2893TIP3   OH2 8684   4.286   4.194   4.222
 2893TIP3    H1 8685   4.381   4.204   4.218
 2893TIP3    H2 8686   4.261   4.170   4.133
 2894TIP3   OH2 8687   4.083   5.705   4.103
 2894TIP3    H1 8688   4.075   5.645   4.029
 2894TIP3    H2 8689   4.040   5.659   4.176
 2895TIP3   OH2 8690   5.671   5.192   3.699
 2895TIP3    H1 8691   5.764   5.175   3.680
 2895TIP3    H2 8692   5.654   5.278   3.662
 2896TIP3   OH2 8693   3.629   1.714   0.652
 2896TIP3    H1 8694   3.686   1.748   0.583
 2896TIP3    H2 8695   3.613   1.788   0.710
 2897TIP3   OH2 8696   0.055   0.446   1.554
 2897TIP3    H1 8697   0.143   0.477   1.531
 2897TIP3    H2 8698  -0.004   0.499   1.501
 2898TIP3   OH2 8699   1.745   5.052   4.405
 2898TIP3    H1 8700   1.784   5.071   4.491
 2898TIP3    H2 8701   1.796   4.979   4.371
 2899TIP3   OH2 8702   2.092   3.986   3.461
 2899TIP3    H1 8703   2.054   3.902   3.487
 2899TIP3    H2 8704   2.126   3.971   3.373
 2900TIP3   OH2 8705   5.221   0.088   0.326
 2900TIP3    H1 8706   5.183   0.175   0.337
 2900TIP3    H2 8707   5.176   0.034   0.391
 2901TIP3   OH2 8708   3.471   0.295   4.514
 2901TIP3    H1 8709   3.533   0.232   4.477
 2901TIP3    H2 8710   3.524   0.372   4.536
 2902TIP3   OH2 8711   5.330   4.151   2.827
 2902TIP3    H1 8712   5.356   4.065   2.795
 2902TIP3    H2 8713   5.328   4.142   2.923
 2903TIP3   OH2 8714   6.165   3.087   3.908
 2903TIP3    H1 8715   6.107   3.130   3.845
 2903TIP3    H2 8716   6.186   3.155   3.972
 2904TIP3   OH2 8717   2.051   0.431   0.844
 2904TIP3    H1 8718   2.096   0.386   0.772
 2904TIP3    H2 8719   2.121   0.454   0.905
 2905TIP3   OH2 8720   0.189   1.708   4.807
 2905TIP3    H1 8721   0.176   1.710   4.902
 2905TIP3    H2 8722   0.224   1.795   4.786
 2906TIP3   OH2 8723   1.616   4.064   1.031
 2906TIP3    H1 8724   1.687   4.107   0.983
 2906TIP3    H2 8725   1.621   4.101   1.119
 2907TIP3   OH2 8726   4.871   3.292   0.761
 2907TIP3    H1 8727   4.906   3.282   0.673
 2907TIP3    H2 8728   4.828   3.378   0.760
 2908TIP3   OH2 8729   2.669   3.747   0.469
 2908TIP3    H1 8730   2.579   3.719   0.482
 2908TIP3    H2 8731   2.719   3.697   0.533
 2909TIP3   OH2 8732   3.254   2.235   1.421
 2909TIP3    H1 8733   3.172   2.264   1.381
 2909TIP3    H2 8734   3.322   2.284   1.376
 2910TIP3   OH2 8735   3.182   4.212   2.702
 2910TIP3    H1 8736   3.250   4.145   2.703
 2910TIP3    H2 8737   3.213   4.278   2.764
 2911TIP3   OH2 8738   0.708   4.193   4.471
 2911TIP3    H1 8739   0.672   4.262   4.414
 2911TIP3    H2 8740   0.790   4.229   4.503
 2912TIP3   OH2 8741   1.828   1.880   2.252
 2912TIP3    H1 8742   1.752   1.910   2.301
 2912TIP3    H2 8743   1.834   1.787   2.272
 2913TIP3   OH2 8744  -0.063   3.913   0.379
 2913TIP3    H1 8745  -0.084   3.943   0.467
 2913TIP3    H2 8746   0.012   3.855   0.390
 2914TIP3   OH2 8747   6.078   5.154   1.533
 2914TIP3    H1 8748   6.073   5.059   1.530
 2914TIP3    H2 8749   6.086   5.181   1.442
 2915TIP3   OH2 8750   2.016   4.588   4.974
 2915TIP3    H1 8751   1.960   4.655   5.013
 2915TIP3    H2 8752   2.011   4.514   5.034
 2916TIP3   OH2 8753   2.785   3.788   0.740
 2916TIP3    H1 8754   2.781   3.865   0.797
 2916TIP3    H2 8755   2.726   3.725   0.781
 2917TIP3   OH2 8756   5.388   5.632   2.343
 2917TIP3    H1 8757   5.303   5.599   2.372
 2917TIP3    H2 8758   5.389   5.724   2.369
 2918TIP3   OH2 8759   0.172   1.890   3.079
 2918TIP3    H1 8760   0.190   1.947   3.004
 2918TIP3    H2 8761   0.211   1.936   3.153
 2919TIP3   OH2 8762   4.197   5.882   0.472
 2919TIP3    H1 8763   4.170   5.796   0.438
 2919TIP3    H2 8764   4.250   5.861   0.549
 2920TIP3   OH2 8765   4.861   3.052   2.769
 2920TIP3    H1 8766   4.889   3.014   2.685
 2920TIP3    H2 8767   4.788   3.110   2.745
 2921TIP3   OH2 8768   6.315   1.736   0.505
 2921TIP3    H1 8769   6.395   1.706   0.549
 2921TIP3    H2 8770   6.334   1.827   0.482
 2922TIP3   OH2 8771   4.493   2.920   2.961
 2922TIP3    H1 8772   4.546   2.992   2.995
 2922TIP3    H2 8773   4.557   2.853   2.934
 2923TIP3   OH2 8774   1.024   0.123   2.835
 2923TIP3    H1 8775   0.949   0.140   2.779
 2923TIP3    H2 8776   1.087   0.192   2.815
 2924TIP3   OH2 8777   0.797   0.983   0.750
 2924TIP3    H1 8778   0.822   0.974   0.658
 2924TIP3    H2 8779   0.733   1.054   0.752
 2925TIP3   OH2 8780   5.196   4.773   3.421
 2925TIP3    H1 8781   5.274   4.730   3.387
 2925TIP3    H2 8782   5.137   4.777   3.346
 2926TIP3   OH2 8783   5.040   4.477   1.104
 2926TIP3    H1 8784   4.948   4.495   1.123
 2926TIP3    H2 8785   5.039   4.405   1.041
 2927TIP3   OH2 8786   3.113   0.714   2.973
 2927TIP3    H1 8787   3.142   0.625   2.953
 2927TIP3    H2 8788   3.172   0.770   2.923
 2928TIP3   OH2 8789   2.956   4.979   3.623
 2928TIP3    H1 8790   3.048   4.957   3.607
 2928TIP3    H2 8791   2.954   5.003   3.716
 2929TIP3   OH2 8792   5.071   4.393   1.414
 2929TIP3    H1 8793   5.014   4.334   1.364
 2929TIP3    H2 8794   5.084   4.348   1.497
 2930TIP3   OH2 8795   5.692   4.230   4.657
 2930TIP3    H1 8796   5.639   4.302   4.692
 2930TIP3    H2 8797   5.647   4.151   4.687
 2931TIP3   OH2 8798   5.568   4.737   0.195
 2931TIP3    H1 8799   5.486   4.688   0.198
 2931TIP3    H2 8800   5.564   4.786   0.113
 2932TIP3   OH2 8801   1.809   3.493   0.754
 2932TIP3    H1 8802   1.843   3.530   0.836
 2932TIP3    H2 8803   1.714   3.505   0.760
 2933TIP3   OH2 8804   2.670   1.521   4.089
 2933TIP3    H1 8805   2.693   1.468   4.013
 2933TIP3    H2 8806   2.746   1.578   4.102
 2934TIP3   OH2 8807   4.709   5.890   4.717
 2934TIP3    H1 8808   4.749   5.977   4.723
 2934TIP3    H2 8809   4.783   5.830   4.711
 2935TIP3   OH2 8810   2.281   4.804   0.170
 2935TIP3    H1 8811   2.220   4.743   0.129
 2935TIP3    H2 8812   2.320   4.755   0.242
 2936TIP3   OH2 8813   6.282   4.821   3.446
 2936TIP3    H1 8814   6.295   4.758   3.375
 2936TIP3    H2 8815   6.190   4.810   3.471
 2937TIP3   OH2 8816   0.543   5.190   0.849
 2937TIP3    H1 8817   0.565   5.206   0.941
 2937TIP3    H2 8818   0.606   5.241   0.799
 2938TIP3   OH2 8819   1.687   1.965   0.759
 2938TIP3    H1 8820   1.646   2.022   0.693
 2938TIP3    H2 8821   1.625   1.964   0.832
 2939TIP3   OH2 8822   2.252   1.633   1.030
 2939TIP3    H1 8823   2.227   1.700   0.966
 2939TIP3    H2 8824   2.195   1.559   1.010
 2940TIP3   OH2 8825   4.903   4.069   0.247
 2940TIP3    H1 8826   4.980   4.113   0.283
 2940TIP3    H2 8827   4.924   3.975   0.252
 2941TIP3   OH2 8828   6.138   1.641   4.346
 2941TIP3    H1 8829   6.099   1.592   4.274
 2941TIP3    H2 8830   6.189   1.576   4.394
 2942TIP3   OH2 8831   5.896   3.716   4.684
 2942TIP3    H1 8832   5.939   3.743   4.603
 2942TIP3    H2 8833   5.853   3.795   4.716
 2943TIP3   OH2 8834   3.343   1.120   0.273
 2943TIP3    H1 8835   3.411   1.154   0.214
 2943TIP3    H2 8836   3.385   1.047   0.318
 2944TIP3   OH2 8837   5.141   3.511   1.350
 2944TIP3    H1 8838   5.142   3.421   1.317
 2944TIP3    H2 8839   5.051   3.540   1.338
 2945TIP3   OH2 8840   2.682   5.563   2.714
 2945TIP3    H1 8841   2.751   5.617   2.751
 2945TIP3    H2 8842   2.604   5.619   2.717
 2946TIP3   OH2 8843   0.930   1.326   3.863
 2946TIP3    H1 8844   0.861   1.393   3.865
 2946TIP3    H2 8845   0.992   1.357   3.797
 2947TIP3   OH2 8846   1.934   0.522   0.530
 2947TIP3    H1 8847   1.849   0.566   0.532
 2947TIP3    H2 8848   1.916   0.431   0.555
 2948TIP3   OH2 8849   3.747   2.747   1.482
 2948TIP3    H1 8850   3.799   2.791   1.550
 2948TIP3    H2 8851   3.693   2.816   1.444
 2949TIP3   OH2 8852   3.526   1.970   1.130
 2949TIP3    H1 8853   3.513   1.993   1.038
 2949TIP3    H2 8854   3.478   1.888   1.140
 2950TIP3   OH2 8855   5.386   1.038   1.802
 2950TIP3    H1 8856   5.328   1.085   1.862
 2950TIP3    H2 8857   5.384   0.947   1.833
 2951TIP3   OH2 8858   2.072   0.140   4.626
 2951TIP3    H1 8859   2.024   0.164   4.547
 2951TIP3    H2 8860   2.162   0.167   4.608
 2952TIP3   OH2 8861   6.080   5.627   1.745
 2952TIP3    H1 8862   6.134   5.611   1.668
 2952TIP3    H2 8863   6.141   5.663   1.810
 2953TIP3   OH2 8864   2.787   5.091   4.503
 2953TIP3    H1 8865   2.698   5.082   4.468
 2953TIP3    H2 8866   2.824   5.165   4.456
 2954TIP3   OH2 8867   1.072   0.463   0.384
 2954TIP3    H1 8868   0.998   0.449   0.443
 2954TIP3    H2 8869   1.102   0.552   0.403
 2955TIP3   OH2 8870   0.486   3.480   3.872
 2955TIP3    H1 8871   0.550   3.410   3.863
 2955TIP3    H2 8872   0.420   3.444   3.932
 2956TIP3   OH2 8873   4.918   2.673   4.225
 2956TIP3    H1 8874   4.922   2.763   4.257
 2956TIP3    H2 8875   4.980   2.625   4.281
 2957TIP3   OH2 8876   6.228   0.573   2.182
 2957TIP3    H1 8877   6.274   0.611   2.257
 2957TIP3    H2 8878   6.227   0.643   2.117
 2958TIP3   OH2 8879   0.713   0.207   0.634
 2958TIP3    H1 8880   0.619   0.207   0.654
 2958TIP3    H2 8881   0.752   0.263   0.701
 2959TIP3   OH2 8882   0.229   1.817   1.419
 2959TIP3    H1 8883   0.181   1.819   1.502
 2959TIP3    H2 8884   0.199   1.737   1.375
 2960TIP3   OH2 8885   2.238   0.258   3.249
 2960TIP3    H1 8886   2.151   0.274   3.212
 2960TIP3    H2 8887   2.230   0.278   3.342
 2961TIP3   OH2 8888   5.428   4.623   3.356
 2961TIP3    H1 8889   5.444   4.558   3.287
 2961TIP3    H2 8890   5.456   4.580   3.436
 2962TIP3   OH2 8891   6.162   3.567   1.537
 2962TIP3    H1 8892   6.232   3.597   1.594
 2962TIP3    H2 8893   6.148   3.476   1.560
 2963TIP3   OH2 8894   4.189   4.284   0.203
 2963TIP3    H1 8895   4.220   4.236   0.126
 2963TIP3    H2 8896   4.113   4.333   0.171
 2964TIP3   OH2 8897   3.266   3.878   0.480
 2964TIP3    H1 8898   3.187   3.893   0.533
 2964TIP3    H2 8899   3.335   3.924   0.527
 2965TIP3   OH2 8900   3.937   1.317   3.740
 2965TIP3    H1 8901   3.891   1.260   3.678
 2965TIP3    H2 8902   3.899   1.295   3.826
 2966TIP3   OH2 8903   0.284   5.081   0.282
 2966TIP3    H1 8904   0.306   5.059   0.192
 2966TIP3    H2 8905   0.196   5.119   0.277
 2967TIP3   OH2 8906   4.458   5.182   0.798
 2967TIP3    H1 8907   4.499   5.176   0.884
 2967TIP3    H2 8908   4.412   5.098   0.788
 2968TIP3   OH2 8909   4.124   2.068   4.545
 2968TIP3    H1 8910   4.191   2.015   4.503
 2968TIP3    H2 8911   4.172   2.124   4.606
 2969TIP3   OH2 8912   3.661   0.318   3.368
 2969TIP3    H1 8913   3.608   0.392   3.398
 2969TIP3    H2 8914   3.729   0.308   3.436
 2970TIP3   OH2 8915   5.112   4.519   3.539
 2970TIP3    H1 8916   5.146   4.607   3.556
 2970TIP3    H2 8917   5.184   4.460   3.565
 2971TIP3   OH2 8918   6.309   0.204   2.771
 2971TIP3    H1 8919   6.251   0.167   2.837
 2971TIP3    H2 8920   6.386   0.147   2.772
 2972TIP3   OH2 8921   0.759   5.713   1.774
 2972TIP3    H1 8922   0.729   5.783   1.832
 2972TIP3    H2 8923   0.784   5.758   1.694
 2973TIP3   OH2 8924   0.020   0.849   2.048
 2973TIP3    H1 8925   0.096   0.801   2.083
 2973TIP3    H2 8926   0.050   0.882   1.963
 2974TIP3   OH2 8927   0.729   1.667   3.270
 2974TIP3    H1 8928   0.743   1.762   3.274
 2974TIP3    H2 8929   0.637   1.658   3.247
 2975TIP3   OH2 8930   2.235   2.609   0.225
 2975TIP3    H1 8931   2.266   2.696   0.249
 2975TIP3    H2 8932   2.307   2.570   0.176
 2976TIP3   OH2 8933   5.163   5.126   0.460
 2976TIP3    H1 8934   5.201   5.169   0.537
 2976TIP3    H2 8935   5.090   5.075   0.495
 2977TIP3   OH2 8936   1.980   4.765   0.556
 2977TIP3    H1 8937   2.010   4.750   0.466
 2977TIP3    H2 8938   1.980   4.678   0.596
 2978TIP3   OH2 8939   5.034   0.166   1.881
 2978TIP3    H1 8940   4.973   0.122   1.822
 2978TIP3    H2 8941   4.987   0.173   1.964
 2979TIP3   OH2 8942   0.879   5.786   0.504
 2979TIP3    H1 8943   0.816   5.808   0.436
 2979TIP3    H2 8944   0.827   5.744   0.572
 2980TIP3   OH2 8945   0.806   2.901   4.210
 2980TIP3    H1 8946   0.720   2.940   4.192
 2980TIP3    H2 8947   0.807   2.888   4.305
 2981TIP3   OH2 8948   5.232   3.694   1.690
 2981TIP3    H1 8949   5.239   3.598   1.697
 2981TIP3    H2 8950   5.150   3.715   1.733
 2982TIP3   OH2 8951   0.773   5.894   1.555
 2982TIP3    H1 8952   0.858   5.936   1.566
 2982TIP3    H2 8953   0.768   5.874   1.461
 2983TIP3   OH2 8954   4.874   4.844   0.122
 2983TIP3    H1 8955   4.865   4.759   0.079
 2983TIP3    H2 8956   4.951   4.834   0.178
 2984TIP3   OH2 8957   0.171   3.651   4.297
 2984TIP3    H1 8958   0.263   3.630   4.310
 2984TIP3    H2 8959   0.126   3.566   4.296
 2985TIP3   OH2 8960   4.680   5.198   4.877
 2985TIP3    H1 8961   4.701   5.176   4.786
 2985TIP3    H2 8962   4.715   5.125   4.928
 2986TIP3   OH2 8963   1.688   2.493   0.225
 2986TIP3    H1 8964   1.619   2.558   0.213
 2986TIP3    H2 8965   1.765   2.531   0.183
 2987TIP3   OH2 8966   4.391   4.664   3.195
 2987TIP3    H1 8967   4.449   4.688   3.267
 2987TIP3    H2 8968   4.303   4.667   3.233
 2988TIP3   OH2 8969   6.217   4.427   2.899
 2988TIP3    H1 8970   6.272   4.456   2.826
 2988TIP3    H2 8971   6.230   4.332   2.903
 2989TIP3   OH2 8972   3.133   3.087   1.672
 2989TIP3    H1 8973   3.127   3.158   1.608
 2989TIP3    H2 8974   3.049   3.089   1.718
 2990TIP3   OH2 8975   5.541   3.116   0.209
 2990TIP3    H1 8976   5.609   3.173   0.244
 2990TIP3    H2 8977   5.459   3.152   0.244
 2991TIP3   OH2 8978   1.389   1.697   0.446
 2991TIP3    H1 8979   1.340   1.758   0.391
 2991TIP3    H2 8980   1.385   1.614   0.399
 2992TIP3   OH2 8981   4.945   2.336   2.232
 2992TIP3    H1 8982   5.016   2.344   2.169
 2992TIP3    H2 8983   4.968   2.398   2.302
 2993TIP3   OH2 8984   5.627   0.680   3.628
 2993TIP3    H1 8985   5.655   0.594   3.595
 2993TIP3    H2 8986   5.576   0.717   3.557
 2994TIP3   OH2 8987   3.152   3.410   1.342
 2994TIP3    H1 8988   3.136   3.426   1.250
 2994TIP3    H2 8989   3.066   3.412   1.383
 2995TIP3   OH2 8990   1.351   3.745   4.964
 2995TIP3    H1 8991   1.433   3.753   5.012
 2995TIP3    H2 8992   1.286   3.785   5.022
 2996TIP3   OH2 8993   5.262   0.033   4.970
 2996TIP3    H1 8994   5.178   0.052   4.928
 2996TIP3    H2 8995   5.322   0.097   4.933
 2997TIP3   OH2 8996   1.901   1.232   4.325
 2997TIP3    H1 8997   1.932   1.142   4.334
 2997TIP3    H2 8998   1.952   1.282   4.388
 2998TIP3   OH2 8999   5.701   4.301   5.026
 2998TIP3    H1 9000   5.651   4.333   4.951
 2998TIP3    H2 9001   5.715   4.379   5.080
 2999TIP3   OH2 9002   5.495   0.451   0.309
 2999TIP3    H1 9003   5.575   0.493   0.279
 2999TIP3    H2 9004   5.522   0.363   0.336
 3000TIP3   OH2 9005   4.298   5.028   3.756
 3000TIP3    H1 9006   4.206   5.054   3.763
 3000TIP3    H2 9007   4.303   4.942   3.798
 3001TIP3   OH2 9008   4.295   2.176   2.810
 3001TIP3    H1 9009   4.251   2.251   2.850
 3001TIP3    H2 9010   4.226   2.129   2.764
 3002TIP3   OH2 9011   6.168   0.254   0.114
 3002TIP3    H1 9012   6.122   0.256   0.030
 3002TIP3    H2 9013   6.120   0.190   0.166
 3003TIP3   OH2 9014   5.118   4.999   4.798
 3003TIP3    H1 9015   5.163   5.055   4.861
 3003TIP3    H2 9016   5.054   5.057   4.756
 3004TIP3   OH2 9017   0.914   4.305   4.595
 3004TIP3    H1 9018   0.996   4.327   4.639
 3004TIP3    H2 9019   0.878   4.390   4.568
 3005TIP3   OH2 9020   5.901   4.098   3.765
 3005TIP3    H1 9021   5.965   4.072   3.700
 3005TIP3    H2 9022   5.945   4.167   3.816
 3006TIP3   OH2 9023   3.697   1.534   1.774
 3006TIP3    H1 9024   3.775   1.529   1.719
 3006TIP3    H2 9025   3.652   1.613   1.746
 3007TIP3   OH2 9026   6.287   3.778   4.372
 3007TIP3    H1 9027   6.305   3.833   4.449
 3007TIP3    H2 9028   6.369   3.777   4.323
 3008TIP3   OH2 9029   2.752   5.478   4.639
 3008TIP3    H1 9030   2.793   5.561   4.615
 3008TIP3    H2 9031   2.686   5.503   4.705
 3009TIP3   OH2 9032   1.653   4.034   0.233
 3009TIP3    H1 9033   1.701   4.084   0.167
 3009TIP3    H2 9034   1.696   4.056   0.316
 3010TIP3   OH2 9035   5.330   1.587   1.261
 3010TIP3    H1 9036   5.397   1.651   1.235
 3010TIP3    H2 9037   5.373   1.502   1.253
 3011TIP3   OH2 9038   3.674   0.296   0.348
 3011TIP3    H1 9039   3.751   0.268   0.298
 3011TIP3    H2 9040   3.668   0.390   0.332
 3012TIP3   OH2 9041   0.961   2.681   3.522
 3012TIP3    H1 9042   1.041   2.727   3.551
 3012TIP3    H2 9043   0.950   2.610   3.585
 3013TIP3   OH2 9044   5.925   4.693   3.251
 3013TIP3    H1 9045   5.902   4.777   3.212
 3013TIP3    H2 9046   5.978   4.649   3.185
 3014TIP3   OH2 9047   4.800   0.149   0.823
 3014TIP3    H1 9048   4.745   0.132   0.746
 3014TIP3    H2 9049   4.889   0.136   0.791
 3015TIP3   OH2 9050   0.952   5.656   1.938
 3015TIP3    H1 9051   0.900   5.687   1.864
 3015TIP3    H2 9052   0.890   5.649   2.011
 3016TIP3   OH2 9053   0.687   5.937   1.993
 3016TIP3    H1 9054   0.751   5.923   2.062
 3016TIP3    H2 9055   0.602   5.917   2.034
 3017TIP3   OH2 9056   1.788   1.328   0.214
 3017TIP3    H1 9057   1.773   1.422   0.205
 3017TIP3    H2 9058   1.702   1.288   0.199
 3018TIP3   OH2 9059   5.843   2.718   3.237
 3018TIP3    H1 9060   5.879   2.680   3.157
 3018TIP3    H2 9061   5.750   2.697   3.234
 3019TIP3   OH2 9062   4.010   5.759   2.133
 3019TIP3    H1 9063   3.975   5.699   2.199
 3019TIP3    H2 9064   4.034   5.703   2.059
 3020TIP3   OH2 9065   4.110   2.416   0.553
 3020TIP3    H1 9066   4.169   2.387   0.623
 3020TIP3    H2 9067   4.169   2.447   0.484
 3021TIP3   OH2 9068   1.543   3.879  -0.022
 3021TIP3    H1 9069   1.632   3.862  -0.052
 3021TIP3    H2 9070   1.552   3.894   0.073
 3022TIP3   OH2 9071   5.411   3.489   1.520
 3022TIP3    H1 9072   5.471   3.563   1.531
 3022TIP3    H2 9073   5.324   3.526   1.534
 3023TIP3   OH2 9074   4.503   2.723   0.647
 3023TIP3    H1 9075   4.538   2.708   0.559
 3023TIP3    H2 9076   4.486   2.636   0.681
 3024TIP3   OH2 9077   1.662   0.756   2.847
 3024TIP3    H1 9078   1.597   0.754   2.777
 3024TIP3    H2 9079   1.642   0.679   2.901
 3025TIP3   OH2 9080   0.409   3.130   4.867
 3025TIP3    H1 9081   0.487   3.175   4.835
 3025TIP3    H2 9082   0.426   3.115   4.960
 3026TIP3   OH2 9083   5.812   4.589   0.119
 3026TIP3    H1 9084   5.859   4.652   0.173
 3026TIP3    H2 9085   5.720   4.613   0.129
 3027TIP3   OH2 9086   0.901   2.202   0.978
 3027TIP3    H1 9087   0.922   2.135   1.044
 3027TIP3    H2 9088   0.983   2.214   0.930
 3028TIP3   OH2 9089   3.969   1.052   0.099
 3028TIP3    H1 9090   3.936   0.962   0.104
 3028TIP3    H2 9091   4.031   1.059   0.172
 3029TIP3   OH2 9092   1.750   4.842   3.498
 3029TIP3    H1 9093   1.766   4.864   3.590
 3029TIP3    H2 9094   1.657   4.818   3.495
 3030TIP3   OH2 9095   5.040   2.094   2.306
 3030TIP3    H1 9096   4.974   2.028   2.288
 3030TIP3    H2 9097   5.010   2.172   2.259
 3031TIP3   OH2 9098   3.276   3.338   3.308
 3031TIP3    H1 9099   3.245   3.249   3.290
 3031TIP3    H2 9100   3.305   3.370   3.222
 3032TIP3   OH2 9101   3.536   3.027   2.117
 3032TIP3    H1 9102   3.614   3.081   2.132
 3032TIP3    H2 9103   3.482   3.040   2.195
 3033TIP3   OH2 9104   4.858   1.888   2.214
 3033TIP3    H1 9105   4.803   1.928   2.147
 3033TIP3    H2 9106   4.930   1.848   2.166
 3034TIP3   OH2 9107   0.027   1.114   0.146
 3034TIP3    H1 9108  -0.053   1.142   0.101
 3034TIP3    H2 9109   0.071   1.057   0.083
 3035TIP3   OH2 9110   5.052   0.561   4.824
 3035TIP3    H1 9111   4.996   0.626   4.781
 3035TIP3    H2 9112   5.127   0.611   4.855
 3036TIP3   OH2 9113   1.779   3.980   2.132
 3036TIP3    H1 9114   1.834   3.937   2.197
 3036TIP3    H2 9115   1.840   4.032   2.080
 3037TIP3   OH2 9116   5.284   4.456   1.905
 3037TIP3    H1 9117   5.189   4.465   1.892
 3037TIP3    H2 9118   5.301   4.362   1.896
 3038TIP3   OH2 9119   6.236   0.997   3.989
 3038TIP3    H1 9120   6.258   0.945   4.067
 3038TIP3    H2 9121   6.320   1.026   3.955
 3039TIP3   OH2 9122   4.256   4.664   4.868
 3039TIP3    H1 9123   4.161   4.661   4.860
 3039TIP3    H2 9124   4.278   4.757   4.867
 3040TIP3   OH2 9125   0.242   5.728   0.035
 3040TIP3    H1 9126   0.294   5.648   0.030
 3040TIP3    H2 9127   0.182   5.713   0.108
 3041TIP3   OH2 9128   5.598   2.948   1.213
 3041TIP3    H1 9129   5.587   2.912   1.125
 3041TIP3    H2 9130   5.661   3.019   1.203
 3042TIP3   OH2 9131   0.082   3.059   4.523
 3042TIP3    H1 9132   0.015   3.123   4.499
 3042TIP3    H2 9133   0.112   3.087   4.610
 3043TIP3   OH2 9134   1.938   5.600   0.598
 3043TIP3    H1 9135   2.033   5.585   0.602
 3043TIP3    H2 9136   1.929   5.690   0.566
 3044TIP3   OH2 9137   6.241   2.265   1.397
 3044TIP3    H1 9138   6.223   2.227   1.310
 3044TIP3    H2 9139   6.208   2.199   1.458
 3045TIP3   OH2 9140   5.803   1.984   2.510
 3045TIP3    H1 9141   5.735   1.952   2.451
 3045TIP3    H2 9142   5.785   2.077   2.519
 3046TIP3   OH2 9143   2.579   1.427   2.415
 3046TIP3    H1 9144   2.604   1.446   2.325
 3046TIP3    H2 9145   2.660   1.400   2.458
 3047TIP3   OH2 9146   2.161   1.779   2.928
 3047TIP3    H1 9147   2.201   1.805   3.010
 3047TIP3    H2 9148   2.072   1.754   2.951
 3048TIP3   OH2 9149   4.276   0.203   1.404
 3048TIP3    H1 9150   4.306   0.200   1.495
 3048TIP3    H2 9151   4.266   0.297   1.386
 3049TIP3   OH2 9152   4.408   3.244   4.673
 3049TIP3    H1 9153   4.441   3.175   4.731
 3049TIP3    H2 9154   4.486   3.290   4.644
 3050TIP3   OH2 9155   1.096   0.692   1.846
 3050TIP3    H1 9156   1.060   0.740   1.771
 3050TIP3    H2 9157   1.181   0.733   1.863
 3051TIP3   OH2 9158   1.856   2.623   1.411
 3051TIP3    H1 9159   1.787   2.689   1.415
 3051TIP3    H2 9160   1.809   2.539   1.411
 3052TIP3   OH2 9161   0.610   3.913   4.345
 3052TIP3    H1 9162   0.560   3.983   4.303
 3052TIP3    H2 9163   0.650   3.956   4.421
 3053TIP3   OH2 9164   1.691   1.243   3.378
 3053TIP3    H1 9165   1.773   1.201   3.352
 3053TIP3    H2 9166   1.631   1.228   3.305
 3054TIP3   OH2 9167   3.128   1.042   5.242
 3054TIP3    H1 9168   3.146   0.968   5.184
 3054TIP3    H2 9169   3.080   1.104   5.188
 3055TIP3   OH2 9170   1.311   2.884   0.192
 3055TIP3    H1 9171   1.218   2.864   0.177
 3055TIP3    H2 9172   1.342   2.812   0.246
 3056TIP3   OH2 9173   5.619   0.870   0.649
 3056TIP3    H1 9174   5.530   0.892   0.620
 3056TIP3    H2 9175   5.647   0.800   0.589
 3057TIP3   OH2 9176   0.731   2.754   1.040
 3057TIP3    H1 9177   0.758   2.770   0.950
 3057TIP3    H2 9178   0.685   2.833   1.067
 3058TIP3   OH2 9179   3.297   0.901   3.484
 3058TIP3    H1 9180   3.294   0.992   3.455
 3058TIP3    H2 9181   3.209   0.883   3.518
 3059TIP3   OH2 9182   5.074   5.270   1.258
 3059TIP3    H1 9183   5.118   5.186   1.277
 3059TIP3    H2 9184   5.146   5.329   1.237
 3060TIP3   OH2 9185   4.625   3.300   2.765
 3060TIP3    H1 9186   4.591   3.263   2.846
 3060TIP3    H2 9187   4.591   3.389   2.763
 3061TIP3   OH2 9188   6.274   4.629   5.023
 3061TIP3    H1 9189   6.183   4.603   5.011
 3061TIP3    H2 9190   6.295   4.602   5.113
 3062TIP3   OH2 9191   0.376   1.704   4.034
 3062TIP3    H1 9192   0.410   1.778   3.983
 3062TIP3    H2 9193   0.282   1.721   4.041
 3063TIP3   OH2 9194   5.985   0.719   1.629
 3063TIP3    H1 9195   6.029   0.801   1.607
 3063TIP3    H2 9196   5.934   0.741   1.708
 3064TIP3   OH2 9197   4.768   0.437   0.949
 3064TIP3    H1 9198   4.678   0.408   0.932
 3064TIP3    H2 9199   4.822   0.360   0.932
 3065TIP3   OH2 9200   6.266   2.048   2.734
 3065TIP3    H1 9201   6.232   2.138   2.724
 3065TIP3    H2 9202   6.255   2.028   2.827
 3066TIP3   OH2 9203   1.757   2.527   4.105
 3066TIP3    H1 9204   1.745   2.445   4.058
 3066TIP3    H2 9205   1.755   2.503   4.197
 3067TIP3   OH2 9206   1.895   5.247   5.003
 3067TIP3    H1 9207   1.852   5.165   4.979
 3067TIP3    H2 9208   1.856   5.312   4.944
 3068TIP3   OH2 9209   5.657   4.583   1.119
 3068TIP3    H1 9210   5.629   4.622   1.202
 3068TIP3    H2 9211   5.624   4.493   1.123
 3069TIP3   OH2 9212   0.684   4.163   3.134
 3069TIP3    H1 9213   0.732   4.244   3.148
 3069TIP3    H2 9214   0.689   4.118   3.219
 3070TIP3   OH2 9215   0.873   0.439   4.654
 3070TIP3    H1 9216   0.812   0.501   4.693
 3070TIP3    H2 9217   0.957   0.458   4.696
 3071TIP3   OH2 9218   4.263   5.803   2.418
 3071TIP3    H1 9219   4.214   5.862   2.476
 3071TIP3    H2 9220   4.304   5.861   2.354
 3072TIP3   OH2 9221   0.149   2.678   1.366
 3072TIP3    H1 9222   0.194   2.739   1.307
 3072TIP3    H2 9223   0.204   2.600   1.365
 3073TIP3   OH2 9224   3.239   1.044   1.595
 3073TIP3    H1 9225   3.195   1.124   1.623
 3073TIP3    H2 9226   3.294   1.019   1.670
 3074TIP3   OH2 9227   2.192   2.379   1.949
 3074TIP3    H1 9228   2.264   2.442   1.953
 3074TIP3    H2 9229   2.207   2.331   1.868
 3075TIP3   OH2 9230   3.448   2.680   0.244
 3075TIP3    H1 9231   3.522   2.620   0.246
 3075TIP3    H2 9232   3.475   2.750   0.185
 3076TIP3   OH2 9233   5.086   5.965   1.900
 3076TIP3    H1 9234   5.032   5.893   1.867
 3076TIP3    H2 9235   5.133   5.927   1.975
 3077TIP3   OH2 9236   2.810   4.231   2.150
 3077TIP3    H1 9237   2.904   4.229   2.168
 3077TIP3    H2 9238   2.800   4.297   2.081
 3078TIP3   OH2 9239   3.536   4.726   3.901
 3078TIP3    H1 9240   3.594   4.666   3.854
 3078TIP3    H2 9241   3.584   4.808   3.904
 3079TIP3   OH2 9242   5.513   1.553   4.784
 3079TIP3    H1 9243   5.523   1.498   4.706
 3079TIP3    H2 9244   5.420   1.549   4.804
 3080TIP3   OH2 9245   1.427   4.125   3.952
 3080TIP3    H1 9246   1.372   4.056   3.988
 3080TIP3    H2 9247   1.442   4.185   4.025
 3081TIP3   OH2 9248   1.130   5.516   0.623
 3081TIP3    H1 9249   1.127   5.588   0.686
 3081TIP3    H2 9250   1.224   5.498   0.613
 3082TIP3   OH2 9251   1.640   2.952   4.076
 3082TIP3    H1 9252   1.545   2.942   4.088
 3082TIP3    H2 9253   1.661   3.035   4.119
 3083TIP3   OH2 9254   0.389   4.639   4.755
 3083TIP3    H1 9255   0.409   4.733   4.756
 3083TIP3    H2 9256   0.414   4.608   4.842
 3084TIP3   OH2 9257   6.234   2.115   4.321
 3084TIP3    H1 9258   6.228   2.036   4.266
 3084TIP3    H2 9259   6.219   2.188   4.261
 3085TIP3   OH2 9260   5.509   1.553   3.857
 3085TIP3    H1 9261   5.510   1.598   3.942
 3085TIP3    H2 9262   5.600   1.555   3.828
 3086TIP3   OH2 9263   1.899   3.181   3.064
 3086TIP3    H1 9264   1.834   3.131   3.112
 3086TIP3    H2 9265   1.942   3.116   3.007
 3087TIP3   OH2 9266   2.143   3.451   4.021
 3087TIP3    H1 9267   2.214   3.409   3.973
 3087TIP3    H2 9268   2.181   3.470   4.108
 3088TIP3   OH2 9269   0.404  -0.035   1.065
 3088TIP3    H1 9270   0.489  -0.013   1.029
 3088TIP3    H2 9271   0.380   0.042   1.118
 3089TIP3   OH2 9272   5.844   2.857   4.411
 3089TIP3    H1 9273   5.927   2.817   4.384
 3089TIP3    H2 9274   5.849   2.857   4.507
 3090TIP3   OH2 9275   3.785   5.266   1.173
 3090TIP3    H1 9276   3.805   5.352   1.137
 3090TIP3    H2 9277   3.717   5.231   1.115
 3091TIP3   OH2 9278   0.860   4.412   4.030
 3091TIP3    H1 9279   0.937   4.463   4.057
 3091TIP3    H2 9280   0.896   4.344   3.972
 3092TIP3   OH2 9281   4.432   2.249   1.330
 3092TIP3    H1 9282   4.504   2.195   1.298
 3092TIP3    H2 9283   4.356   2.219   1.282
 3093TIP3   OH2 9284   6.078   2.147   0.847
 3093TIP3    H1 9285   6.010   2.080   0.856
 3093TIP3    H2 9286   6.030   2.228   0.830
 3094TIP3   OH2 9287   5.707   1.391   1.153
 3094TIP3    H1 9288   5.752   1.419   1.233
 3094TIP3    H2 9289   5.668   1.306   1.175
 3095TIP3   OH2 9290   2.199   5.932   4.887
 3095TIP3    H1 9291   2.150   6.009   4.857
 3095TIP3    H2 9292   2.172   5.921   4.978
 3096TIP3   OH2 9293   3.202   2.579   2.268
 3096TIP3    H1 9294   3.125   2.523   2.269
 3096TIP3    H2 9295   3.275   2.521   2.244
 3097TIP3   OH2 9296   0.222   3.726   3.411
 3097TIP3    H1 9297   0.311   3.750   3.387
 3097TIP3    H2 9298   0.228   3.635   3.439
 3098TIP3   OH2 9299   3.429   4.539   3.367
 3098TIP3    H1 9300   3.356   4.594   3.394
 3098TIP3    H2 9301   3.457   4.576   3.283
 3099TIP3   OH2 9302   5.311   4.466   1.326
 3099TIP3    H1 9303   5.217   4.447   1.318
 3099TIP3    H2 9304   5.326   4.476   1.420
 3100TIP3   OH2 9305   2.817   1.511   2.117
 3100TIP3    H1 9306   2.848   1.448   2.052
 3100TIP3    H2 9307   2.881   1.505   2.189
 3101TIP3   OH2 9308   3.556   3.124   3.447
 3101TIP3    H1 9309   3.644   3.104   3.418
 3101TIP3    H2 9310   3.543   3.216   3.427
 3102TIP3   OH2 9311   4.534   2.752   1.375
 3102TIP3    H1 9312   4.623   2.733   1.344
 3102TIP3    H2 9313   4.540   2.743   1.470
 3103TIP3   OH2 9314   1.324   5.442   3.220
 3103TIP3    H1 9315   1.240   5.455   3.175
 3103TIP3    H2 9316   1.373   5.522   3.203
 3104TIP3   OH2 9317   6.126   2.793   3.580
 3104TIP3    H1 9318   6.042   2.749   3.592
 3104TIP3    H2 9319   6.104   2.876   3.538
 3105TIP3   OH2 9320   1.442   1.351   4.487
 3105TIP3    H1 9321   1.412   1.278   4.541
 3105TIP3    H2 9322   1.478   1.414   4.550
 3106TIP3   OH2 9323   5.254   2.022   2.498
 3106TIP3    H1 9324   5.198   2.041   2.422
 3106TIP3    H2 9325   5.325   2.087   2.492
 3107TIP3   OH2 9326   2.822   1.147   0.230
 3107TIP3    H1 9327   2.904   1.098   0.232
 3107TIP3    H2 9328   2.830   1.211   0.300
 3108TIP3   OH2 9329   6.186   3.304   2.298
 3108TIP3    H1 9330   6.253   3.372   2.295
 3108TIP3    H2 9331   6.103   3.351   2.288
 3109TIP3   OH2 9332   6.078   5.517   2.462
 3109TIP3    H1 9333   6.135   5.541   2.389
 3109TIP3    H2 9334   6.077   5.594   2.519
 3110TIP3   OH2 9335   2.215   4.408   4.223
 3110TIP3    H1 9336   2.290   4.467   4.208
 3110TIP3    H2 9337   2.233   4.333   4.167
 3111TIP3   OH2 9338   4.967   1.308   2.883
 3111TIP3    H1 9339   4.955   1.351   2.798
 3111TIP3    H2 9340   5.062   1.299   2.893
 3112TIP3   OH2 9341   2.042   5.895   2.681
 3112TIP3    H1 9342   2.045   5.802   2.700
 3112TIP3    H2 9343   2.085   5.937   2.755
 3113TIP3   OH2 9344   2.084   4.628   0.956
 3113TIP3    H1 9345   2.111   4.608   0.866
 3113TIP3    H2 9346   2.049   4.717   0.952
 3114TIP3   OH2 9347   2.913   2.648   4.477
 3114TIP3    H1 9348   2.946   2.627   4.389
 3114TIP3    H2 9349   2.832   2.597   4.484
 3115TIP3   OH2 9350   1.815   3.385   5.082
 3115TIP3    H1 9351   1.836   3.448   5.013
 3115TIP3    H2 9352   1.758   3.321   5.040
 3116TIP3   OH2 9353   3.169   3.682   1.657
 3116TIP3    H1 9354   3.125   3.761   1.688
 3116TIP3    H2 9355   3.262   3.703   1.660
 3117TIP3   OH2 9356   1.776   0.067   0.961
 3117TIP3    H1 9357   1.802  -0.023   0.980
 3117TIP3    H2 9358   1.756   0.104   1.048
 3118TIP3   OH2 9359   4.550   1.537   4.336
 3118TIP3    H1 9360   4.470   1.589   4.341
 3118TIP3    H2 9361   4.620   1.601   4.321
 3119TIP3   OH2 9362   0.096   2.592   4.416
 3119TIP3    H1 9363   0.071   2.684   4.410
 3119TIP3    H2 9364   0.031   2.553   4.476
 3120TIP3   OH2 9365   4.942   4.242   2.053
 3120TIP3    H1 9366   4.947   4.150   2.026
 3120TIP3    H2 9367   4.849   4.263   2.045
 3121TIP3   OH2 9368   2.922   5.689   1.478
 3121TIP3    H1 9369   2.931   5.693   1.383
 3121TIP3    H2 9370   3.011   5.692   1.512
 3122TIP3   OH2 9371   6.220   5.615   4.993
 3122TIP3    H1 9372   6.289   5.550   4.978
 3122TIP3    H2 9373   6.267   5.696   5.010
 3123TIP3   OH2 9374   5.782   1.606   3.835
 3123TIP3    H1 9375   5.758   1.618   3.927
 3123TIP3    H2 9376   5.876   1.589   3.837
 3124TIP3   OH2 9377   3.919   2.175   4.374
 3124TIP3    H1 9378   3.971   2.120   4.433
 3124TIP3    H2 9379   3.982   2.239   4.341
 3125TIP3   OH2 9380   2.402   4.254   1.326
 3125TIP3    H1 9381   2.436   4.194   1.392
 3125TIP3    H2 9382   2.394   4.200   1.247
 3126TIP3   OH2 9383   5.617   3.683   3.263
 3126TIP3    H1 9384   5.627   3.732   3.345
 3126TIP3    H2 9385   5.702   3.641   3.251
 3127TIP3   OH2 9386   1.033   2.684   0.806
 3127TIP3    H1 9387   0.957   2.728   0.770
 3127TIP3    H2 9388   1.058   2.737   0.882
 3128TIP3   OH2 9389   0.628   5.439   3.014
 3128TIP3    H1 9390   0.622   5.481   3.100
 3128TIP3    H2 9391   0.604   5.508   2.952
 3129TIP3   OH2 9392   0.829   4.036   2.459
 3129TIP3    H1 9393   0.776   4.116   2.455
 3129TIP3    H2 9394   0.911   4.065   2.499
 3130TIP3   OH2 9395   3.381   3.358   2.544
 3130TIP3    H1 9396   3.388   3.368   2.639
 3130TIP3    H2 9397   3.288   3.372   2.526
 3131TIP3   OH2 9398   2.403   1.166   3.880
 3131TIP3    H1 9399   2.484   1.128   3.914
 3131TIP3    H2 9400   2.382   1.112   3.803
 3132TIP3   OH2 9401   2.849   0.215   4.319
 3132TIP3    H1 9402   2.824   0.124   4.339
 3132TIP3    H2 9403   2.917   0.235   4.382
 3133TIP3   OH2 9404   0.826   1.905   0.049
 3133TIP3    H1 9405   0.827   1.855   0.131
 3133TIP3    H2 9406   0.767   1.856  -0.008
 3134TIP3   OH2 9407   3.883   3.360   2.255
 3134TIP3    H1 9408   3.871   3.454   2.243
 3134TIP3    H2 9409   3.848   3.342   2.342
 3135TIP3   OH2 9410   6.042   0.732   1.958
 3135TIP3    H1 9411   6.073   0.812   1.917
 3135TIP3    H2 9412   6.033   0.754   2.051
 3136TIP3   OH2 9413   3.839   5.547   4.605
 3136TIP3    H1 9414   3.799   5.603   4.671
 3136TIP3    H2 9415   3.841   5.460   4.645
 3137TIP3   OH2 9416   2.968   2.490   4.972
 3137TIP3    H1 9417   2.956   2.581   4.945
 3137TIP3    H2 9418   2.934   2.487   5.061
 3138TIP3   OH2 9419   4.955   0.848   4.733
 3138TIP3    H1 9420   4.886   0.887   4.680
 3138TIP3    H2 9421   4.913   0.831   4.818
 3139TIP3   OH2 9422   3.243   0.678   3.309
 3139TIP3    H1 9423   3.251   0.730   3.390
 3139TIP3    H2 9424   3.151   0.688   3.284
 3140TIP3   OH2 9425   0.096   4.471   4.709
 3140TIP3    H1 9426   0.181   4.497   4.745
 3140TIP3    H2 9427   0.080   4.383   4.744
 3141TIP3   OH2 9428   5.242   0.080   3.081
 3141TIP3    H1 9429   5.270   0.166   3.050
 3141TIP3    H2 9430   5.147   0.080   3.069
 3142TIP3   OH2 9431   3.247   3.651   4.281
 3142TIP3    H1 9432   3.280   3.669   4.192
 3142TIP3    H2 9433   3.223   3.737   4.315
 3143TIP3   OH2 9434   5.935   1.302   0.709
 3143TIP3    H1 9435   5.948   1.273   0.799
 3143TIP3    H2 9436   6.020   1.287   0.666
 3144TIP3   OH2 9437   3.327   0.075   4.296
 3144TIP3    H1 9438   3.300   0.167   4.295
 3144TIP3    H2 9439   3.350   0.057   4.387
 3145TIP3   OH2 9440   2.563   5.409   2.380
 3145TIP3    H1 9441   2.642   5.424   2.432
 3145TIP3    H2 9442   2.581   5.329   2.331
 3146TIP3   OH2 9443   3.050   1.563   1.283
 3146TIP3    H1 9444   2.992   1.635   1.257
 3146TIP3    H2 9445   3.106   1.601   1.351
 3147TIP3   OH2 9446   3.312   4.025   3.652
 3147TIP3    H1 9447   3.265   3.943   3.635
 3147TIP3    H2 9448   3.365   4.039   3.573
 3148TIP3   OH2 9449   6.186   1.186   0.780
 3148TIP3    H1 9450   6.265   1.218   0.736
 3148TIP3    H2 9451   6.209   1.097   0.808
 3149TIP3   OH2 9452   6.143   1.099   4.866
 3149TIP3    H1 9453   6.143   1.155   4.944
 3149TIP3    H2 9454   6.202   1.143   4.806
 3150TIP3   OH2 9455   0.703   4.869   1.597
 3150TIP3    H1 9456   0.784   4.819   1.595
 3150TIP3    H2 9457   0.655   4.835   1.673
 3151TIP3   OH2 9458   1.840   0.982   2.593
 3151TIP3    H1 9459   1.751   1.009   2.572
 3151TIP3    H2 9460   1.878   1.057   2.639
 3152TIP3   OH2 9461   0.207   4.082   2.100
 3152TIP3    H1 9462   0.111   4.084   2.096
 3152TIP3    H2 9463   0.230   3.989   2.101
 3153TIP3   OH2 9464   4.616   5.389   0.668
 3153TIP3    H1 9465   4.543   5.337   0.702
 3153TIP3    H2 9466   4.595   5.479   0.696
 3154TIP3   OH2 9467   4.611   0.882   2.020
 3154TIP3    H1 9468   4.614   0.818   2.091
 3154TIP3    H2 9469   4.703   0.907   2.005
 3155TIP3   OH2 9470   1.429   2.641   0.950
 3155TIP3    H1 9471   1.416   2.723   0.998
 3155TIP3    H2 9472   1.488   2.590   1.005
 3156TIP3   OH2 9473   4.586   1.573   4.756
 3156TIP3    H1 9474   4.493   1.554   4.771
 3156TIP3    H2 9475   4.597   1.663   4.784
 3157TIP3   OH2 9476   4.826   3.183   1.700
 3157TIP3    H1 9477   4.835   3.164   1.794
 3157TIP3    H2 9478   4.736   3.157   1.679
 3158TIP3   OH2 9479   2.753   0.879   3.062
 3158TIP3    H1 9480   2.766   0.830   2.981
 3158TIP3    H2 9481   2.693   0.949   3.038
 3159TIP3   OH2 9482   3.660   5.583   2.081
 3159TIP3    H1 9483   3.693   5.570   2.169
 3159TIP3    H2 9484   3.730   5.551   2.024
 3160TIP3   OH2 9485   1.745   3.230   2.047
 3160TIP3    H1 9486   1.718   3.322   2.038
 3160TIP3    H2 9487   1.664   3.183   2.068
 3161TIP3   OH2 9488   0.986   4.366   2.872
 3161TIP3    H1 9489   0.997   4.452   2.832
 3161TIP3    H2 9490   1.054   4.361   2.939
 3162TIP3   OH2 9491   5.443   2.808   0.953
 3162TIP3    H1 9492   5.369   2.843   1.001
 3162TIP3    H2 9493   5.500   2.883   0.938
 3163TIP3   OH2 9494   0.999   6.026   0.582
 3163TIP3    H1 9495   1.093   6.017   0.600
 3163TIP3    H2 9496   0.969   5.936   0.569
 3164TIP3   OH2 9497   3.762   1.830   1.090
 3164TIP3    H1 9498   3.779   1.761   1.154
 3164TIP3    H2 9499   3.689   1.880   1.126
 3165TIP3   OH2 9500   4.880   4.351   4.652
 3165TIP3    H1 9501   4.865   4.309   4.567
 3165TIP3    H2 9502   4.955   4.303   4.689
 3166TIP3   OH2 9503   4.893   3.060   3.516
 3166TIP3    H1 9504   4.868   3.024   3.601
 3166TIP3    H2 9505   4.930   3.145   3.536
 3167TIP3   OH2 9506   0.944   0.343   1.497
 3167TIP3    H1 9507   0.885   0.280   1.539
 3167TIP3    H2 9508   1.010   0.363   1.564
 3168TIP3   OH2 9509   2.314   3.811   3.886
 3168TIP3    H1 9510   2.395   3.849   3.919
 3168TIP3    H2 9511   2.283   3.873   3.820
 3169TIP3   OH2 9512   0.900   5.414   3.840
 3169TIP3    H1 9513   0.987   5.398   3.803
 3169TIP3    H2 9514   0.893   5.509   3.845
 3170TIP3   OH2 9515   1.680   5.351   2.218
 3170TIP3    H1 9516   1.695   5.427   2.274
 3170TIP3    H2 9517   1.615   5.381   2.154
 3171TIP3   OH2 9518   2.665   1.875   3.279
 3171TIP3    H1 9519   2.645   1.848   3.368
 3171TIP3    H2 9520   2.667   1.971   3.283
 3172TIP3   OH2 9521   3.282   4.547   3.077
 3172TIP3    H1 9522   3.280   4.500   2.993
 3172TIP3    H2 9523   3.362   4.599   3.074
 3173TIP3   OH2 9524   0.659   4.879   1.330
 3173TIP3    H1 9525   0.649   4.893   1.424
 3173TIP3    H2 9526   0.752   4.861   1.318
 3174TIP3   OH2 9527   3.588   0.307   2.950
 3174TIP3    H1 9528   3.671   0.259   2.943
 3174TIP3    H2 9529   3.614   0.399   2.945
 3175TIP3   OH2 9530   1.376   4.690   2.832
 3175TIP3    H1 9531   1.423   4.773   2.823
 3175TIP3    H2 9532   1.328   4.681   2.750
 3176TIP3   OH2 9533   4.715   2.265   3.054
 3176TIP3    H1 9534   4.648   2.295   2.993
 3176TIP3    H2 9535   4.724   2.171   3.035
 3177TIP3   OH2 9536   5.316   0.452   4.390
 3177TIP3    H1 9537   5.243   0.513   4.384
 3177TIP3    H2 9538   5.276   0.367   4.410
 3178TIP3   OH2 9539   4.788   0.995   4.582
 3178TIP3    H1 9540   4.714   0.997   4.522
 3178TIP3    H2 9541   4.855   1.048   4.540
 3179TIP3   OH2 9542   0.679   0.193   1.654
 3179TIP3    H1 9543   0.632   0.126   1.703
 3179TIP3    H2 9544   0.762   0.152   1.631
 3180TIP3   OH2 9545   6.130   5.614   4.701
 3180TIP3    H1 9546   6.121   5.665   4.621
 3180TIP3    H2 9547   6.213   5.643   4.739
 3181TIP3   OH2 9548   4.381   5.861   0.670
 3181TIP3    H1 9549   4.463   5.884   0.626
 3181TIP3    H2 9550   4.379   5.916   0.748
 3182TIP3   OH2 9551   2.450   0.468   0.223
 3182TIP3    H1 9552   2.372   0.523   0.224
 3182TIP3    H2 9553   2.518   0.521   0.264
 3183TIP3   OH2 9554   0.758   3.323   4.187
 3183TIP3    H1 9555   0.687   3.267   4.217
 3183TIP3    H2 9556   0.829   3.263   4.166
 3184TIP3   OH2 9557   3.396   1.349   0.719
 3184TIP3    H1 9558   3.464   1.282   0.719
 3184TIP3    H2 9559   3.317   1.303   0.690
 3185TIP3   OH2 9560   0.372   0.311   4.661
 3185TIP3    H1 9561   0.447   0.251   4.662
 3185TIP3    H2 9562   0.300   0.260   4.700
 3186TIP3   OH2 9563   5.227   4.915   5.128
 3186TIP3    H1 9564   5.137   4.937   5.150
 3186TIP3    H2 9565   5.260   4.869   5.205
 3187TIP3   OH2 9566   1.874   2.305   3.964
 3187TIP3    H1 9567   1.858   2.256   3.883
 3187TIP3    H2 9568   1.949   2.361   3.943
 3188TIP3   OH2 9569   3.273   4.233   3.831
 3188TIP3    H1 9570   3.325   4.199   3.903
 3188TIP3    H2 9571   3.317   4.202   3.752
 3189TIP3   OH2 9572   2.326   3.781   0.258
 3189TIP3    H1 9573   2.384   3.705   0.253
 3189TIP3    H2 9574   2.252   3.758   0.203
 3190TIP3   OH2 9575   1.522   1.732   1.390
 3190TIP3    H1 9576   1.503   1.815   1.435
 3190TIP3    H2 9577   1.564   1.759   1.308
 3191TIP3   OH2 9578   5.683   0.982   4.057
 3191TIP3    H1 9579   5.776   0.973   4.036
 3191TIP3    H2 9580   5.648   1.038   3.987
 3192TIP3   OH2 9581   1.950   5.308   1.994
 3192TIP3    H1 9582   1.891   5.292   1.920
 3192TIP3    H2 9583   1.892   5.313   2.070
 3193TIP3   OH2 9584   4.870   4.968   4.485
 3193TIP3    H1 9585   4.798   4.922   4.528
 3193TIP3    H2 9586   4.910   4.902   4.427
 3194TIP3   OH2 9587   0.913   1.220   4.157
 3194TIP3    H1 9588   0.945   1.236   4.069
 3194TIP3    H2 9589   0.989   1.185   4.204
 3195TIP3   OH2 9590   2.089   2.483   1.338
 3195TIP3    H1 9591   2.011   2.539   1.344
 3195TIP3    H2 9592   2.058   2.396   1.363
 3196TIP3   OH2 9593   2.685   0.736   1.007
 3196TIP3    H1 9594   2.628   0.770   1.076
 3196TIP3    H2 9595   2.770   0.776   1.024
 3197TIP3   OH2 9596   1.874   2.140   4.600
 3197TIP3    H1 9597   1.943   2.142   4.535
 3197TIP3    H2 9598   1.883   2.223   4.648
 3198TIP3   OH2 9599   1.323   2.023   0.573
 3198TIP3    H1 9600   1.397   2.083   0.578
 3198TIP3    H2 9601   1.246   2.081   0.569
 3199TIP3   OH2 9602   5.704   5.811   1.053
 3199TIP3    H1 9603   5.700   5.876   0.983
 3199TIP3    H2 9604   5.621   5.820   1.099
 3200TIP3   OH2 9605   3.098   5.783   2.542
 3200TIP3    H1 9606   3.147   5.750   2.618
 3200TIP3    H2 9607   3.143   5.746   2.467
 3201TIP3   OH2 9608   5.005   4.836   1.227
 3201TIP3    H1 9609   5.024   4.766   1.289
 3201TIP3    H2 9610   4.937   4.888   1.270
 3202TIP3   OH2 9611   2.833   3.988   2.765
 3202TIP3    H1 9612   2.764   3.971   2.830
 3202TIP3    H2 9613   2.912   3.951   2.804
 3203TIP3   OH2 9614   3.743   4.868   3.646
 3203TIP3    H1 9615   3.715   4.776   3.650
 3203TIP3    H2 9616   3.785   4.876   3.560
 3204TIP3   OH2 9617   5.168   3.231   4.576
 3204TIP3    H1 9618   5.088   3.250   4.528
 3204TIP3    H2 9619   5.189   3.141   4.554
 3205TIP3   OH2 9620   5.709   2.905   0.943
 3205TIP3    H1 9621   5.721   2.995   0.974
 3205TIP3    H2 9622   5.790   2.860   0.968
 3206TIP3   OH2 9623   4.450   3.573   3.358
 3206TIP3    H1 9624   4.530   3.534   3.323
 3206TIP3    H2 9625   4.462   3.569   3.453
 3207TIP3   OH2 9626   4.480   4.131   0.828
 3207TIP3    H1 9627   4.508   4.059   0.884
 3207TIP3    H2 9628   4.531   4.206   0.859
 3208TIP3   OH2 9629   5.135   5.177   0.108
 3208TIP3    H1 9630   5.207   5.238   0.128
 3208TIP3    H2 9631   5.178   5.092   0.098
 3209TIP3   OH2 9632   4.991   1.043   4.018
 3209TIP3    H1 9633   5.077   1.081   4.003
 3209TIP3    H2 9634   4.999   0.951   3.992
 3210TIP3   OH2 9635   2.635   4.606   0.440
 3210TIP3    H1 9636   2.618   4.539   0.374
 3210TIP3    H2 9637   2.697   4.666   0.398
 3211TIP3   OH2 9638   0.762   1.993   4.593
 3211TIP3    H1 9639   0.702   1.980   4.666
 3211TIP3    H2 9640   0.720   1.949   4.519
 3212TIP3   OH2 9641   3.487   4.559   2.021
 3212TIP3    H1 9642   3.549   4.492   1.991
 3212TIP3    H2 9643   3.533   4.604   2.092
 3213TIP3   OH2 9644   3.606   4.982   1.867
 3213TIP3    H1 9645   3.595   4.893   1.835
 3213TIP3    H2 9646   3.532   4.996   1.926
 3214TIP3   OH2 9647   5.125   2.804   3.090
 3214TIP3    H1 9648   5.102   2.814   3.182
 3214TIP3    H2 9649   5.065   2.862   3.043
 3215TIP3   OH2 9650   4.043   3.535   0.076
 3215TIP3    H1 9651   4.112   3.536   0.010
 3215TIP3    H2 9652   3.962   3.543   0.027
 3216TIP3   OH2 9653   2.871   0.839   1.305
 3216TIP3    H1 9654   2.934   0.776   1.270
 3216TIP3    H2 9655   2.865   0.906   1.237
 3217TIP3   OH2 9656   1.346   3.668   1.017
 3217TIP3    H1 9657   1.298   3.706   1.091
 3217TIP3    H2 9658   1.310   3.712   0.940
 3218TIP3   OH2 9659   2.696   1.040   4.256
 3218TIP3    H1 9660   2.757   1.054   4.329
 3218TIP3    H2 9661   2.627   0.984   4.292
 3219TIP3   OH2 9662   3.604   0.075   0.474
 3219TIP3    H1 9663   3.611   0.038   0.385
 3219TIP3    H2 9664   3.594   0.170   0.459
 3220TIP3   OH2 9665   0.779   1.980   3.931
 3220TIP3    H1 9666   0.828   2.008   4.008
 3220TIP3    H2 9667   0.811   1.891   3.914
 3221TIP3   OH2 9668   5.609   2.974   3.915
 3221TIP3    H1 9669   5.659   3.022   3.849
 3221TIP3    H2 9670   5.541   3.035   3.942
 3222TIP3   OH2 9671   4.985   5.679   3.367
 3222TIP3    H1 9672   4.979   5.601   3.313
 3222TIP3    H2 9673   4.903   5.726   3.352
 3223TIP3   OH2 9674   6.057   0.188   4.146
 3223TIP3    H1 9675   6.127   0.122   4.152
 3223TIP3    H2 9676   6.086   0.259   4.202
 3224TIP3   OH2 9677   5.844   1.098   1.152
 3224TIP3    H1 9678   5.875   1.185   1.128
 3224TIP3    H2 9679   5.824   1.056   1.068
 3225TIP3   OH2 9680   3.775   0.142   1.819
 3225TIP3    H1 9681   3.766   0.234   1.796
 3225TIP3    H2 9682   3.719   0.131   1.896
 3226TIP3   OH2 9683   1.573   1.146   3.157
 3226TIP3    H1 9684   1.637   1.132   3.087
 3226TIP3    H2 9685   1.499   1.091   3.132
 3227TIP3   OH2 9686   5.994   1.427   4.703
 3227TIP3    H1 9687   6.081   1.422   4.741
 3227TIP3    H2 9688   5.936   1.442   4.777
 3228TIP3   OH2 9689   2.619   0.453   0.457
 3228TIP3    H1 9690   2.617   0.357   0.451
 3228TIP3    H2 9691   2.546   0.474   0.515
 3229TIP3   OH2 9692   1.588   3.244   2.349
 3229TIP3    H1 9693   1.516   3.225   2.288
 3229TIP3    H2 9694   1.549   3.232   2.436
 3230TIP3   OH2 9695   4.251   3.811   0.225
 3230TIP3    H1 9696   4.215   3.895   0.254
 3230TIP3    H2 9697   4.193   3.745   0.262
 3231TIP3   OH2 9698   0.650   5.174   2.972
 3231TIP3    H1 9699   0.735   5.137   2.997
 3231TIP3    H2 9700   0.661   5.268   2.986
 3232TIP3   OH2 9701   4.054   4.602   2.990
 3232TIP3    H1 9702   3.991   4.552   2.938
 3232TIP3    H2 9703   4.098   4.537   3.044
 3233TIP3   OH2 9704   5.150   4.716   0.644
 3233TIP3    H1 9705   5.082   4.783   0.647
 3233TIP3    H2 9706   5.156   4.683   0.734
 3234TIP3   OH2 9707   4.129   4.021   0.352
 3234TIP3    H1 9708   4.108   4.026   0.445
 3234TIP3    H2 9709   4.166   4.106   0.330
 3235TIP3   OH2 9710   2.302   5.057   0.214
 3235TIP3    H1 9711   2.393   5.042   0.237
 3235TIP3    H2 9712   2.269   4.970   0.191
 3236TIP3   OH2 9713   6.312   5.135   2.315
 3236TIP3    H1 9714   6.399   5.105   2.340
 3236TIP3    H2 9715   6.314   5.230   2.331
 3237TIP3   OH2 9716   0.088   5.965   0.850
 3237TIP3    H1 9717  -0.004   5.985   0.828
 3237TIP3    H2 9718   0.094   5.870   0.841
 3238TIP3   OH2 9719   5.306   1.925   2.748
 3238TIP3    H1 9720   5.255   1.849   2.775
 3238TIP3    H2 9721   5.280   1.941   2.658
 3239TIP3   OH2 9722   1.908   2.397   0.665
 3239TIP3    H1 9723   1.842   2.383   0.733
 3239TIP3    H2 9724   1.945   2.310   0.649
 3240TIP3   OH2 9725   1.366   5.569   4.686
 3240TIP3    H1 9726   1.349   5.649   4.737
 3240TIP3    H2 9727   1.278   5.534   4.669
 3241TIP3   OH2 9728   2.322   3.018   2.909
 3241TIP3    H1 9729   2.390   3.083   2.928
 3241TIP3    H2 9730   2.364   2.955   2.851
 3242TIP3   OH2 9731   5.335   1.555   0.842
 3242TIP3    H1 9732   5.363   1.497   0.771
 3242TIP3    H2 9733   5.263   1.605   0.804
 3243TIP3   OH2 9734   2.112   4.643   0.322
 3243TIP3    H1 9735   2.176   4.628   0.392
 3243TIP3    H2 9736   2.114   4.563   0.269
 3244TIP3   OH2 9737   3.941   4.874   0.642
 3244TIP3    H1 9738   3.932   4.968   0.657
 3244TIP3    H2 9739   4.021   4.850   0.688
 3245TIP3   OH2 9740   2.176   2.965   3.230
 3245TIP3    H1 9741   2.212   2.876   3.238
 3245TIP3    H2 9742   2.126   2.963   3.148
 3246TIP3   OH2 9743   2.419   3.647   1.972
 3246TIP3    H1 9744   2.509   3.647   2.004
 3246TIP3    H2 9745   2.423   3.690   1.886
 3247TIP3   OH2 9746   3.679   1.464   1.450
 3247TIP3    H1 9747   3.711   1.403   1.384
 3247TIP3    H2 9748   3.657   1.409   1.525
 3248TIP3   OH2 9749   4.394   5.195   1.473
 3248TIP3    H1 9750   4.335   5.203   1.398
 3248TIP3    H2 9751   4.359   5.256   1.537
 3249TIP3   OH2 9752   0.494   5.266   0.567
 3249TIP3    H1 9753   0.456   5.352   0.587
 3249TIP3    H2 9754   0.579   5.266   0.612
 3250TIP3   OH2 9755   2.156   4.627   1.235
 3250TIP3    H1 9756   2.087   4.566   1.259
 3250TIP3    H2 9757   2.149   4.635   1.140
 3251TIP3   OH2 9758   2.385   0.785  -0.019
 3251TIP3    H1 9759   2.343   0.834   0.051
 3251TIP3    H2 9760   2.478   0.807  -0.012
 3252TIP3   OH2 9761   5.200   2.380   3.449
 3252TIP3    H1 9762   5.204   2.324   3.371
 3252TIP3    H2 9763   5.232   2.465   3.420
 3253TIP3   OH2 9764   1.328   1.334   0.820
 3253TIP3    H1 9765   1.373   1.284   0.752
 3253TIP3    H2 9766   1.354   1.292   0.902
 3254TIP3   OH2 9767   5.549   2.780   0.475
 3254TIP3    H1 9768   5.627   2.790   0.529
 3254TIP3    H2 9769   5.476   2.786   0.536
 3255TIP3   OH2 9770   2.878   1.485   2.445
 3255TIP3    H1 9771   2.847   1.562   2.492
 3255TIP3    H2 9772   2.954   1.515   2.395
 3256TIP3   OH2 9773   0.982   3.265   4.809
 3256TIP3    H1 9774   1.019   3.342   4.854
 3256TIP3    H2 9775   0.925   3.302   4.742
 3257TIP3   OH2 9776   2.848   0.108   2.985
 3257TIP3    H1 9777   2.795   0.184   3.005
 3257TIP3    H2 9778   2.851   0.105   2.889
 3258TIP3   OH2 9779   3.247   4.419   1.752
 3258TIP3    H1 9780   3.294   4.397   1.671
 3258TIP3    H2 9781   3.248   4.338   1.802
 3259TIP3   OH2 9782   3.971   2.529   2.154
 3259TIP3    H1 9783   4.020   2.574   2.085
 3259TIP3    H2 9784   3.935   2.600   2.208
 3260TIP3   OH2 9785   3.096   2.490   3.116
 3260TIP3    H1 9786   3.147   2.498   3.197
 3260TIP3    H2 9787   3.009   2.463   3.145
 3261TIP3   OH2 9788   2.306   5.921   0.519
 3261TIP3    H1 9789   2.214   5.904   0.535
 3261TIP3    H2 9790   2.352   5.848   0.561
 3262TIP3   OH2 9791   2.302   1.561   2.884
 3262TIP3    H1 9792   2.266   1.643   2.920
 3262TIP3    H2 9793   2.224   1.509   2.862
 3263TIP3   OH2 9794   3.039   5.604   0.596
 3263TIP3    H1 9795   3.114   5.569   0.548
 3263TIP3    H2 9796   3.075   5.637   0.678
 3264TIP3   OH2 9797   4.032   5.963   0.791
 3264TIP3    H1 9798   4.029   6.004   0.704
 3264TIP3    H2 9799   4.032   6.037   0.852
 3265TIP3   OH2 9800   4.807   2.735   1.609
 3265TIP3    H1 9801   4.811   2.651   1.563
 3265TIP3    H2 9802   4.894   2.744   1.649
 3266TIP3   OH2 9803   4.440   0.890   4.694
 3266TIP3    H1 9804   4.470   0.826   4.629
 3266TIP3    H2 9805   4.466   0.975   4.658
 3267TIP3   OH2 9806   2.955   1.307   1.982
 3267TIP3    H1 9807   3.028   1.271   2.033
 3267TIP3    H2 9808   2.950   1.252   1.904
 3268TIP3   OH2 9809   6.159   5.955   2.755
 3268TIP3    H1 9810   6.089   6.005   2.713
 3268TIP3    H2 9811   6.126   5.937   2.843
 3269TIP3   OH2 9812   4.392   1.456   3.490
 3269TIP3    H1 9813   4.308   1.415   3.507
 3269TIP3    H2 9814   4.398   1.526   3.554
 3270TIP3   OH2 9815   4.999   4.538   1.887
 3270TIP3    H1 9816   5.009   4.546   1.982
 3270TIP3    H2 9817   4.964   4.623   1.860
 3271TIP3   OH2 9818   0.167   0.096   4.414
 3271TIP3    H1 9819   0.243   0.111   4.358
 3271TIP3    H2 9820   0.189   0.140   4.496
 3272TIP3   OH2 9821   2.497   0.283   4.792
 3272TIP3    H1 9822   2.509   0.314   4.882
 3272TIP3    H2 9823   2.585   0.268   4.760
 3273TIP3   OH2 9824   4.287   2.263   0.764
 3273TIP3    H1 9825   4.262   2.203   0.833
 3273TIP3    H2 9826   4.305   2.207   0.688
 3274TIP3   OH2 9827   2.588   3.969   0.930
 3274TIP3    H1 9828   2.534   3.956   1.008
 3274TIP3    H2 9829   2.673   3.932   0.953
 3275TIP3   OH2 9830   4.919   1.441   4.252
 3275TIP3    H1 9831   4.859   1.377   4.213
 3275TIP3    H2 9832   4.943   1.498   4.179
 3276TIP3   OH2 9833   2.859   3.883   0.298
 3276TIP3    H1 9834   2.817   3.860   0.381
 3276TIP3    H2 9835   2.952   3.873   0.314
 3277TIP3   OH2 9836   3.650   2.047   1.900
 3277TIP3    H1 9837   3.706   2.044   1.978
 3277TIP3    H2 9838   3.588   1.975   1.912
 3278TIP3   OH2 9839   1.914   4.492   1.240
 3278TIP3    H1 9840   1.944   4.402   1.228
 3278TIP3    H2 9841   1.835   4.483   1.293
 3279TIP3   OH2 9842   0.891   4.881   2.799
 3279TIP3    H1 9843   0.911   4.922   2.715
 3279TIP3    H2 9844   0.916   4.947   2.864
 3280TIP3   OH2 9845   0.250   3.785   2.382
 3280TIP3    H1 9846   0.328   3.818   2.338
 3280TIP3    H2 9847   0.210   3.724   2.320
 3281TIP3   OH2 9848   3.240   5.559   3.344
 3281TIP3    H1 9849   3.151   5.524   3.347
 3281TIP3    H2 9850   3.230   5.646   3.304
 3282TIP3   OH2 9851   2.095   1.406   5.060
 3282TIP3    H1 9852   2.071   1.494   5.089
 3282TIP3    H2 9853   2.033   1.386   4.990
 3283TIP3   OH2 9854   3.553   5.623   1.125
 3283TIP3    H1 9855   3.480   5.669   1.165
 3283TIP3    H2 9856   3.619   5.618   1.194
 3284TIP3   OH2 9857   5.176   0.758   1.777
 3284TIP3    H1 9858   5.147   0.740   1.687
 3284TIP3    H2 9859   5.268   0.731   1.777
 3285TIP3   OH2 9860   4.368   3.428   1.240
 3285TIP3    H1 9861   4.316   3.482   1.299
 3285TIP3    H2 9862   4.364   3.340   1.277
 3286TIP3   OH2 9863   3.942   0.789   1.655
 3286TIP3    H1 9864   3.902   0.729   1.719
 3286TIP3    H2 9865   3.944   0.873   1.700
 3287TIP3   OH2 9866   1.571   5.089   3.373
 3287TIP3    H1 9867   1.534   5.006   3.404
 3287TIP3    H2 9868   1.664   5.084   3.394
 3288TIP3   OH2 9869   1.912   3.744   3.845
 3288TIP3    H1 9870   1.981   3.779   3.901
 3288TIP3    H2 9871   1.842   3.809   3.850
 3289TIP3   OH2 9872   2.364   1.417   2.624
 3289TIP3    H1 9873   2.377   1.458   2.709
 3289TIP3    H2 9874   2.432   1.455   2.568
 3290TIP3   OH2 9875   1.239   1.754   0.214
 3290TIP3    H1 9876   1.299   1.714   0.151
 3290TIP3    H2 9877   1.204   1.830   0.169
 3291TIP3   OH2 9878   5.301   5.552   1.711
 3291TIP3    H1 9879   5.377   5.513   1.753
 3291TIP3    H2 9880   5.273   5.621   1.772
 3292TIP3   OH2 9881   0.730   5.505   4.377
 3292TIP3    H1 9882   0.791   5.464   4.438
 3292TIP3    H2 9883   0.672   5.558   4.432
 3293TIP3   OH2 9884   2.187   2.369   2.735
 3293TIP3    H1 9885   2.243   2.299   2.769
 3293TIP3    H2 9886   2.218   2.384   2.646
 3294TIP3   OH2 9887   5.177   1.062   0.526
 3294TIP3    H1 9888   5.232   1.137   0.502
 3294TIP3    H2 9889   5.117   1.051   0.452
 3295TIP3   OH2 9890   2.156   1.915   1.242
 3295TIP3    H1 9891   2.135   2.002   1.276
 3295TIP3    H2 9892   2.114   1.855   1.303
 3296TIP3   OH2 9893   5.333   3.058   0.607
 3296TIP3    H1 9894   5.328   3.154   0.606
 3296TIP3    H2 9895   5.255   3.030   0.559
 3297TIP3   OH2 9896   3.061   0.556   1.925
 3297TIP3    H1 9897   2.980   0.607   1.916
 3297TIP3    H2 9898   3.099   0.557   1.837
 3298TIP3   OH2 9899   2.302   0.618   4.865
 3298TIP3    H1 9900   2.236   0.687   4.874
 3298TIP3    H2 9901   2.251   0.538   4.852
 3299TIP3   OH2 9902   2.908   5.538   0.373
 3299TIP3    H1 9903   2.986   5.494   0.341
 3299TIP3    H2 9904   2.920   5.544   0.468
 3300TIP3   OH2 9905   5.069   4.266   1.675
 3300TIP3    H1 9906   4.990   4.290   1.722
 3300TIP3    H2 9907   5.091   4.179   1.708
 3301TIP3   OH2 9908   3.792   1.182   3.076
 3301TIP3    H1 9909   3.863   1.235   3.042
 3301TIP3    H2 9910   3.757   1.233   3.149
 3302TIP3   OH2 9911   0.724   5.810   4.821
 3302TIP3    H1 9912   0.701   5.730   4.868
 3302TIP3    H2 9913   0.641   5.840   4.783
 3303TIP3   OH2 9914   0.079   4.556   4.427
 3303TIP3    H1 9915   0.032   4.639   4.426
 3303TIP3    H2 9916   0.091   4.536   4.519
 3304TIP3   OH2 9917   5.826   4.265   3.547
 3304TIP3    H1 9918   5.884   4.341   3.559
 3304TIP3    H2 9919   5.856   4.202   3.611
 3305TIP3   OH2 9920   6.224   5.259   4.152
 3305TIP3    H1 9921   6.233   5.281   4.245
 3305TIP3    H2 9922   6.231   5.164   4.150
 3306TIP3   OH2 9923   5.925   4.557   1.054
 3306TIP3    H1 9924   5.932   4.475   1.007
 3306TIP3    H2 9925   5.831   4.575   1.058
 3307TIP3   OH2 9926   5.337   3.481   2.048
 3307TIP3    H1 9927   5.258   3.427   2.045
 3307TIP3    H2 9928   5.403   3.428   2.004
 3308TIP3   OH2 9929   0.993   4.992   3.978
 3308TIP3    H1 9930   1.065   4.998   4.041
 3308TIP3    H2 9931   1.033   4.955   3.899
 3309TIP3   OH2 9932   1.078   5.012   0.230
 3309TIP3    H1 9933   1.167   5.012   0.195
 3309TIP3    H2 9934   1.082   4.953   0.305
 3310TIP3   OH2 9935   1.917   1.231   0.438
 3310TIP3    H1 9936   1.876   1.266   0.359
 3310TIP3    H2 9937   2.011   1.242   0.424
 3311TIP3   OH2 9938   5.003   1.924   1.693
 3311TIP3    H1 9939   4.930   1.920   1.632
 3311TIP3    H2 9940   5.071   1.871   1.652
 3312TIP3   OH2 9941   3.650   1.220   4.763
 3312TIP3    H1 9942   3.708   1.167   4.708
 3312TIP3    H2 9943   3.706   1.248   4.836
 3313TIP3   OH2 9944   5.387   4.222   0.590
 3313TIP3    H1 9945   5.458   4.178   0.636
 3313TIP3    H2 9946   5.340   4.151   0.546
 3314TIP3   OH2 9947   3.861   5.888   1.446
 3314TIP3    H1 9948   3.845   5.936   1.527
 3314TIP3    H2 9949   3.878   5.798   1.473
 3315TIP3   OH2 9950   2.782   1.890   1.942
 3315TIP3    H1 9951   2.808   1.812   1.894
 3315TIP3    H2 9952   2.771   1.957   1.875
 3316TIP3   OH2 9953   5.116   2.472   1.551
 3316TIP3    H1 9954   5.094   2.474   1.458
 3316TIP3    H2 9955   5.202   2.431   1.555
 3317TIP3   OH2 9956   5.780   0.869   4.316
 3317TIP3    H1 9957   5.831   0.805   4.266
 3317TIP3    H2 9958   5.750   0.821   4.393
 3318TIP3   OH2 9959   2.150   3.785   4.399
 3318TIP3    H1 9960   2.230   3.811   4.443
 3318TIP3    H2 9961   2.117   3.865   4.358
 3319TIP3   OH2 9962   2.313   3.725   4.829
 3319TIP3    H1 9963   2.369   3.779   4.884
 3319TIP3    H2 9964   2.311   3.770   4.745
 3320TIP3   OH2 9965   1.860   5.648   4.023
 3320TIP3    H1 9966   1.839   5.611   3.937
 3320TIP3    H2 9967   1.807   5.598   4.084
 3321TIP3   OH2 9968   6.036   5.246   0.183
 3321TIP3    H1 9969   6.124   5.215   0.204
 3321TIP3    H2 9970   6.047   5.298   0.103
 3322TIP3   OH2 9971   2.812   0.430   1.393
 3322TIP3    H1 9972   2.852   0.509   1.356
 3322TIP3    H2 9973   2.722   0.455   1.413
 3323TIP3   OH2 9974   2.444   5.762   1.199
 3323TIP3    H1 9975   2.388   5.840   1.193
 3323TIP3    H2 9976   2.384   5.692   1.227
 3324TIP3   OH2 9977   1.094   4.377   0.644
 3324TIP3    H1 9978   1.142   4.453   0.611
 3324TIP3    H2 9979   1.148   4.302   0.621
 3325TIP3   OH2 9980   3.731   0.750   4.098
 3325TIP3    H1 9981   3.736   0.708   4.012
 3325TIP3    H2 9982   3.740   0.679   4.160
 3326TIP3   OH2 9983   4.422   2.789   3.216
 3326TIP3    H1 9984   4.381   2.842   3.148
 3326TIP3    H2 9985   4.515   2.812   3.212
 3327TIP3   OH2 9986   2.805   0.684   1.818
 3327TIP3    H1 9987   2.745   0.632   1.765
 3327TIP3    H2 9988   2.860   0.730   1.754
 3328TIP3   OH2 9989   2.834   1.089   0.552
 3328TIP3    H1 9990   2.840   1.097   0.457
 3328TIP3    H2 9991   2.880   1.166   0.586
 3329TIP3   OH2 9992   3.513   5.357   0.115
 3329TIP3    H1 9993   3.526   5.262   0.115
 3329TIP3    H2 9994   3.504   5.379   0.207
 3330TIP3   OH2 9995   1.931   2.580   2.190
 3330TIP3    H1 9996   2.018   2.541   2.199
 3330TIP3    H2 9997   1.945   2.658   2.138
 3331TIP3   OH2 9998   5.566   5.011   1.370
 3331TIP3    H1 9999   5.554   5.052   1.456
 3331TIP3    H210000   5.575   5.084   1.309
 3332TIP3   OH210001   3.783   4.374   4.917
 3332TIP3    H110002   3.689   4.383   4.905
 3332TIP3    H210003   3.813   4.463   4.935
 3333TIP3   OH210004   2.709   2.070   4.750
 3333TIP3    H110005   2.714   1.982   4.786
 3333TIP3    H210006   2.630   2.108   4.788
 3334TIP3   OH210007   5.133   5.448   4.063
 3334TIP3    H110008   5.092   5.416   3.983
 3334TIP3    H210009   5.076   5.418   4.133
 3335TIP3   OH210010   2.659   0.001   4.005
 3335TIP3    H110011   2.618   0.083   3.976
 3335TIP3    H210012   2.747   0.004   3.966
 3336TIP3   OH210013   3.759   3.203   5.115
 3336TIP3    H110014   3.824   3.172   5.178
 3336TIP3    H210015   3.685   3.231   5.169
 3337TIP3   OH210016   0.675   0.263   3.882
 3337TIP3    H110017   0.730   0.208   3.826
 3337TIP3    H210018   0.737   0.302   3.944
 3338TIP3   OH210019   2.515   2.818   1.534
 3338TIP3    H110020   2.420   2.813   1.526
 3338TIP3    H210021   2.539   2.898   1.488
 3339TIP3   OH210022   2.708   2.070   0.410
 3339TIP3    H110023   2.775   2.132   0.382
 3339TIP3    H210024   2.665   2.042   0.329
 3340TIP3   OH210025   3.390   4.399   2.437
 3340TIP3    H110026   3.296   4.394   2.452
 3340TIP3    H210027   3.398   4.415   2.343
 3341TIP3   OH210028   3.049   1.532   3.068
 3341TIP3    H110029   3.112   1.500   3.004
 3341TIP3    H210030   2.977   1.469   3.064
 3342TIP3   OH210031   4.897   1.078   2.291
 3342TIP3    H110032   4.806   1.108   2.291
 3342TIP3    H210033   4.906   1.028   2.209
 3343TIP3   OH210034   1.105   4.159   4.451
 3343TIP3    H110035   1.065   4.135   4.368
 3343TIP3    H210036   1.033   4.194   4.504
 3344TIP3   OH210037   5.642   5.521   2.361
 3344TIP3    H110038   5.687   5.549   2.282
 3344TIP3    H210039   5.565   5.578   2.366
 3345TIP3   OH210040   5.416   4.197   2.038
 3345TIP3    H110041   5.448   4.121   2.089
 3345TIP3    H210042   5.370   4.250   2.103
 3346TIP3   OH210043   6.318   4.719   4.078
 3346TIP3    H110044   6.328   4.784   4.009
 3346TIP3    H210045   6.354   4.760   4.156
 3347TIP3   OH210046   3.236   2.021   5.188
 3347TIP3    H110047   3.243   2.095   5.127
 3347TIP3    H210048   3.293   2.045   5.261
 3348TIP3   OH210049   6.282   5.914   0.338
 3348TIP3    H110050   6.200   5.949   0.373
 3348TIP3    H210051   6.343   5.920   0.411
 3349TIP3   OH210052   0.065   4.940   3.980
 3349TIP3    H110053   0.139   4.916   4.035
 3349TIP3    H210054   0.099   5.008   3.921
 3350TIP3   OH210055   6.221   0.458   2.517
 3350TIP3    H110056   6.170   0.533   2.489
 3350TIP3    H210057   6.201   0.448   2.610
 3351TIP3   OH210058   3.267   3.169   3.550
 3351TIP3    H110059   3.307   3.237   3.603
 3351TIP3    H210060   3.336   3.141   3.490
 3352TIP3   OH210061   3.289   3.730   3.704
 3352TIP3    H110062   3.230   3.751   3.776
 3352TIP3    H210063   3.341   3.656   3.735
 3353TIP3   OH210064   5.584   3.539   4.145
 3353TIP3    H110065   5.533   3.487   4.208
 3353TIP3    H210066   5.590   3.626   4.185
 3354TIP3   OH210067   4.178   2.614   1.974
 3354TIP3    H110068   4.171   2.709   1.975
 3354TIP3    H210069   4.270   2.597   1.954
 3355TIP3   OH210070   6.160   5.691   2.656
 3355TIP3    H110071   6.248   5.672   2.688
 3355TIP3    H210072   6.137   5.775   2.696
 3356TIP3   OH210073   3.434   3.764   1.721
 3356TIP3    H110074   3.453   3.792   1.811
 3356TIP3    H210075   3.491   3.818   1.667
 3357TIP3   OH210076   1.561   3.462   3.316
 3357TIP3    H110077   1.602   3.486   3.399
 3357TIP3    H210078   1.635   3.448   3.256
 3358TIP3   OH210079   2.471   6.023   3.295
 3358TIP3    H110080   2.456   6.061   3.382
 3358TIP3    H210081   2.424   5.939   3.297
 3359TIP3   OH210082   2.090   1.498   2.210
 3359TIP3    H110083   2.176   1.464   2.236
 3359TIP3    H210084   2.109   1.581   2.166
 3360TIP3   OH210085   0.120   5.819   2.980
 3360TIP3    H110086   0.057   5.788   3.045
 3360TIP3    H210087   0.122   5.914   2.991
 3361TIP3   OH210088   0.297   0.118   4.161
 3361TIP3    H110089   0.337   0.136   4.076
 3361TIP3    H210090   0.363   0.067   4.209
 3362TIP3   OH210091   1.510   4.833   4.274
 3362TIP3    H110092   1.563   4.760   4.242
 3362TIP3    H210093   1.573   4.902   4.293
 3363TIP3   OH210094   4.134   1.165   5.024
 3363TIP3    H110095   4.167   1.221   5.095
 3363TIP3    H210096   4.054   1.209   4.996
 3364TIP3   OH210097   3.749   0.923   4.606
 3364TIP3    H110098   3.838   0.948   4.633
 3364TIP3    H210099   3.759   0.895   4.515
 3365TIP3   OH210100   5.882   2.022   2.822
 3365TIP3    H110101   5.884   1.969   2.902
 3365TIP3    H210102   5.869   1.959   2.751
 3366TIP3   OH210103   3.972   2.324   3.537
 3366TIP3    H110104   4.009   2.411   3.554
 3366TIP3    H210105   3.882   2.329   3.569
 3367TIP3   OH210106   3.998   4.925   3.733
 3367TIP3    H110107   3.976   5.018   3.730
 3367TIP3    H210108   3.916   4.881   3.712
 3368TIP3   OH210109   2.801   3.613   1.340
 3368TIP3    H110110   2.853   3.621   1.420
 3368TIP3    H210111   2.854   3.559   1.282
 3369TIP3   OH210112   5.087   3.852   4.128
 3369TIP3    H110113   5.079   3.919   4.060
 3369TIP3    H210114   5.148   3.788   4.090
 3370TIP3   OH210115   2.449   2.627   1.018
 3370TIP3    H110116   2.452   2.696   1.086
 3370TIP3    H210117   2.541   2.617   0.992
 3371TIP3   OH210118   2.710   3.073   4.898
 3371TIP3    H110119   2.738   3.004   4.838
 3371TIP3    H210120   2.716   3.034   4.985
 3372TIP3   OH210121   3.738   4.339   1.380
 3372TIP3    H110122   3.689   4.419   1.401
 3372TIP3    H210123   3.829   4.368   1.375
 3373TIP3   OH210124   5.156   2.990   4.024
 3373TIP3    H110125   5.247   2.963   4.020
 3373TIP3    H210126   5.109   2.923   3.975
 3374TIP3   OH210127   4.875   2.216   0.485
 3374TIP3    H110128   4.953   2.183   0.530
 3374TIP3    H210129   4.905   2.292   0.436
 3375TIP3   OH210130   0.245   4.501   3.390
 3375TIP3    H110131   0.268   4.590   3.417
 3375TIP3    H210132   0.204   4.511   3.304
 3376TIP3   OH210133   1.995   4.149   3.840
 3376TIP3    H110134   1.927   4.215   3.856
 3376TIP3    H210135   1.998   4.140   3.745
 3377TIP3   OH210136   1.553   0.152   0.733
 3377TIP3    H110137   1.618   0.152   0.803
 3377TIP3    H210138   1.552   0.063   0.700
 3378TIP3   OH210139   0.205   4.928   4.924
 3378TIP3    H110140   0.154   4.857   4.885
 3378TIP3    H210141   0.258   4.884   4.991
 3379TIP3   OH210142   2.964   5.012   0.049
 3379TIP3    H110143   2.994   5.013  -0.042
 3379TIP3    H210144   2.925   5.099   0.062
 3380TIP3   OH210145   3.707   0.392   1.699
 3380TIP3    H110146   3.613   0.386   1.713
 3380TIP3    H210147   3.719   0.381   1.605
 3381TIP3   OH210148   4.464   1.245   4.281
 3381TIP3    H110149   4.396   1.310   4.266
 3381TIP3    H210150   4.544   1.287   4.249
 3382TIP3   OH210151   4.102   5.538   0.921
 3382TIP3    H110152   4.037   5.570   0.859
 3382TIP3    H210153   4.166   5.610   0.926
 3383TIP3   OH210154   2.292   0.386   5.114
 3383TIP3    H110155   2.270   0.477   5.094
 3383TIP3    H210156   2.225   0.334   5.069
 3384TIP3   OH210157   3.437   0.838   3.132
 3384TIP3    H110158   3.422   0.790   3.213
 3384TIP3    H210159   3.532   0.833   3.118
 3385TIP3   OH210160   2.643   2.666   5.075
 3385TIP3    H110161   2.717   2.628   5.122
 3385TIP3    H210162   2.600   2.591   5.033
 3386TIP3   OH210163   3.309   0.094   0.331
 3386TIP3    H110164   3.333   0.047   0.411
 3386TIP3    H210165   3.318   0.028   0.261
 3387TIP3   OH210166   2.359   0.709   0.324
 3387TIP3    H110167   2.388   0.784   0.273
 3387TIP3    H210168   2.272   0.733   0.355
 3388TIP3   OH210169   1.225   5.116   1.569
 3388TIP3    H110170   1.260   5.027   1.576
 3388TIP3    H210171   1.133   5.104   1.546
 3389TIP3   OH210172   2.102   0.541   0.042
 3389TIP3    H110173   2.117   0.630   0.074
 3389TIP3    H210174   2.126   0.485   0.117
 3390TIP3   OH210175   2.013   0.156   1.145
 3390TIP3    H110176   2.029   0.132   1.236
 3390TIP3    H210177   1.998   0.073   1.100
 3391TIP3   OH210178   4.615   0.274   3.860
 3391TIP3    H110179   4.620   0.207   3.792
 3391TIP3    H210180   4.706   0.301   3.873
 3392TIP3   OH210181   5.838   4.553   4.261
 3392TIP3    H110182   5.901   4.606   4.212
 3392TIP3    H210183   5.867   4.560   4.352
 3393TIP3   OH210184   5.422   5.020   4.969
 3393TIP3    H110185   5.470   4.948   4.928
 3393TIP3    H210186   5.358   4.977   5.025
 3394TIP3   OH210187   2.563   5.014   0.301
 3394TIP3    H110188   2.543   5.053   0.387
 3394TIP3    H210189   2.655   4.988   0.308
 3395TIP3   OH210190   3.187   4.892   0.195
 3395TIP3    H110191   3.257   4.860   0.139
 3395TIP3    H210192   3.131   4.944   0.137
 3396TIP3   OH210193   1.813   5.601   2.831
 3396TIP3    H110194   1.758   5.564   2.901
 3396TIP3    H210195   1.754   5.659   2.783
 3397TIP3   OH210196   4.272   5.986   4.869
 3397TIP3    H110197   4.263   5.894   4.897
 3397TIP3    H210198   4.324   6.027   4.937
 3398TIP3   OH210199   5.030   4.031   3.053
 3398TIP3    H110200   5.086   3.955   3.035
 3398TIP3    H210201   5.067   4.069   3.133
 3399TIP3   OH210202   3.358   3.437   5.152
 3399TIP3    H110203   3.405   3.468   5.075
 3399TIP3    H210204   3.423   3.391   5.204
 3400TIP3   OH210205   3.405   1.773   4.254
 3400TIP3    H110206   3.371   1.754   4.341
 3400TIP3    H210207   3.394   1.868   4.244
 3401TIP3   OH210208   5.128   3.707   3.823
 3401TIP3    H110209   5.215   3.733   3.855
 3401TIP3    H210210   5.136   3.709   3.728
 3402TIP3   OH210211   3.619   1.313   2.582
 3402TIP3    H110212   3.575   1.272   2.508
 3402TIP3    H210213   3.582   1.401   2.586
 3403TIP3   OH210214   1.421   0.921   3.687
 3403TIP3    H110215   1.436   0.959   3.600
 3403TIP3    H210216   1.333   0.950   3.711
 3404TIP3   OH210217   1.104   1.941   0.834
 3404TIP3    H110218   1.063   1.923   0.918
 3404TIP3    H210219   1.186   1.891   0.836
 3405TIP3   OH210220   1.697   3.506   4.405
 3405TIP3    H110221   1.712   3.442   4.335
 3405TIP3    H210222   1.783   3.522   4.442
 3406TIP3   OH210223   2.610   0.615   5.063
 3406TIP3    H110224   2.704   0.603   5.050
 3406TIP3    H210225   2.603   0.660   5.147
 3407TIP3   OH210226   3.047   5.028   2.223
 3407TIP3    H110227   3.127   5.038   2.275
 3407TIP3    H210228   2.978   5.013   2.287
 3408TIP3   OH210229   0.743   5.972   5.055
 3408TIP3    H110230   0.657   6.014   5.056
 3408TIP3    H210231   0.757   5.948   4.963
 3409TIP3   OH210232   4.984   0.792   4.257
 3409TIP3    H110233   4.963   0.865   4.199
 3409TIP3    H210234   5.056   0.824   4.312
 3410TIP3   OH210235   0.517   5.471   3.521
 3410TIP3    H110236   0.606   5.476   3.484
 3410TIP3    H210237   0.460   5.491   3.447
 3411TIP3   OH210238   4.752   4.035   2.926
 3411TIP3    H110239   4.739   4.019   2.833
 3411TIP3    H210240   4.836   3.992   2.946
 3412TIP3   OH210241   5.947   0.625   5.002
 3412TIP3    H110242   5.980   0.687   5.066
 3412TIP3    H210243   5.857   0.652   4.986
 3413TIP3   OH210244   2.119   4.962   3.779
 3413TIP3    H110245   2.146   4.872   3.799
 3413TIP3    H210246   2.027   4.953   3.753
 3414TIP3   OH210247   4.753   1.556   1.001
 3414TIP3    H110248   4.726   1.517   0.919
 3414TIP3    H210249   4.831   1.607   0.979
 3415TIP3   OH210250   3.795   5.668   1.623
 3415TIP3    H110251   3.758   5.700   1.705
 3415TIP3    H210252   3.858   5.602   1.649
 3416TIP3   OH210253   2.054   5.043   0.603
 3416TIP3    H110254   2.053   5.096   0.524
 3416TIP3    H210255   2.001   4.966   0.580
 3417TIP3   OH210256   1.305   2.455   3.910
 3417TIP3    H110257   1.356   2.536   3.901
 3417TIP3    H210258   1.215   2.483   3.894
 3418TIP3   OH210259   0.727   2.844   0.722
 3418TIP3    H110260   0.766   2.876   0.640
 3418TIP3    H210261   0.682   2.920   0.758
 3419TIP3   OH210262   2.188   2.521   1.076
 3419TIP3    H110263   2.167   2.519   1.169
 3419TIP3    H210264   2.270   2.571   1.071
 3420TIP3   OH210265   5.735   3.438   2.549
 3420TIP3    H110266   5.731   3.465   2.457
 3420TIP3    H210267   5.678   3.500   2.594
 3421TIP3   OH210268   0.324   5.242   1.025
 3421TIP3    H110269   0.260   5.234   1.095
 3421TIP3    H210270   0.408   5.250   1.069
 3422TIP3   OH210271   5.143   0.807   4.500
 3422TIP3    H110272   5.101   0.792   4.585
 3422TIP3    H210273   5.212   0.871   4.519
 3423TIP3   OH210274   2.391   0.518   4.411
 3423TIP3    H110275   2.330   0.585   4.444
 3423TIP3    H210276   2.369   0.510   4.318
 3424TIP3   OH210277   2.870   0.796   2.825
 3424TIP3    H110278   2.915   0.796   2.740
 3424TIP3    H210279   2.934   0.758   2.886
 3425TIP3   OH210280   1.056   5.587   3.438
 3425TIP3    H110281   1.084   5.496   3.424
 3425TIP3    H210282   1.112   5.619   3.508
 3426TIP3   OH210283   2.724   2.018   1.706
 3426TIP3    H110284   2.701   1.968   1.628
 3426TIP3    H210285   2.685   2.104   1.691
 3427TIP3   OH210286   4.436   5.318   1.809
 3427TIP3    H110287   4.513   5.297   1.863
 3427TIP3    H210288   4.468   5.386   1.749
 3428TIP3   OH210289   3.695   3.656   2.297
 3428TIP3    H110290   3.626   3.658   2.364
 3428TIP3    H210291   3.725   3.747   2.291
 3429TIP3   OH210292   2.832   3.140   4.498
 3429TIP3    H110293   2.746   3.134   4.457
 3429TIP3    H210294   2.833   3.068   4.561
 3430TIP3   OH210295   1.461   5.210   3.093
 3430TIP3    H110296   1.534   5.268   3.117
 3430TIP3    H210297   1.383   5.261   3.115
 3431TIP3   OH210298   4.147   4.911   3.451
 3431TIP3    H110299   4.214   4.977   3.434
 3431TIP3    H210300   4.075   4.960   3.490
 3432TIP3   OH210301   1.757   5.838   1.738
 3432TIP3    H110302   1.767   5.921   1.785
 3432TIP3    H210303   1.846   5.816   1.710
 3433TIP3   OH210304   4.885   1.901   1.448
 3433TIP3    H110305   4.934   1.855   1.380
 3433TIP3    H210306   4.793   1.897   1.418
 3434TIP3   OH210307   5.516   2.734   2.338
 3434TIP3    H110308   5.483   2.819   2.369
 3434TIP3    H210309   5.597   2.756   2.291
 3435TIP3   OH210310   2.608   0.709   1.600
 3435TIP3    H110311   2.558   0.743   1.526
 3435TIP3    H210312   2.541   0.678   1.661
 3436TIP3   OH210313   0.534   4.588   5.017
 3436TIP3    H110314   0.623   4.585   4.983
 3436TIP3    H210315   0.535   4.527   5.091
 3437TIP3   OH210316   5.952   5.585   4.917
 3437TIP3    H110317   5.966   5.584   4.822
 3437TIP3    H210318   6.041   5.587   4.953
 3438TIP3   OH210319   1.975   0.354   2.397
 3438TIP3    H110320   1.970   0.361   2.493
 3438TIP3    H210321   2.007   0.439   2.368
 3439TIP3   OH210322   0.592   1.961   0.740
 3439TIP3    H110323   0.545   1.988   0.661
 3439TIP3    H210324   0.678   1.933   0.709
 3440TIP3   OH210325   1.162   5.750   0.766
 3440TIP3    H110326   1.085   5.787   0.810
 3440TIP3    H210327   1.202   5.824   0.721
 3441TIP3   OH210328   2.683   2.833   0.183
 3441TIP3    H110329   2.687   2.926   0.202
 3441TIP3    H210330   2.704   2.790   0.266
 3442TIP3   OH210331   1.664   2.720   2.942
 3442TIP3    H110332   1.669   2.625   2.950
 3442TIP3    H210333   1.729   2.752   3.005
 3443TIP3   OH210334   5.623   4.130   0.826
 3443TIP3    H110335   5.693   4.130   0.892
 3443TIP3    H210336   5.653   4.194   0.762
 3444TIP3   OH210337   3.374   0.019   5.136
 3444TIP3    H110338   3.285   0.048   5.118
 3444TIP3    H210339   3.388   0.043   5.228
 3445TIP3   OH210340   2.104   1.308   4.511
 3445TIP3    H110341   2.179   1.279   4.458
 3445TIP3    H210342   2.069   1.228   4.550
 3446TIP3   OH210343   4.914   2.933   0.442
 3446TIP3    H110344   4.910   2.943   0.347
 3446TIP3    H210345   4.825   2.950   0.472
 3447TIP3   OH210346   4.372   2.451   1.123
 3447TIP3    H110347   4.372   2.417   1.212
 3447TIP3    H210348   4.465   2.454   1.099
 3448TIP3   OH210349   5.742   1.163   3.688
 3448TIP3    H110350   5.794   1.213   3.751
 3448TIP3    H210351   5.789   1.080   3.679
 3449TIP3   OH210352   5.833   1.311   3.972
 3449TIP3    H110353   5.898   1.247   3.942
 3449TIP3    H210354   5.885   1.386   3.999
 3450TIP3   OH210355   4.194   0.396   5.051
 3450TIP3    H110356   4.257   0.461   5.082
 3450TIP3    H210357   4.241   0.346   4.984
 3451TIP3   OH210358   3.704   4.890   0.211
 3451TIP3    H110359   3.680   4.800   0.233
 3451TIP3    H210360   3.712   4.934   0.296
 3452TIP3   OH210361   5.572   1.273   2.374
 3452TIP3    H110362   5.652   1.314   2.341
 3452TIP3    H210363   5.588   1.259   2.467
 3453TIP3   OH210364   1.081   0.167   4.911
 3453TIP3    H110365   1.133   0.099   4.868
 3453TIP3    H210366   1.130   0.189   4.990
 3454TIP3   OH210367   1.421   5.809   1.060
 3454TIP3    H110368   1.483   5.790   0.990
 3454TIP3    H210369   1.391   5.898   1.042
 3455TIP3   OH210370   4.350   2.524   3.135
 3455TIP3    H110371   4.441   2.524   3.166
 3455TIP3    H210372   4.330   2.616   3.119
 3456TIP3   OH210373   6.109   4.138   2.979
 3456TIP3    H110374   6.018   4.146   2.949
 3456TIP3    H210375   6.104   4.075   3.051
 3457TIP3   OH210376   3.520   2.806   3.196
 3457TIP3    H110377   3.497   2.784   3.105
 3457TIP3    H210378   3.436   2.812   3.241
 3458TIP3   OH210379   5.402   0.779   0.245
 3458TIP3    H110380   5.328   0.800   0.302
 3458TIP3    H210381   5.362   0.751   0.163
 3459TIP3   OH210382   5.340   0.656   2.532
 3459TIP3    H110383   5.432   0.628   2.538
 3459TIP3    H210384   5.304   0.602   2.462
 3460TIP3   OH210385   0.160   3.273   2.612
 3460TIP3    H110386   0.228   3.249   2.674
 3460TIP3    H210387   0.149   3.196   2.556
 3461TIP3   OH210388   2.829   3.271   4.751
 3461TIP3    H110389   2.786   3.210   4.811
 3461TIP3    H210390   2.861   3.216   4.680
 3462TIP3   OH210391   3.775   4.046   0.270
 3462TIP3    H110392   3.810   3.956   0.267
 3462TIP3    H210393   3.824   4.093   0.202
 3463TIP3   OH210394   3.372   1.570   2.047
 3463TIP3    H110395   3.361   1.529   2.133
 3463TIP3    H210396   3.295   1.626   2.037
 3464TIP3   OH210397   1.669   1.611   4.470
 3464TIP3    H110398   1.741   1.577   4.524
 3464TIP3    H210399   1.694   1.587   4.381
 3465TIP3   OH210400   1.564   0.397   0.611
 3465TIP3    H110401   1.617   0.462   0.657
 3465TIP3    H210402   1.576   0.316   0.660
 3466TIP3   OH210403   6.422   1.138   3.015
 3466TIP3    H110404   6.331   1.142   3.043
 3466TIP3    H210405   6.421   1.170   2.925
 3467TIP3   OH210406   0.778   4.520   2.562
 3467TIP3    H110407   0.683   4.528   2.562
 3467TIP3    H210408   0.799   4.474   2.481
 3468TIP3   OH210409   0.084   0.311   3.830
 3468TIP3    H110410  -0.006   0.344   3.835
 3468TIP3    H210411   0.112   0.332   3.741
 3469TIP3   OH210412   1.067   4.739   4.769
 3469TIP3    H110413   1.013   4.817   4.756
 3469TIP3    H210414   1.156   4.768   4.751
 3470TIP3   OH210415   2.150   2.261   2.332
 3470TIP3    H110416   2.101   2.185   2.360
 3470TIP3    H210417   2.239   2.229   2.318
 3471TIP3   OH210418   1.191   2.308  -0.018
 3471TIP3    H110419   1.230   2.283   0.065
 3471TIP3    H210420   1.157   2.397  -0.003
 3472TIP3   OH210421   0.828   3.561   0.772
 3472TIP3    H110422   0.801   3.570   0.680
 3472TIP3    H210423   0.921   3.540   0.767
 3473TIP3   OH210424   0.952   4.837   3.733
 3473TIP3    H110425   0.877   4.895   3.718
 3473TIP3    H210426   0.928   4.756   3.688
 3474TIP3   OH210427   3.427   0.920   1.104
 3474TIP3    H110428   3.414   0.844   1.160
 3474TIP3    H210429   3.420   0.995   1.163
 3475TIP3   OH210430   3.939   1.478   0.134
 3475TIP3    H110431   4.009   1.492   0.198
 3475TIP3    H210432   3.858   1.483   0.185
 3476TIP3   OH210433   3.315   2.909   2.499
 3476TIP3    H110434   3.392   2.891   2.445
 3476TIP3    H210435   3.284   2.823   2.526
 3477TIP3   OH210436   6.177   0.115   3.726
 3477TIP3    H110437   6.189   0.109   3.821
 3477TIP3    H210438   6.174   0.210   3.709
 3478TIP3   OH210439   2.194   2.520   2.289
 3478TIP3    H110440   2.288   2.528   2.305
 3478TIP3    H210441   2.175   2.427   2.304
 3479TIP3   OH210442   1.401   0.001   1.662
 3479TIP3    H110443   1.399   0.058   1.586
 3479TIP3    H210444   1.332   0.035   1.720
 3480TIP3   OH210445   1.177   5.486   0.200
 3480TIP3    H110446   1.108   5.480   0.266
 3480TIP3    H210447   1.137   5.536   0.129
 3481TIP3   OH210448   0.719   4.693   0.019
 3481TIP3    H110449   0.674   4.690   0.103
 3481TIP3    H210450   0.668   4.755  -0.033
 3482TIP3   OH210451   3.034   3.368   2.808
 3482TIP3    H110452   2.986   3.305   2.860
 3482TIP3    H210453   3.008   3.350   2.718
 3483TIP3   OH210454   4.573   1.291   0.310
 3483TIP3    H110455   4.486   1.281   0.273
 3483TIP3    H210456   4.600   1.203   0.335
 3484TIP3   OH210457   2.866   3.587   4.183
 3484TIP3    H110458   2.879   3.493   4.194
 3484TIP3    H210459   2.872   3.623   4.272
 3485TIP3   OH210460   4.085   0.192   3.672
 3485TIP3    H110461   4.161   0.147   3.708
 3485TIP3    H210462   4.121   0.246   3.601
 3486TIP3   OH210463   5.755   3.329   4.997
 3486TIP3    H110464   5.793   3.412   4.970
 3486TIP3    H210465   5.818   3.263   4.968
 3487TIP3   OH210466   1.324   0.912   1.516
 3487TIP3    H110467   1.333   1.002   1.550
 3487TIP3    H210468   1.384   0.860   1.571
 3488TIP3   OH210469   5.977   5.565   2.013
 3488TIP3    H110470   6.003   5.574   1.921
 3488TIP3    H210471   6.058   5.545   2.060
 3489TIP3   OH210472   1.991   3.189   3.970
 3489TIP3    H110473   2.071   3.241   3.962
 3489TIP3    H210474   1.952   3.218   4.052
 3490TIP3   OH210475   0.387   1.083   0.682
 3490TIP3    H110476   0.376   1.135   0.602
 3490TIP3    H210477   0.436   1.006   0.654
 3491TIP3   OH210478   1.052   2.396   4.504
 3491TIP3    H110479   1.059   2.489   4.525
 3491TIP3    H210480   0.966   2.370   4.538
 3492TIP3   OH210481   0.191   2.038   4.974
 3492TIP3    H110482   0.209   2.111   4.915
 3492TIP3    H210483   0.163   2.079   5.056
 3493TIP3   OH210484   1.781   2.559   4.986
 3493TIP3    H110485   1.843   2.505   5.035
 3493TIP3    H210486   1.803   2.649   5.011
 3494TIP3   OH210487   1.318   4.999   3.887
 3494TIP3    H110488   1.323   4.973   3.979
 3494TIP3    H210489   1.299   5.092   3.889
 3495TIP3   OH210490   1.910   3.752   3.006
 3495TIP3    H110491   1.890   3.664   2.973
 3495TIP3    H210492   1.825   3.794   3.016
 3496TIP3   OH210493   0.749   2.271   1.353
 3496TIP3    H110494   0.745   2.180   1.326
 3496TIP3    H210495   0.731   2.321   1.273
 3497TIP3   OH210496   3.464   0.625   4.349
 3497TIP3    H110497   3.505   0.710   4.333
 3497TIP3    H210498   3.370   0.641   4.335
 3498TIP3   OH210499   4.886   1.770   0.229
 3498TIP3    H110500   4.935   1.696   0.194
 3498TIP3    H210501   4.802   1.732   0.256
 3499TIP3   OH210502   4.816   2.226   0.909
 3499TIP3    H110503   4.893   2.264   0.867
 3499TIP3    H210504   4.789   2.155   0.850
 3500TIP3   OH210505   3.327   3.977   1.918
 3500TIP3    H110506   3.340   4.072   1.917
 3500TIP3    H210507   3.342   3.951   2.009
 3501TIP3   OH210508   3.786   3.308   2.503
 3501TIP3    H110509   3.749   3.390   2.538
 3501TIP3    H210510   3.739   3.239   2.549
 3502TIP3   OH210511   6.101   5.264   3.042
 3502TIP3    H110512   6.121   5.346   2.996
 3502TIP3    H210513   6.018   5.282   3.087
 3503TIP3   OH210514   4.274   5.556   1.169
 3503TIP3    H110515   4.296   5.589   1.082
 3503TIP3    H210516   4.293   5.463   1.166
 3504TIP3   OH210517   3.455   2.730   4.890
 3504TIP3    H110518   3.539   2.686   4.877
 3504TIP3    H210519   3.450   2.745   4.985
 3505TIP3   OH210520   1.569   5.850   4.422
 3505TIP3    H110521   1.588   5.769   4.375
 3505TIP3    H210522   1.528   5.907   4.357
 3506TIP3   OH210523   4.387   5.727   4.998
 3506TIP3    H110524   4.423   5.716   4.910
 3506TIP3    H210525   4.446   5.677   5.054
 3507TIP3   OH210526   0.790   1.430   0.382
 3507TIP3    H110527   0.741   1.502   0.423
 3507TIP3    H210528   0.735   1.404   0.308
 3508TIP3   OH210529   5.445   0.382   1.131
 3508TIP3    H110530   5.427   0.305   1.185
 3508TIP3    H210531   5.403   0.362   1.047
 3509TIP3   OH210532   3.037   2.369   1.361
 3509TIP3    H110533   3.027   2.375   1.266
 3509TIP3    H210534   2.952   2.338   1.392
 3510TIP3   OH210535   0.881   3.573   2.037
 3510TIP3    H110536   0.845   3.647   1.987
 3510TIP3    H210537   0.931   3.615   2.108
 3511TIP3   OH210538   2.792   1.915   3.776
 3511TIP3    H110539   2.857   1.985   3.789
 3511TIP3    H210540   2.776   1.882   3.865
 3512TIP3   OH210541   5.149   5.742   0.147
 3512TIP3    H110542   5.223   5.768   0.091
 3512TIP3    H210543   5.182   5.668   0.197
 3513TIP3   OH210544   1.491   3.517   1.864
 3513TIP3    H110545   1.474   3.608   1.888
 3513TIP3    H210546   1.409   3.486   1.826
 3514TIP3   OH210547   1.322   0.417   2.260
 3514TIP3    H110548   1.271   0.459   2.330
 3514TIP3    H210549   1.286   0.452   2.179
 3515TIP3   OH210550   1.460   5.930   2.191
 3515TIP3    H110551   1.378   5.978   2.203
 3515TIP3    H210552   1.495   5.920   2.279
 3516TIP3   OH210553   1.244   5.755   2.651
 3516TIP3    H110554   1.211   5.738   2.563
 3516TIP3    H210555   1.291   5.838   2.644
 3517TIP3   OH210556   3.925   5.001   3.088
 3517TIP3    H110557   4.003   5.057   3.090
 3517TIP3    H210558   3.854   5.060   3.065
 3518TIP3   OH210559   4.139   5.188   3.035
 3518TIP3    H110560   4.189   5.123   2.986
 3518TIP3    H210561   4.197   5.264   3.039
 3519TIP3   OH210562   5.828   3.835   0.749
 3519TIP3    H110563   5.755   3.816   0.807
 3519TIP3    H210564   5.853   3.925   0.771
 3520TIP3   OH210565   3.946   0.919   1.938
 3520TIP3    H110566   3.852   0.927   1.925
 3520TIP3    H210567   3.982   1.000   1.901
 3521TIP3   OH210568   3.667   5.507   3.474
 3521TIP3    H110569   3.720   5.542   3.546
 3521TIP3    H210570   3.583   5.552   3.481
 3522TIP3   OH210571   4.102   5.005   0.978
 3522TIP3    H110572   4.031   4.984   1.040
 3522TIP3    H210573   4.103   5.101   0.975
 3523TIP3   OH210574   0.774   2.443   0.541
 3523TIP3    H110575   0.733   2.377   0.597
 3523TIP3    H210576   0.701   2.487   0.498
 3524TIP3   OH210577   5.062   4.118   2.550
 3524TIP3    H110578   5.133   4.174   2.518
 3524TIP3    H210579   5.023   4.168   2.621
 3525TIP3   OH210580   6.087   2.877   4.067
 3525TIP3    H110581   6.001   2.919   4.079
 3525TIP3    H210582   6.125   2.923   3.992
 3526TIP3   OH210583   2.012   0.891   4.730
 3526TIP3    H110584   1.972   0.978   4.724
 3526TIP3    H210585   2.063   0.882   4.650
 3527TIP3   OH210586   1.361   3.407   2.947
 3527TIP3    H110587   1.350   3.430   3.040
 3527TIP3    H210588   1.278   3.433   2.906
 3528TIP3   OH210589   3.905   4.561   2.296
 3528TIP3    H110590   3.962   4.602   2.362
 3528TIP3    H210591   3.943   4.587   2.212
 3529TIP3   OH210592   3.993   1.019   2.870
 3529TIP3    H110593   4.005   1.087   2.805
 3529TIP3    H210594   3.898   1.016   2.885
 3530TIP3   OH210595   0.742   3.409   3.465
 3530TIP3    H110596   0.736   3.488   3.519
 3530TIP3    H210597   0.783   3.439   3.384
 3531TIP3   OH210598   5.328   0.678   4.084
 3531TIP3    H110599   5.354   0.710   3.998
 3531TIP3    H210600   5.405   0.633   4.118
 3532TIP3   OH210601   1.481   3.679   4.401
 3532TIP3    H110602   1.403   3.623   4.401
 3532TIP3    H210603   1.553   3.618   4.414
 3533TIP3   OH210604   4.681   4.464   1.329
 3533TIP3    H110605   4.723   4.381   1.309
 3533TIP3    H210606   4.613   4.442   1.393
 3534TIP3   OH210607   0.622   3.879   3.092
 3534TIP3    H110608   0.651   3.970   3.085
 3534TIP3    H210609   0.639   3.843   3.005
 3535TIP3   OH210610   2.707   3.646   2.028
 3535TIP3    H110611   2.714   3.637   2.123
 3535TIP3    H210612   2.792   3.682   2.001
 3536TIP3   OH210613   1.417   1.820   4.985
 3536TIP3    H110614   1.424   1.788   4.895
 3536TIP3    H210615   1.434   1.914   4.978
 3537TIP3   OH210616   0.189   3.952   1.768
 3537TIP3    H110617   0.175   3.859   1.751
 3537TIP3    H210618   0.175   3.962   1.862
 3538TIP3   OH210619   1.054   1.241   5.081
 3538TIP3    H110620   1.122   1.297   5.042
 3538TIP3    H210621   1.079   1.234   5.173
 3539TIP3   OH210622   3.487   0.863   4.712
 3539TIP3    H110623   3.575   0.885   4.684
 3539TIP3    H210624   3.430   0.892   4.640
 3540TIP3   OH210625   3.696   4.836   0.917
 3540TIP3    H110626   3.727   4.864   1.003
 3540TIP3    H210627   3.744   4.891   0.855
 3541TIP3   OH210628   2.373   0.684   2.266
 3541TIP3    H110629   2.428   0.685   2.344
 3541TIP3    H210630   2.391   0.600   2.225
 3542TIP3   OH210631   0.084   2.404   0.609
 3542TIP3    H110632   0.141   2.368   0.541
 3542TIP3    H210633   0.069   2.330   0.668
 3543TIP3   OH210634   3.769   5.073   2.432
 3543TIP3    H110635   3.683   5.111   2.413
 3543TIP3    H210636   3.759   4.980   2.413
 3544TIP3   OH210637   4.358   3.829   1.306
 3544TIP3    H110638   4.276   3.877   1.320
 3544TIP3    H210639   4.367   3.773   1.383
 3545TIP3   OH210640   5.885   0.298   4.934
 3545TIP3    H110641   5.874   0.391   4.919
 3545TIP3    H210642   5.830   0.279   5.011
 3546TIP3   OH210643   0.410   5.459   2.488
 3546TIP3    H110644   0.486   5.424   2.441
 3546TIP3    H210645   0.383   5.535   2.436
 3547TIP3   OH210646   6.042   3.247   4.724
 3547TIP3    H110647   6.128   3.278   4.754
 3547TIP3    H210648   6.007   3.320   4.674
 3548TIP3   OH210649   4.762   2.398   3.800
 3548TIP3    H110650   4.722   2.470   3.751
 3548TIP3    H210651   4.747   2.420   3.892
 3549TIP3   OH210652   5.167   5.350   3.157
 3549TIP3    H110653   5.099   5.380   3.097
 3549TIP3    H210654   5.235   5.313   3.101
 3550TIP3   OH210655   6.019   0.116   3.125
 3550TIP3    H110656   5.981   0.138   3.210
 3550TIP3    H210657   6.087   0.182   3.112
 3551TIP3   OH210658   5.058   3.447   1.017
 3551TIP3    H110659   5.050   3.443   1.112
 3551TIP3    H210660   4.986   3.391   0.985
 3552TIP3   OH210661   1.541   3.508   0.761
 3552TIP3    H110662   1.498   3.570   0.702
 3552TIP3    H210663   1.468   3.463   0.804
 3553TIP3   OH210664   5.591   3.288   1.680
 3553TIP3    H110665   5.535   3.332   1.616
 3553TIP3    H210666   5.532   3.229   1.726
 3554TIP3   OH210667   3.684   5.031   0.447
 3554TIP3    H110668   3.659   5.037   0.539
 3554TIP3    H210669   3.778   5.049   0.446
 3555TIP3   OH210670   1.645   4.474   1.490
 3555TIP3    H110671   1.663   4.480   1.583
 3555TIP3    H210672   1.671   4.385   1.466
 3556TIP3   OH210673   5.038   5.647   2.172
 3556TIP3    H110674   5.093   5.725   2.175
 3556TIP3    H210675   4.950   5.680   2.157
 3557TIP3   OH210676   2.762   0.200   1.874
 3557TIP3    H110677   2.782   0.117   1.917
 3557TIP3    H210678   2.774   0.182   1.781
 3558TIP3   OH210679   2.570   4.559   4.432
 3558TIP3    H110680   2.489   4.558   4.380
 3558TIP3    H210681   2.627   4.621   4.387
 3559TIP3   OH210682   4.816   3.915   3.215
 3559TIP3    H110683   4.850   3.958   3.136
 3559TIP3    H210684   4.894   3.889   3.264
 3560TIP3   OH210685   4.435   2.764   4.953
 3560TIP3    H110686   4.340   2.778   4.959
 3560TIP3    H210687   4.463   2.759   5.045
 3561TIP3   OH210688   3.994   4.246   4.036
 3561TIP3    H110689   3.984   4.341   4.027
 3561TIP3    H210690   4.080   4.227   3.999
 3562TIP3   OH210691   5.932   0.551   0.065
 3562TIP3    H110692   5.968   0.487   0.003
 3562TIP3    H210693   5.925   0.632   0.014
 3563TIP3   OH210694   1.232   2.274   0.257
 3563TIP3    H110695   1.290   2.312   0.323
 3563TIP3    H210696   1.147   2.268   0.301
 3564TIP3   OH210697   2.250   5.967   2.203
 3564TIP3    H110698   2.208   5.898   2.151
 3564TIP3    H210699   2.198   5.971   2.283
 3565TIP3   OH210700   3.908   0.684   1.017
 3565TIP3    H110701   3.899   0.647   0.929
 3565TIP3    H210702   3.903   0.608   1.076
 3566TIP3   OH210703   1.850   2.951   1.530
 3566TIP3    H110704   1.777   2.913   1.482
 3566TIP3    H210705   1.899   2.876   1.564
 3567TIP3   OH210706   6.190   0.140   5.159
 3567TIP3    H110707   6.281   0.113   5.157
 3567TIP3    H210708   6.191   0.225   5.204
 3568TIP3   OH210709   5.473   5.928   4.706
 3568TIP3    H110710   5.555   5.902   4.662
 3568TIP3    H210711   5.437   5.997   4.650
 3569TIP3   OH210712  -0.043   4.349   1.268
 3569TIP3    H110713   0.051   4.354   1.252
 3569TIP3    H210714  -0.069   4.440   1.283
 3570TIP3   OH210715   4.184   0.040   3.319
 3570TIP3    H110716   4.169   0.065   3.410
 3570TIP3    H210717   4.152   0.114   3.268
 3571TIP3   OH210718   3.937   4.321   3.383
 3571TIP3    H110719   3.901   4.320   3.472
 3571TIP3    H210720   4.018   4.271   3.388
 3572TIP3   OH210721   3.462   3.498   1.948
 3572TIP3    H110722   3.422   3.459   1.870
 3572TIP3    H210723   3.394   3.554   1.985
 3573TIP3   OH210724   4.816   5.663   3.971
 3573TIP3    H110725   4.768   5.712   3.904
 3573TIP3    H210726   4.891   5.626   3.925
 3574TIP3   OH210727   3.492   3.378   0.054
 3574TIP3    H110728   3.469   3.429   0.132
 3574TIP3    H210729   3.511   3.444  -0.013
 3575TIP3   OH210730   1.987   1.758   1.425
 3575TIP3    H110731   1.918   1.728   1.366
 3575TIP3    H210732   1.988   1.695   1.496
 3576TIP3   OH210733   4.110   5.964   2.606
 3576TIP3    H110734   4.079   5.897   2.667
 3576TIP3    H210735   4.092   6.047   2.651
 3577TIP3   OH210736   4.956   3.486   0.267
 3577TIP3    H110737   5.050   3.484   0.249
 3577TIP3    H210738   4.940   3.576   0.298
 3578TIP3   OH210739   3.668   5.126   3.279
 3578TIP3    H110740   3.666   5.123   3.184
 3578TIP3    H210741   3.584   5.089   3.306
 3579TIP3   OH210742   2.318   0.929   1.767
 3579TIP3    H110743   2.388   0.932   1.833
 3579TIP3    H210744   2.237   0.921   1.819
 3580TIP3   OH210745   1.361   2.983   4.005
 3580TIP3    H110746   1.322   2.988   4.092
 3580TIP3    H210747   1.330   2.900   3.970
 3581TIP3   OH210748   6.034   0.244   4.722
 3581TIP3    H110749   5.979   0.242   4.800
 3581TIP3    H210750   6.123   0.253   4.755
 3582TIP3   OH210751   2.383   4.033   3.598
 3582TIP3    H110752   2.298   4.044   3.556
 3582TIP3    H210753   2.446   4.034   3.525
 3583TIP3   OH210754   4.545   2.750   0.930
 3583TIP3    H110755   4.568   2.667   0.970
 3583TIP3    H210756   4.457   2.770   0.963
 3584TIP3   OH210757   4.086   2.708   2.380
 3584TIP3    H110758   4.048   2.747   2.459
 3584TIP3    H210759   4.043   2.754   2.308
 3585TIP3   OH210760   3.265   0.863   5.070
 3585TIP3    H110761   3.253   0.924   4.997
 3585TIP3    H210762   3.226   0.781   5.039
 3586TIP3   OH210763   4.343   4.911   4.874
 3586TIP3    H110764   4.437   4.895   4.870
 3586TIP3    H210765   4.334   4.988   4.931
 3587TIP3   OH210766   0.134   4.056   2.442
 3587TIP3    H110767   0.130   4.075   2.349
 3587TIP3    H210768   0.161   3.964   2.448
 3588TIP3   OH210769   1.029   2.489   0.621
 3588TIP3    H110770   1.024   2.559   0.685
 3588TIP3    H210771   0.949   2.496   0.570
 3589TIP3   OH210772   3.449   1.802   1.555
 3589TIP3    H110773   3.500   1.856   1.616
 3589TIP3    H210774   3.447   1.853   1.474
 3590TIP3   OH210775   4.961   0.602   0.474
 3590TIP3    H110776   5.008   0.520   0.490
 3590TIP3    H210777   4.969   0.616   0.380
 3591TIP3   OH210778   4.792   3.349   3.590
 3591TIP3    H110779   4.849   3.357   3.666
 3591TIP3    H210780   4.763   3.438   3.571
 3592TIP3   OH210781   3.192   5.862   3.384
 3592TIP3    H110782   3.214   5.955   3.391
 3592TIP3    H210783   3.174   5.835   3.474
 3593TIP3   OH210784   5.857   4.168   2.836
 3593TIP3    H110785   5.783   4.127   2.790
 3593TIP3    H210786   5.912   4.203   2.766
 3594TIP3   OH210787   3.077   3.692   5.021
 3594TIP3    H110788   3.042   3.608   5.049
 3594TIP3    H210789   3.041   3.705   4.933
 3595TIP3   OH210790   2.129   2.123   0.150
 3595TIP3    H110791   2.078   2.201   0.126
 3595TIP3    H210792   2.186   2.108   0.075
 3596TIP3   OH210793   3.522   2.200   2.760
 3596TIP3    H110794   3.519   2.136   2.689
 3596TIP3    H210795   3.538   2.284   2.716
 3597TIP3   OH210796   4.608   4.769   3.032
 3597TIP3    H110797   4.529   4.725   3.063
 3597TIP3    H210798   4.679   4.732   3.083
 3598TIP3   OH210799   0.257   1.421   2.851
 3598TIP3    H110800   0.291   1.511   2.853
 3598TIP3    H210801   0.162   1.431   2.843
 3599TIP3   OH210802   1.855   5.873  -0.011
 3599TIP3    H110803   1.798   5.944   0.019
 3599TIP3    H210804   1.797   5.797  -0.020
 3600TIP3   OH210805   5.534   5.607   1.177
 3600TIP3    H110806   5.619   5.568   1.197
 3600TIP3    H210807   5.513   5.661   1.253
 3601TIP3   OH210808   5.992   3.807   1.405
 3601TIP3    H110809   6.004   3.757   1.486
 3601TIP3    H210810   6.047   3.762   1.341
 3602TIP3   OH210811   0.740   5.612   2.103
 3602TIP3    H110812   0.665   5.659   2.140
 3602TIP3    H210813   0.701   5.538   2.056
 3603TIP3   OH210814   5.927   3.974   0.367
 3603TIP3    H110815   5.863   4.034   0.405
 3603TIP3    H210816   5.975   4.028   0.304
 3604TIP3   OH210817   4.192   2.784   1.729
 3604TIP3    H110818   4.124   2.744   1.784
 3604TIP3    H210819   4.173   2.878   1.732
 3605TIP3   OH210820   1.945   5.833   0.460
 3605TIP3    H110821   1.877   5.863   0.400
 3605TIP3    H210822   2.004   5.780   0.406
 3606TIP3   OH210823   5.897   0.186   3.359
 3606TIP3    H110824   5.807   0.212   3.376
 3606TIP3    H210825   5.943   0.205   3.441
 3607TIP3   OH210826   3.159   2.892   1.320
 3607TIP3    H110827   3.175   2.935   1.403
 3607TIP3    H210828   3.211   2.941   1.256
 3608TIP3   OH210829   4.341   1.729   2.850
 3608TIP3    H110830   4.320   1.787   2.923
 3608TIP3    H210831   4.385   1.785   2.787
 3609TIP3   OH210832   5.339   4.863   1.761
 3609TIP3    H110833   5.276   4.910   1.817
 3609TIP3    H210834   5.392   4.813   1.823
 3610TIP3   OH210835   5.377   1.182   2.798
 3610TIP3    H110836   5.428   1.205   2.720
 3610TIP3    H210837   5.417   1.101   2.830
 3611TIP3   OH210838   1.824   1.492   2.728
 3611TIP3    H110839   1.766   1.512   2.801
 3611TIP3    H210840   1.826   1.572   2.675
 3612TIP3   OH210841   1.447   5.276   1.782
 3612TIP3    H110842   1.465   5.342   1.715
 3612TIP3    H210843   1.445   5.193   1.734
 3613TIP3   OH210844   3.844   2.877   1.720
 3613TIP3    H110845   3.852   2.799   1.776
 3613TIP3    H210846   3.887   2.947   1.770
 3614TIP3   OH210847   0.866   1.467   3.443
 3614TIP3    H110848   0.846   1.507   3.359
 3614TIP3    H210849   0.892   1.377   3.421
 3615TIP3   OH210850   2.393   2.692   3.518
 3615TIP3    H110851   2.323   2.693   3.452
 3615TIP3    H210852   2.384   2.608   3.562
 3616TIP3   OH210853   0.445   3.819   3.294
 3616TIP3    H110854   0.407   3.904   3.314
 3616TIP3    H210855   0.525   3.839   3.245
 3617TIP3   OH210856   4.332   4.666   2.941
 3617TIP3    H110857   4.239   4.643   2.938
 3617TIP3    H210858   4.355   4.662   3.034
 3618TIP3   OH210859   5.040   1.839   1.237
 3618TIP3    H110860   5.124   1.858   1.195
 3618TIP3    H210861   4.999   1.773   1.181
 3619TIP3   OH210862   3.540   3.486   0.914
 3619TIP3    H110863   3.458   3.532   0.899
 3619TIP3    H210864   3.604   3.533   0.861
 3620TIP3   OH210865   4.748   2.494   4.070
 3620TIP3    H110866   4.668   2.547   4.068
 3620TIP3    H210867   4.812   2.549   4.116
 3621TIP3   OH210868   3.045   2.334   1.084
 3621TIP3    H110869   3.072   2.332   0.992
 3621TIP3    H210870   2.960   2.376   1.083
 3622TIP3   OH210871   2.401   2.490   2.529
 3622TIP3    H110872   2.430   2.399   2.520
 3622TIP3    H210873   2.409   2.509   2.622
 3623TIP3   OH210874   0.167   0.387   3.573
 3623TIP3    H110875   0.187   0.312   3.517
 3623TIP3    H210876   0.102   0.437   3.524
 3624TIP3   OH210877   4.752   4.003   4.821
 3624TIP3    H110878   4.821   4.005   4.755
 3624TIP3    H210879   4.691   4.071   4.795
 3625TIP3   OH210880   1.680   5.544   3.241
 3625TIP3    H110881   1.747   5.611   3.226
 3625TIP3    H210882   1.598   5.584   3.214
 3626TIP3   OH210883   3.547   3.772   1.368
 3626TIP3    H110884   3.478   3.727   1.319
 3626TIP3    H210885   3.627   3.751   1.320
 3627TIP3   OH210886   1.989   5.430   4.365
 3627TIP3    H110887   1.950   5.493   4.424
 3627TIP3    H210888   2.034   5.368   4.422
 3628TIP3   OH210889   2.894   0.578   4.997
 3628TIP3    H110890   2.956   0.651   4.998
 3628TIP3    H210891   2.865   0.572   4.906
 3629TIP3   OH210892   1.451   1.815   2.323
 3629TIP3    H110893   1.434   1.838   2.231
 3629TIP3    H210894   1.514   1.881   2.353
 3630TIP3   OH210895   4.220   4.589   0.115
 3630TIP3    H110896   4.220   4.504   0.160
 3630TIP3    H210897   4.135   4.627   0.137
 3631TIP3   OH210898   1.164   1.590   2.476
 3631TIP3    H110899   1.210   1.511   2.506
 3631TIP3    H210900   1.073   1.561   2.464
 3632TIP3   OH210901   2.912   3.448   4.975
 3632TIP3    H110902   2.826   3.472   5.010
 3632TIP3    H210903   2.894   3.424   4.884
 3633TIP3   OH210904   1.457   3.126   2.561
 3633TIP3    H110905   1.443   3.130   2.656
 3633TIP3    H210906   1.455   3.033   2.540
 3634TIP3   OH210907   5.396   1.096   2.247
 3634TIP3    H110908   5.472   1.054   2.206
 3634TIP3    H210909   5.433   1.167   2.299
 3635TIP3   OH210910   5.741   0.189   1.230
 3635TIP3    H110911   5.736   0.275   1.187
 3635TIP3    H210912   5.814   0.145   1.185
 3636TIP3   OH210913   6.282   0.361   0.380
 3636TIP3    H110914   6.321   0.332   0.297
 3636TIP3    H210915   6.206   0.413   0.354
 3637TIP3   OH210916   2.958   2.136   0.257
 3637TIP3    H110917   2.980   2.188   0.334
 3637TIP3    H210918   3.018   2.167   0.189
 3638TIP3   OH210919   5.824   4.547   3.887
 3638TIP3    H110920   5.763   4.615   3.858
 3638TIP3    H210921   5.911   4.586   3.873
 3639TIP3   OH210922   4.844   0.901   3.173
 3639TIP3    H110923   4.786   0.875   3.245
 3639TIP3    H210924   4.898   0.972   3.210
 3640TIP3   OH210925   5.917   2.148   2.118
 3640TIP3    H110926   5.958   2.231   2.094
 3640TIP3    H210927   5.939   2.088   2.046
 3641TIP3   OH210928   2.215   3.433   1.342
 3641TIP3    H110929   2.293   3.429   1.397
 3641TIP3    H210930   2.238   3.380   1.265
 3642TIP3   OH210931   3.378   2.579   4.284
 3642TIP3    H110932   3.301   2.559   4.337
 3642TIP3    H210933   3.437   2.624   4.345
 3643TIP3   OH210934   0.911   2.655   4.251
 3643TIP3    H110935   0.824   2.668   4.289
 3643TIP3    H210936   0.947   2.743   4.242
 3644TIP3   OH210937   1.033   2.233   2.587
 3644TIP3    H110938   1.098   2.258   2.653
 3644TIP3    H210939   1.067   2.152   2.550
 3645TIP3   OH210940   0.632   3.111   4.370
 3645TIP3    H110941   0.600   3.050   4.437
 3645TIP3    H210942   0.728   3.107   4.377
 3646TIP3   OH210943   3.521   2.259   3.472
 3646TIP3    H110944   3.531   2.354   3.469
 3646TIP3    H210945   3.609   2.225   3.458
 3647TIP3   OH210946   0.866   4.056   0.887
 3647TIP3    H110947   0.875   4.151   0.900
 3647TIP3    H210948   0.805   4.047   0.814
 3648TIP3   OH210949   4.452   2.418   4.331
 3648TIP3    H110950   4.471   2.327   4.309
 3648TIP3    H210951   4.503   2.434   4.410
 3649TIP3   OH210952   1.305   5.358   1.487
 3649TIP3    H110953   1.340   5.320   1.406
 3649TIP3    H210954   1.261   5.285   1.530
 3650TIP3   OH210955   5.421   4.728   0.527
 3650TIP3    H110956   5.424   4.788   0.453
 3650TIP3    H210957   5.332   4.736   0.560
 3651TIP3   OH210958   3.509   1.854   2.026
 3651TIP3    H110959   3.543   1.765   2.023
 3651TIP3    H210960   3.434   1.850   2.085
 3652TIP3   OH210961   3.367   5.552   0.787
 3652TIP3    H110962   3.329   5.494   0.722
 3652TIP3    H210963   3.295   5.607   0.817
 3653TIP3   OH210964   4.621   1.573   3.861
 3653TIP3    H110965   4.628   1.659   3.901
 3653TIP3    H210966   4.529   1.548   3.870
 3654TIP3   OH210967   5.287   5.875   3.405
 3654TIP3    H110968   5.371   5.886   3.450
 3654TIP3    H210969   5.292   5.935   3.331
 3655TIP3   OH210970   1.031   4.344   3.364
 3655TIP3    H110971   0.987   4.318   3.283
 3655TIP3    H210972   1.073   4.263   3.395
 3656TIP3   OH210973   1.779   3.023   2.401
 3656TIP3    H110974   1.766   2.929   2.416
 3656TIP3    H210975   1.694   3.054   2.369
 3657TIP3   OH210976   5.989   1.400   4.183
 3657TIP3    H110977   5.903   1.416   4.221
 3657TIP3    H210978   5.998   1.304   4.182
 3658TIP3   OH210979   3.655   3.517   4.406
 3658TIP3    H110980   3.734   3.470   4.378
 3658TIP3    H210981   3.587   3.488   4.345
 3659TIP3   OH210982   0.484   3.110   5.138
 3659TIP3    H110983   0.515   3.195   5.168
 3659TIP3    H210984   0.553   3.049   5.163
 3660TIP3   OH210985   3.942   0.433   3.727
 3660TIP3    H110986   3.931   0.469   3.639
 3660TIP3    H210987   3.970   0.343   3.713
 3661TIP3   OH210988   4.441   3.830   4.917
 3661TIP3    H110989   4.382   3.759   4.941
 3661TIP3    H210990   4.506   3.832   4.988
 3662TIP3   OH210991   5.190   1.312   0.201
 3662TIP3    H110992   5.180   1.261   0.121
 3662TIP3    H210993   5.111   1.292   0.252
 3663TIP3   OH210994   3.842   2.238   2.854
 3663TIP3    H110995   3.864   2.216   2.944
 3663TIP3    H210996   3.767   2.182   2.833
 3664TIP3   OH210997   4.922   4.771   5.031
 3664TIP3    H110998   4.932   4.862   5.059
 3664TIP3    H210999   4.988   4.724   5.082
 3665TIP3   OH211000  -0.005   4.154   1.726
 3665TIP3    H111001   0.041   4.236   1.704
 3665TIP3    H211002   0.065   4.089   1.734
 3666TIP3   OH211003   5.482   0.228   2.420
 3666TIP3    H111004   5.407   0.172   2.439
 3666TIP3    H211005   5.529   0.236   2.502
 3667TIP3   OH211006   1.984   0.953   0.677
 3667TIP3    H111007   1.933   0.906   0.612
 3667TIP3    H211008   2.021   0.884   0.733
 3668TIP3   OH211009   4.067   3.180   1.927
 3668TIP3    H111010   3.998   3.242   1.904
 3668TIP3    H211011   4.108   3.218   2.004
 3669TIP3   OH211012   0.327   3.935   0.822
 3669TIP3    H111013   0.240   3.929   0.860
 3669TIP3    H211014   0.338   4.027   0.799
 3670TIP3   OH211015   4.161   4.074   2.653
 3670TIP3    H111016   4.162   4.157   2.605
 3670TIP3    H211017   4.149   4.100   2.745
 3671TIP3   OH211018   2.974   3.683   4.445
 3671TIP3    H111019   3.025   3.764   4.451
 3671TIP3    H211020   3.033   3.615   4.476
 3672TIP3   OH211021   2.480   1.074   3.204
 3672TIP3    H111022   2.400   1.126   3.203
 3672TIP3    H211023   2.521   1.094   3.119
 3673TIP3   OH211024   4.407   0.237   5.187
 3673TIP3    H111025   4.376   0.323   5.158
 3673TIP3    H211026   4.485   0.220   5.134
 3674TIP3   OH211027   3.357   3.722   2.794
 3674TIP3    H111028   3.397   3.752   2.876
 3674TIP3    H211029   3.429   3.716   2.732
 3675TIP3   OH211030   5.442   3.024   3.028
 3675TIP3    H111031   5.352   3.050   3.007
 3675TIP3    H211032   5.480   3.100   3.071
 3676TIP3   OH211033   4.714   3.192   3.340
 3676TIP3    H111034   4.732   3.250   3.415
 3676TIP3    H211035   4.741   3.105   3.370
 3677TIP3   OH211036   1.531   3.434   0.192
 3677TIP3    H111037   1.620   3.399   0.183
 3677TIP3    H211038   1.479   3.384   0.130
 3678TIP3   OH211039   3.003   0.360   0.233
 3678TIP3    H111040   3.059   0.375   0.156
 3678TIP3    H211041   2.995   0.265   0.238
 3679TIP3   OH211042   5.175   3.145   3.477
 3679TIP3    H111043   5.174   3.141   3.572
 3679TIP3    H211044   5.266   3.166   3.455
 3680TIP3   OH211045   1.562   2.301   1.196
 3680TIP3    H111046   1.616   2.233   1.157
 3680TIP3    H211047   1.472   2.277   1.172
 3681TIP3   OH211048   2.340   1.816   2.179
 3681TIP3    H111049   2.390   1.851   2.105
 3681TIP3    H211050   2.254   1.795   2.143
 3682TIP3   OH211051   1.554   0.524   2.923
 3682TIP3    H111052   1.530   0.491   2.837
 3682TIP3    H211053   1.619   0.461   2.955
 3683TIP3   OH211054   5.103   3.702   3.545
 3683TIP3    H111055   5.056   3.721   3.464
 3683TIP3    H211056   5.185   3.750   3.537
 3684TIP3   OH211057   4.246   5.102   1.239
 3684TIP3    H111058   4.281   5.027   1.191
 3684TIP3    H211059   4.179   5.066   1.296
 3685TIP3   OH211060   6.008   1.087   3.315
 3685TIP3    H111061   6.026   1.014   3.256
 3685TIP3    H211062   5.922   1.068   3.351
 3686TIP3   OH211063   5.847   2.403   3.502
 3686TIP3    H111064   5.862   2.498   3.510
 3686TIP3    H211065   5.920   2.371   3.450
 3687TIP3   OH211066   1.713   3.176   4.199
 3687TIP3    H111067   1.665   3.258   4.184
 3687TIP3    H211068   1.798   3.203   4.234
 3688TIP3   OH211069   4.547   1.048   3.380
 3688TIP3    H111070   4.453   1.033   3.372
 3688TIP3    H211071   4.554   1.131   3.428
 3689TIP3   OH211072   4.892   0.980   2.037
 3689TIP3    H111073   4.968   1.005   1.984
 3689TIP3    H211074   4.884   0.886   2.024
 3690TIP3   OH211075   4.555   3.125   0.974
 3690TIP3    H111076   4.574   3.117   0.880
 3690TIP3    H211077   4.460   3.133   0.979
 3691TIP3   OH211078   4.448   4.717   1.926
 3691TIP3    H111079   4.508   4.773   1.877
 3691TIP3    H211080   4.424   4.769   2.002
 3692TIP3   OH211081   5.800   1.292   4.866
 3692TIP3    H111082   5.793   1.330   4.954
 3692TIP3    H211083   5.783   1.199   4.879
 3693TIP3   OH211084   4.629   3.465   4.136
 3693TIP3    H111085   4.557   3.418   4.178
 3693TIP3    H211086   4.666   3.519   4.206
 3694TIP3   OH211087   0.522   4.145   0.365
 3694TIP3    H111088   0.470   4.156   0.444
 3694TIP3    H211089   0.613   4.154   0.394
 3695TIP3   OH211090   0.714   2.243   2.612
 3695TIP3    H111091   0.738   2.235   2.520
 3695TIP3    H211092   0.650   2.315   2.614
 3696TIP3   OH211093   1.029   4.725   0.699
 3696TIP3    H111094   1.121   4.698   0.695
 3696TIP3    H211095   1.026   4.807   0.650
 3697TIP3   OH211096   1.961   3.556   1.987
 3697TIP3    H111097   2.005   3.475   1.959
 3697TIP3    H211098   1.998   3.576   2.073
 3698TIP3   OH211099   1.785   1.465   3.098
 3698TIP3    H111100   1.735   1.421   3.029
 3698TIP3    H211101   1.752   1.555   3.099
 3699TIP3   OH211102   2.665   3.511   4.432
 3699TIP3    H111103   2.593   3.550   4.383
 3699TIP3    H211104   2.643   3.527   4.524
 3700TIP3   OH211105   1.051   1.251   4.508
 3700TIP3    H111106   1.033   1.339   4.476
 3700TIP3    H211107   0.970   1.224   4.551
 3701TIP3   OH211108   2.560   5.367   4.084
 3701TIP3    H111109   2.536   5.365   3.991
 3701TIP3    H211110   2.617   5.443   4.093
 3702TIP3   OH211111   2.161   2.355   3.937
 3702TIP3    H111112   2.173   2.448   3.957
 3702TIP3    H211113   2.218   2.340   3.861
 3703TIP3   OH211114   0.466   4.501   1.542
 3703TIP3    H111115   0.410   4.526   1.616
 3703TIP3    H211116   0.448   4.567   1.475
 3704TIP3   OH211117   1.322   4.010   0.985
 3704TIP3    H111118   1.303   3.998   1.078
 3704TIP3    H211119   1.414   4.037   0.982
 3705TIP3   OH211120   3.546   2.013   3.843
 3705TIP3    H111121   3.537   1.930   3.890
 3705TIP3    H211122   3.479   2.070   3.881
 3706TIP3   OH211123   2.057   2.699   0.890
 3706TIP3    H111124   2.102   2.624   0.927
 3706TIP3    H211125   1.977   2.707   0.941
 3707TIP3   OH211126   2.119   2.636   5.173
 3707TIP3    H111127   2.119   2.610   5.081
 3707TIP3    H211128   2.192   2.586   5.211
 3708TIP3   OH211129   4.353   4.600   4.022
 3708TIP3    H111130   4.331   4.544   4.096
 3708TIP3    H211131   4.421   4.659   4.055
 3709TIP3   OH211132   6.213   5.712   0.067
 3709TIP3    H111133   6.229   5.724   0.160
 3709TIP3    H211134   6.207   5.801   0.032
 3710TIP3   OH211135   4.689   3.011   0.594
 3710TIP3    H111136   4.692   3.101   0.626
 3710TIP3    H211137   4.603   3.003   0.553
 3711TIP3   OH211138   3.308   2.822   0.450
 3711TIP3    H111139   3.352   2.772   0.381
 3711TIP3    H211140   3.372   2.888   0.477
 3712TIP3   OH211141   2.672   1.897   4.939
 3712TIP3    H111142   2.753   1.882   4.987
 3712TIP3    H211143   2.628   1.812   4.939
 3713TIP3   OH211144   0.201   2.875   3.167
 3713TIP3    H111145   0.157   2.882   3.082
 3713TIP3    H211146   0.131   2.879   3.232
 3714TIP3   OH211147   3.332   0.244   3.014
 3714TIP3    H111148   3.353   0.243   3.107
 3714TIP3    H211149   3.415   0.266   2.971
 3715TIP3   OH211150   6.205   4.331   2.216
 3715TIP3    H111151   6.124   4.368   2.180
 3715TIP3    H211152   6.204   4.357   2.308
 3716TIP3   OH211153   2.541   5.459   0.665
 3716TIP3    H111154   2.536   5.504   0.749
 3716TIP3    H211155   2.501   5.373   0.681
 3717TIP3   OH211156   1.297   1.915   1.134
 3717TIP3    H111157   1.269   1.833   1.092
 3717TIP3    H211158   1.253   1.914   1.219
 3718TIP3   OH211159   0.216   0.931   4.365
 3718TIP3    H111160   0.162   0.925   4.444
 3718TIP3    H211161   0.303   0.901   4.393
 3719TIP3   OH211162   6.337   2.637   2.166
 3719TIP3    H111163   6.263   2.648   2.106
 3719TIP3    H211164   6.372   2.726   2.177
 3720TIP3   OH211165   2.874   2.768   1.921
 3720TIP3    H111166   2.820   2.847   1.931
 3720TIP3    H211167   2.946   2.780   1.982
 3721TIP3   OH211168   0.606   2.977   2.965
 3721TIP3    H111169   0.534   2.943   2.911
 3721TIP3    H211170   0.565   3.043   3.021
 3722TIP3   OH211171   4.441   4.387   2.446
 3722TIP3    H111172   4.516   4.393   2.387
 3722TIP3    H211173   4.371   4.349   2.392
 3723TIP3   OH211174   1.759   0.912   4.871
 3723TIP3    H111175   1.813   0.972   4.923
 3723TIP3    H211176   1.823   0.861   4.821
 3724TIP3   OH211177   0.361   0.059   3.508
 3724TIP3    H111178   0.276   0.095   3.483
 3724TIP3    H211179   0.400   0.125   3.565
 3725TIP3   OH211180   2.627   3.111   1.184
 3725TIP3    H111181   2.634   3.160   1.265
 3725TIP3    H211182   2.676   3.162   1.120
 3726TIP3   OH211183   5.367   4.581   4.190
 3726TIP3    H111184   5.412   4.585   4.275
 3726TIP3    H211185   5.414   4.644   4.135
 3727TIP3   OH211186   1.414   2.679   0.356
 3727TIP3    H111187   1.490   2.714   0.309
 3727TIP3    H211188   1.431   2.700   0.448
 3728TIP3   OH211189   1.188   0.211   0.402
 3728TIP3    H111190   1.107   0.259   0.389
 3728TIP3    H211191   1.161   0.128   0.442
 3729TIP3   OH211192   2.729   3.113   0.170
 3729TIP3    H111193   2.815   3.146   0.198
 3729TIP3    H211194   2.725   3.134   0.077
 3730TIP3   OH211195   2.978   0.070   0.248
 3730TIP3    H111196   2.925   0.051   0.326
 3730TIP3    H211197   3.064   0.032   0.269
 3731TIP3   OH211198   0.928   5.236   0.193
 3731TIP3    H111199   0.993   5.166   0.189
 3731TIP3    H211200   0.968   5.303   0.248
 3732TIP3   OH211201   1.793   4.296   0.080
 3732TIP3    H111202   1.841   4.297  -0.002
 3732TIP3    H211203   1.704   4.324   0.057
 3733TIP3   OH211204   1.465   0.652   4.806
 3733TIP3    H111205   1.467   0.591   4.732
 3733TIP3    H211206   1.444   0.737   4.766
 3734TIP3   OH211207   4.596   3.506   3.072
 3734TIP3    H111208   4.689   3.499   3.092
 3734TIP3    H211209   4.587   3.590   3.028
 3735TIP3   OH211210   0.681   0.857   1.091
 3735TIP3    H111211   0.655   0.855   1.183
 3735TIP3    H211212   0.611   0.907   1.048
 3736TIP3   OH211213   1.884   5.865   2.990
 3736TIP3    H111214   1.976   5.892   2.989
 3736TIP3    H211215   1.883   5.782   2.943
 3737TIP3   OH211216   5.339   5.781   5.033
 3737TIP3    H111217   5.366   5.730   5.110
 3737TIP3    H211218   5.421   5.820   5.001
 3738TIP3   OH211219   0.563   1.950   2.529
 3738TIP3    H111220   0.497   1.892   2.566
 3738TIP3    H211221   0.618   1.893   2.475
 3739TIP3   OH211222   1.326   4.818   1.939
 3739TIP3    H111223   1.360   4.800   2.026
 3739TIP3    H211224   1.324   4.914   1.933
 3740TIP3   OH211225   4.048   0.999   1.271
 3740TIP3    H111226   4.114   1.049   1.320
 3740TIP3    H211227   4.097   0.928   1.230
 3741TIP3   OH211228   4.582   2.443   4.594
 3741TIP3    H111229   4.523   2.475   4.662
 3741TIP3    H211230   4.623   2.522   4.558
 3742TIP3   OH211231   5.902   5.663   3.752
 3742TIP3    H111232   5.954   5.614   3.688
 3742TIP3    H211233   5.851   5.596   3.798
 3743TIP3   OH211234   0.862   1.848   0.986
 3743TIP3    H111235   0.817   1.846   0.901
 3743TIP3    H211236   0.817   1.781   1.038
 3744TIP3   OH211237   0.476   1.631   4.698
 3744TIP3    H111238   0.413   1.698   4.724
 3744TIP3    H211239   0.516   1.603   4.781
 3745TIP3   OH211240   4.295   1.978   3.590
 3745TIP3    H111241   4.342   1.992   3.508
 3745TIP3    H211242   4.207   2.012   3.574
 3746TIP3   OH211243   5.741   1.993   4.269
 3746TIP3    H111244   5.715   2.075   4.226
 3746TIP3    H211245   5.765   2.020   4.358
 3747TIP3   OH211246   4.284   1.427   5.138
 3747TIP3    H111247   4.274   1.520   5.157
 3747TIP3    H211248   4.315   1.423   5.047
 3748TIP3   OH211249   1.958   2.831   1.948
 3748TIP3    H111250   2.032   2.771   1.942
 3748TIP3    H211251   1.976   2.886   2.024
 3749TIP3   OH211252   1.772   3.122   3.709
 3749TIP3    H111253   1.711   3.049   3.716
 3749TIP3    H211254   1.816   3.126   3.794
 3750TIP3   OH211255   2.524   2.769   4.094
 3750TIP3    H111256   2.589   2.737   4.031
 3750TIP3    H211257   2.470   2.829   4.043
 3751TIP3   OH211258   1.781   0.817   0.961
 3751TIP3    H111259   1.730   0.792   1.038
 3751TIP3    H211260   1.728   0.885   0.919
 3752TIP3   OH211261   3.244   5.005   0.776
 3752TIP3    H111262   3.167   4.949   0.773
 3752TIP3    H211263   3.275   5.009   0.685
 3753TIP3   OH211264   5.518   4.142   2.355
 3753TIP3    H111265   5.526   4.061   2.406
 3753TIP3    H211266   5.605   4.180   2.356
 3754TIP3   OH211267   2.800   2.664   2.670
 3754TIP3    H111268   2.795   2.605   2.745
 3754TIP3    H211269   2.882   2.712   2.683
 3755TIP3   OH211270   3.036   5.503   3.798
 3755TIP3    H111271   3.009   5.432   3.857
 3755TIP3    H211272   3.085   5.563   3.855
 3756TIP3   OH211273   4.759   0.948   4.956
 3756TIP3    H111274   4.796   0.918   5.038
 3756TIP3    H211275   4.697   1.016   4.981
 3757TIP3   OH211276   3.209   0.780   0.509
 3757TIP3    H111277   3.132   0.824   0.547
 3757TIP3    H211278   3.172   0.711   0.454
 3758TIP3   OH211279   0.496   4.092   2.454
 3758TIP3    H111280   0.484   4.001   2.428
 3758TIP3    H211281   0.563   4.126   2.394
 3759TIP3   OH211282   3.811   4.310   1.801
 3759TIP3    H111283   3.806   4.398   1.764
 3759TIP3    H211284   3.739   4.262   1.759
 3760TIP3   OH211285   3.629   4.257   2.468
 3760TIP3    H111286   3.551   4.298   2.506
 3760TIP3    H211287   3.595   4.201   2.399
 3761TIP3   OH211288   1.711   2.273   0.076
 3761TIP3    H111289   1.701   2.346   0.137
 3761TIP3    H211290   1.771   2.213   0.120
 3762TIP3   OH211291   4.282   0.291   3.481
 3762TIP3    H111292   4.366   0.258   3.513
 3762TIP3    H211293   4.304   0.337   3.400
 3763TIP3   OH211294   3.503   4.692   3.141
 3763TIP3    H111295   3.598   4.702   3.138
 3763TIP3    H211296   3.472   4.774   3.181
 3764TIP3   OH211297   5.545   4.407   4.837
 3764TIP3    H111298   5.495   4.455   4.771
 3764TIP3    H211299   5.486   4.404   4.913
 3765TIP3   OH211300   3.466   5.254   4.174
 3765TIP3    H111301   3.530   5.210   4.118
 3765TIP3    H211302   3.509   5.335   4.201
 3766TIP3   OH211303   6.033   1.774   1.329
 3766TIP3    H111304   5.960   1.831   1.354
 3766TIP3    H211305   6.056   1.803   1.241
 3767TIP3   OH211306   2.491   5.160   4.925
 3767TIP3    H111307   2.533   5.238   4.961
 3767TIP3    H211308   2.410   5.152   4.974
 3768TIP3   OH211309   0.805   0.219   3.053
 3768TIP3    H111310   0.726   0.252   3.095
 3768TIP3    H211311   0.827   0.285   2.987
 3769TIP3   OH211312   5.529   0.800   1.193
 3769TIP3    H111313   5.447   0.750   1.189
 3769TIP3    H211314   5.525   0.859   1.118
 3770TIP3   OH211315   4.679   2.663   4.400
 3770TIP3    H111316   4.768   2.657   4.366
 3770TIP3    H211317   4.625   2.621   4.334
 3771TIP3   OH211318   4.420  -0.019   0.941
 3771TIP3    H111319   4.452   0.010   1.027
 3771TIP3    H211320   4.455   0.045   0.880
 3772TIP3   OH211321   3.000   0.283   4.747
 3772TIP3    H111322   2.983   0.373   4.720
 3772TIP3    H211323   3.095   0.276   4.751
 3773TIP3   OH211324   0.356   4.605   1.795
 3773TIP3    H111325   0.435   4.660   1.800
 3773TIP3    H211326   0.322   4.605   1.884
 3774TIP3   OH211327   2.317   2.441   3.100
 3774TIP3    H111328   2.346   2.427   3.010
 3774TIP3    H211329   2.329   2.534   3.116
 3775TIP3   OH211330   1.704   2.119   2.104
 3775TIP3    H111331   1.721   2.047   2.164
 3775TIP3    H211332   1.655   2.080   2.032
 3776TIP3   OH211333   3.431   0.646   2.247
 3776TIP3    H111334   3.392   0.569   2.206
 3776TIP3    H211335   3.409   0.719   2.188
 3777TIP3   OH211336   2.772   5.553   3.730
 3777TIP3    H111337   2.862   5.535   3.754
 3777TIP3    H211338   2.758   5.644   3.757
 3778TIP3   OH211339   4.066   4.136   2.912
 3778TIP3    H111340   4.143   4.142   2.968
 3778TIP3    H211341   3.992   4.136   2.972
 3779TIP3   OH211342   2.608   5.288   2.663
 3779TIP3    H111343   2.603   5.382   2.679
 3779TIP3    H211344   2.699   5.273   2.638
 3780TIP3   OH211345   3.898   0.206   5.056
 3780TIP3    H111346   3.907   0.245   5.143
 3780TIP3    H211347   3.809   0.172   5.053
 3781TIP3   OH211348   1.060   1.119   1.543
 3781TIP3    H111349   1.025   1.198   1.584
 3781TIP3    H211350   1.154   1.124   1.558
 3782TIP3   OH211351   6.172   3.138   0.340
 3782TIP3    H111352   6.227   3.080   0.392
 3782TIP3    H211353   6.114   3.080   0.292
 3783TIP3   OH211354   0.770   0.535   1.269
 3783TIP3    H111355   0.859   0.569   1.263
 3783TIP3    H211356   0.741   0.559   1.357
 3784TIP3   OH211357   3.204   4.987   0.457
 3784TIP3    H111358   3.109   4.994   0.449
 3784TIP3    H211359   3.235   4.971   0.368
 3785TIP3   OH211360   2.504   0.853   4.920
 3785TIP3    H111361   2.520   0.900   4.838
 3785TIP3    H211362   2.523   0.918   4.988
 3786TIP3   OH211363   5.685   4.258   0.573
 3786TIP3    H111364   5.662   4.228   0.485
 3786TIP3    H211365   5.662   4.351   0.574
 3787TIP3   OH211366   5.373   1.914  -0.025
 3787TIP3    H111367   5.363   2.007  -0.044
 3787TIP3    H211368   5.304   1.894   0.038
 3788TIP3   OH211369   4.583   4.372   0.920
 3788TIP3    H111370   4.511   4.425   0.886
 3788TIP3    H211371   4.662   4.418   0.893
 3789TIP3   OH211372   0.427   2.299   5.046
 3789TIP3    H111373   0.366   2.362   5.085
 3789TIP3    H211374   0.413   2.219   5.096
 3790TIP3   OH211375   5.910   4.894   4.434
 3790TIP3    H111376   5.909   4.955   4.508
 3790TIP3    H211377   5.964   4.821   4.464
 3791TIP3   OH211378   3.761   2.299   0.847
 3791TIP3    H111379   3.848   2.339   0.839
 3791TIP3    H211380   3.726   2.297   0.758
 3792TIP3   OH211381   0.726   1.559   4.375
 3792TIP3    H111382   0.723   1.527   4.285
 3792TIP3    H211383   0.660   1.508   4.422
 3793TIP3   OH211384   5.375   4.954   0.383
 3793TIP3    H111385   5.437   4.980   0.314
 3793TIP3    H211386   5.323   5.033   0.399
 3794TIP3   OH211387   1.006   4.166   2.622
 3794TIP3    H111388   1.092   4.127   2.638
 3794TIP3    H211389   0.962   4.163   2.707
 3795TIP3   OH211390   5.115   0.372   0.369
 3795TIP3    H111391   5.180   0.431   0.408
 3795TIP3    H211392   5.128   0.382   0.274
 3796TIP3   OH211393   1.652   2.065   3.163
 3796TIP3    H111394   1.570   2.090   3.204
 3796TIP3    H211395   1.633   1.983   3.116
 3797TIP3   OH211396   1.904   4.788   0.215
 3797TIP3    H111397   1.830   4.766   0.271
 3797TIP3    H211398   1.975   4.731   0.245
 3798TIP3   OH211399   6.092   4.763   0.580
 3798TIP3    H111400   6.065   4.696   0.517
 3798TIP3    H211401   6.185   4.746   0.594
 3799TIP3   OH211402   1.104   1.487   4.935
 3799TIP3    H111403   1.166   1.515   4.867
 3799TIP3    H211404   1.020   1.482   4.890
 3800TIP3   OH211405   3.149   2.742   2.979
 3800TIP3    H111406   3.141   2.776   3.068
 3800TIP3    H211407   3.069   2.769   2.936
 3801TIP3   OH211408   2.121   5.755   3.882
 3801TIP3    H111409   2.094   5.780   3.793
 3801TIP3    H211410   2.040   5.741   3.929
 3802TIP3   OH211411   5.197   2.708   4.544
 3802TIP3    H111412   5.125   2.744   4.597
 3802TIP3    H211413   5.237   2.642   4.601
 3803TIP3   OH211414   2.307   5.986   3.955
 3803TIP3    H111415   2.251   5.923   4.000
 3803TIP3    H211416   2.323   6.054   4.020
 3804TIP3   OH211417   2.501   0.814   3.372
 3804TIP3    H111418   2.508   0.740   3.311
 3804TIP3    H211419   2.489   0.891   3.315
 3805TIP3   OH211420   4.360   0.524   4.295
 3805TIP3    H111421   4.322   0.524   4.383
 3805TIP3    H211422   4.326   0.444   4.254
 3806TIP3   OH211423   6.123   2.288   2.688
 3806TIP3    H111424   6.028   2.280   2.698
 3806TIP3    H211425   6.142   2.379   2.709
 3807TIP3   OH211426   3.152   1.960   3.836
 3807TIP3    H111427   3.093   2.022   3.795
 3807TIP3    H211428   3.102   1.924   3.910
 3808TIP3   OH211429   1.058   4.621   3.290
 3808TIP3    H111430   0.998   4.646   3.220
 3808TIP3    H211431   1.020   4.541   3.327
 3809TIP3   OH211432   2.076   0.934   3.981
 3809TIP3    H111433   2.006   0.880   3.943
 3809TIP3    H211434   2.036   1.020   3.994
 3810TIP3   OH211435   5.890   0.634   3.904
 3810TIP3    H111436   5.809   0.660   3.949
 3810TIP3    H211437   5.910   0.548   3.941
 3811TIP3   OH211438   1.929   5.424   0.353
 3811TIP3    H111439   1.837   5.400   0.357
 3811TIP3    H211440   1.976   5.341   0.350
 3812TIP3   OH211441   3.136   3.013   2.309
 3812TIP3    H111442   3.164   2.938   2.257
 3812TIP3    H211443   3.193   3.011   2.386
 3813TIP3   OH211444   4.414   0.779  -0.049
 3813TIP3    H111445   4.408   0.729   0.032
 3813TIP3    H211446   4.508   0.779  -0.069
 3814TIP3   OH211447   1.695   1.081   2.895
 3814TIP3    H111448   1.790   1.090   2.891
 3814TIP3    H211449   1.676   0.999   2.851
 3815TIP3   OH211450   0.464   2.287   3.908
 3815TIP3    H111451   0.371   2.283   3.931
 3815TIP3    H211452   0.469   2.354   3.839
 3816TIP3   OH211453   5.739   3.327   0.707
 3816TIP3    H111454   5.687   3.248   0.702
 3816TIP3    H211455   5.723   3.361   0.796
 3817TIP3   OH211456   4.253   5.143   1.996
 3817TIP3    H111457   4.343   5.174   2.006
 3817TIP3    H211458   4.215   5.149   2.083
 3818TIP3   OH211459   5.862   2.424   1.351
 3818TIP3    H111460   5.789   2.485   1.344
 3818TIP3    H211461   5.862   2.397   1.443
 3819TIP3   OH211462   2.074   5.860   3.611
 3819TIP3    H111463   2.124   5.782   3.586
 3819TIP3    H211464   1.986   5.844   3.577
 3820TIP3   OH211465   0.093   4.955   3.030
 3820TIP3    H111466   0.183   4.926   3.015
 3820TIP3    H211467   0.050   4.882   3.073
 3821TIP3   OH211468   5.399   1.468   0.023
 3821TIP3    H111469   5.371   1.398  -0.036
 3821TIP3    H211470   5.480   1.435   0.062
 3822TIP3   OH211471   3.919   0.648   4.739
 3822TIP3    H111472   3.841   0.682   4.783
 3822TIP3    H211473   3.931   0.560   4.773
 3823TIP3   OH211474   3.795   5.045   4.824
 3823TIP3    H111475   3.703   5.057   4.801
 3823TIP3    H211476   3.813   4.954   4.800
 3824TIP3   OH211477   5.857   5.546   1.611
 3824TIP3    H111478   5.923   5.595   1.660
 3824TIP3    H211479   5.819   5.486   1.675
 3825TIP3   OH211480   3.427   4.386   0.871
 3825TIP3    H111481   3.424   4.372   0.966
 3825TIP3    H211482   3.496   4.450   0.858
 3826TIP3   OH211483   0.043   4.178   0.374
 3826TIP3    H111484  -0.021   4.188   0.444
 3826TIP3    H211485  -0.008   4.187   0.293
 3827TIP3   OH211486   5.769   1.626   0.165
 3827TIP3    H111487   5.828   1.614   0.090
 3827TIP3    H211488   5.746   1.719   0.163
 3828TIP3   OH211489   6.052   1.972   1.930
 3828TIP3    H111490   6.130   1.970   1.985
 3828TIP3    H211491   6.031   1.880   1.915
 3829TIP3   OH211492   4.139   0.270   2.877
 3829TIP3    H111493   4.061   0.310   2.838
 3829TIP3    H211494   4.211   0.299   2.822
 3830TIP3   OH211495   6.193   0.414   4.234
 3830TIP3    H111496   6.258   0.450   4.173
 3830TIP3    H211497   6.153   0.492   4.274
 3831TIP3   OH211498   2.454   3.143   0.216
 3831TIP3    H111499   2.459   3.071   0.153
 3831TIP3    H211500   2.545   3.171   0.227
 3832TIP3   OH211501   4.243   5.973   4.208
 3832TIP3    H111502   4.311   6.017   4.259
 3832TIP3    H211503   4.252   5.880   4.230
 3833TIP3   OH211504   5.336   0.602   1.515
 3833TIP3    H111505   5.362   0.692   1.536
 3833TIP3    H211506   5.373   0.549   1.585
 3834TIP3   OH211507   3.601   5.500   4.158
 3834TIP3    H111508   3.611   5.578   4.213
 3834TIP3    H211509   3.538   5.526   4.091
 3835TIP3   OH211510   3.806   3.323   4.610
 3835TIP3    H111511   3.862   3.398   4.591
 3835TIP3    H211512   3.815   3.310   4.705
 3836TIP3   OH211513   1.084   1.944   2.709
 3836TIP3    H111514   1.109   1.912   2.623
 3836TIP3    H211515   1.166   1.944   2.759
 3837TIP3   OH211516   3.536   0.771   3.505
 3837TIP3    H111517   3.578   0.807   3.583
 3837TIP3    H211518   3.452   0.816   3.500
 3838TIP3   OH211519   3.992   1.798   4.446
 3838TIP3    H111520   4.072   1.816   4.496
 3838TIP3    H211521   3.995   1.858   4.372
 3839TIP3   OH211522   2.520   4.734   3.776
 3839TIP3    H111523   2.591   4.687   3.732
 3839TIP3    H211524   2.468   4.770   3.705
 3840TIP3   OH211525   2.617   3.581   4.106
 3840TIP3    H111526   2.568   3.663   4.112
 3840TIP3    H211527   2.706   3.603   4.133
 3841TIP3   OH211528   4.668   3.579   1.868
 3841TIP3    H111529   4.701   3.638   1.937
 3841TIP3    H211530   4.693   3.622   1.787
 3842TIP3   OH211531   5.596   4.923   2.807
 3842TIP3    H111532   5.670   4.966   2.764
 3842TIP3    H211533   5.578   4.846   2.752
 3843TIP3   OH211534   4.831   4.290   0.721
 3843TIP3    H111535   4.761   4.264   0.661
 3843TIP3    H211536   4.912   4.278   0.671
 3844TIP3   OH211537   2.611   1.895   4.269
 3844TIP3    H111538   2.647   1.975   4.307
 3844TIP3    H211539   2.581   1.844   4.344
 3845TIP3   OH211540   1.087   5.229   1.283
 3845TIP3    H111541   1.182   5.241   1.293
 3845TIP3    H211542   1.059   5.188   1.365
 3846TIP3   OH211543   3.620   0.062   4.263
 3846TIP3    H111544   3.530   0.084   4.236
 3846TIP3    H211545   3.665   0.147   4.266
 3847TIP3   OH211546   3.901   4.642   2.623
 3847TIP3    H111547   3.982   4.647   2.573
 3847TIP3    H211548   3.892   4.729   2.661
 3848TIP3   OH211549   6.103   3.373   5.026
 3848TIP3    H111550   6.166   3.366   4.954
 3848TIP3    H211551   6.044   3.298   5.013
 3849TIP3   OH211552   5.646   2.295   1.028
 3849TIP3    H111553   5.586   2.221   1.017
 3849TIP3    H211554   5.589   2.372   1.030
 3850TIP3   OH211555   0.514   5.780   2.170
 3850TIP3    H111556   0.462   5.847   2.125
 3850TIP3    H211557   0.451   5.734   2.225
 3851TIP3   OH211558   0.419   5.884   4.214
 3851TIP3    H111559   0.452   5.924   4.134
 3851TIP3    H211560   0.361   5.814   4.184
 3852TIP3   OH211561   6.289   1.473   0.893
 3852TIP3    H111562   6.206   1.487   0.848
 3852TIP3    H211563   6.316   1.560   0.921
 3853TIP3   OH211564   0.476   5.535   0.573
 3853TIP3    H111565   0.442   5.621   0.599
 3853TIP3    H211566   0.443   5.523   0.484
 3854TIP3   OH211567   1.347   2.849   1.147
 3854TIP3    H111568   1.287   2.884   1.212
 3854TIP3    H211569   1.419   2.812   1.199
 3855TIP3   OH211570   5.444   2.420   0.711
 3855TIP3    H111571   5.370   2.477   0.688
 3855TIP3    H211572   5.421   2.385   0.797
 3856TIP3   OH211573   1.796   1.380   0.914
 3856TIP3    H111574   1.775   1.317   0.983
 3856TIP3    H211575   1.825   1.327   0.840
 3857TIP3   OH211576   3.455   0.622   4.823
 3857TIP3    H111577   3.456   0.712   4.789
 3857TIP3    H211578   3.495   0.570   4.754
 3858TIP3   OH211579   2.368   5.343   1.314
 3858TIP3    H111580   2.442   5.366   1.370
 3858TIP3    H211581   2.402   5.277   1.254
 3859TIP3   OH211582   5.381   1.663   1.845
 3859TIP3    H111583   5.377   1.705   1.931
 3859TIP3    H211584   5.475   1.656   1.827
 3860TIP3   OH211585   4.702   3.639   4.647
 3860TIP3    H111586   4.685   3.652   4.740
 3860TIP3    H211587   4.794   3.663   4.636
 3861TIP3   OH211588   1.551   3.027   4.442
 3861TIP3    H111589   1.498   2.979   4.505
 3861TIP3    H211590   1.489   3.084   4.396
 3862TIP3   OH211591   4.940   1.115   4.366
 3862TIP3    H111592   4.891   1.159   4.296
 3862TIP3    H211593   5.032   1.121   4.338
 3863TIP3   OH211594   6.134   3.908   3.145
 3863TIP3    H111595   6.214   3.910   3.199
 3863TIP3    H211596   6.163   3.875   3.060
 3864TIP3   OH211597   5.808   1.654   0.453
 3864TIP3    H111598   5.748   1.668   0.381
 3864TIP3    H211599   5.894   1.647   0.411
 3865TIP3   OH211600   2.906   2.855   3.743
 3865TIP3    H111601   2.861   2.806   3.674
 3865TIP3    H211602   2.948   2.928   3.698
 3866TIP3   OH211603   3.855   0.281   4.553
 3866TIP3    H111604   3.949   0.272   4.566
 3866TIP3    H211605   3.845   0.295   4.459
 3867TIP3   OH211606   6.321   5.613   1.892
 3867TIP3    H111607   6.283   5.532   1.927
 3867TIP3    H211608   6.395   5.632   1.950
 3868TIP3   OH211609   2.870   1.316   3.059
 3868TIP3    H111610   2.941   1.254   3.039
 3868TIP3    H211611   2.793   1.260   3.071
 3869TIP3   OH211612   0.632   4.702   0.833
 3869TIP3    H111613   0.584   4.656   0.902
 3869TIP3    H211614   0.673   4.776   0.878
 3870TIP3   OH211615   5.131   5.539   4.608
 3870TIP3    H111616   5.211   5.560   4.656
 3870TIP3    H211617   5.060   5.576   4.662
 3871TIP3   OH211618   2.075   3.894   4.924
 3871TIP3    H111619   2.104   3.881   5.014
 3871TIP3    H211620   2.141   3.849   4.871
 3872TIP3   OH211621   0.979   2.012   1.162
 3872TIP3    H111622   0.931   2.001   1.245
 3872TIP3    H211623   0.928   1.962   1.099
 3873TIP3   OH211624   3.585   3.851   3.425
 3873TIP3    H111625   3.549   3.923   3.374
 3873TIP3    H211626   3.612   3.890   3.508
 3874TIP3   OH211627   5.059   4.533   3.089
 3874TIP3    H111628   5.047   4.609   3.146
 3874TIP3    H211629   4.973   4.517   3.052
 3875TIP3   OH211630   5.512   2.942   2.727
 3875TIP3    H111631   5.515   3.013   2.663
 3875TIP3    H211632   5.456   2.975   2.797
 3876TIP3   OH211633   5.641   4.757   0.741
 3876TIP3    H111634   5.724   4.786   0.703
 3876TIP3    H211635   5.583   4.746   0.666
 3877TIP3   OH211636   1.458   5.695   3.226
 3877TIP3    H111637   1.470   5.769   3.285
 3877TIP3    H211638   1.412   5.732   3.150
 3878TIP3   OH211639   4.130   4.841   2.059
 3878TIP3    H111640   4.222   4.856   2.039
 3878TIP3    H211641   4.110   4.903   2.129
 3879TIP3   OH211642   0.378   3.696   1.080
 3879TIP3    H111643   0.393   3.783   1.043
 3879TIP3    H211644   0.395   3.636   1.007
 3880TIP3   OH211645   2.501   0.128   2.723
 3880TIP3    H111646   2.470   0.056   2.668
 3880TIP3    H211647   2.511   0.088   2.810
 3881TIP3   OH211648   2.620   1.336   0.128
 3881TIP3    H111649   2.599   1.372   0.041
 3881TIP3    H211650   2.664   1.253   0.110
 3882TIP3   OH211651   0.738   3.776   1.620
 3882TIP3    H111652   0.643   3.785   1.622
 3882TIP3    H211653   0.756   3.728   1.539
 3883TIP3   OH211654   0.884   5.575   2.909
 3883TIP3    H111655   0.803   5.602   2.952
 3883TIP3    H211656   0.909   5.651   2.856
 3884TIP3   OH211657   0.505   2.422   4.818
 3884TIP3    H111658   0.468   2.383   4.898
 3884TIP3    H211659   0.477   2.364   4.748
 3885TIP3   OH211660   2.439   2.457   4.316
 3885TIP3    H111661   2.374   2.391   4.294
 3885TIP3    H211662   2.399   2.540   4.288
 3886TIP3   OH211663   3.220   2.634   0.060
 3886TIP3    H111664   3.175   2.700   0.113
 3886TIP3    H211665   3.280   2.592   0.121
 3887TIP3   OH211666   3.956   1.902   1.732
 3887TIP3    H111667   3.962   1.995   1.753
 3887TIP3    H211668   4.044   1.878   1.702
 3888TIP3   OH211669   4.554   2.694   0.369
 3888TIP3    H111670   4.479   2.727   0.319
 3888TIP3    H211671   4.630   2.713   0.314
 3889TIP3   OH211672   4.473   0.085   1.926
 3889TIP3    H111673   4.562   0.114   1.941
 3889TIP3    H211674   4.443   0.052   2.010
 3890TIP3   OH211675   0.463   1.292   2.978
 3890TIP3    H111676   0.454   1.323   3.068
 3890TIP3    H211677   0.387   1.328   2.933
 3891TIP3   OH211678   6.233   5.852   2.306
 3891TIP3    H111679   6.321   5.889   2.298
 3891TIP3    H211680   6.182   5.921   2.348
 3892TIP3   OH211681   6.072   2.193   2.989
 3892TIP3    H111682   6.007   2.172   2.922
 3892TIP3    H211683   6.096   2.108   3.026
 3893TIP3   OH211684   0.143   3.327   5.032
 3893TIP3    H111685   0.064   3.323   4.977
 3893TIP3    H211686   0.119   3.277   5.111
 3894TIP3   OH211687   5.041   2.371   0.726
 3894TIP3    H111688   5.125   2.408   0.699
 3894TIP3    H211689   4.977   2.416   0.672
 3895TIP3   OH211690   3.475   5.345   1.142
 3895TIP3    H111691   3.388   5.354   1.179
 3895TIP3    H211692   3.504   5.435   1.128
 3896TIP3   OH211693   0.464   4.240   3.838
 3896TIP3    H111694   0.406   4.275   3.906
 3896TIP3    H211695   0.418   4.163   3.805
 3897TIP3   OH211696   4.657   3.682   1.185
 3897TIP3    H111697   4.592   3.656   1.119
 3897TIP3    H211698   4.605   3.709   1.261
 3898TIP3   OH211699   1.422   0.505   2.682
 3898TIP3    H111700   1.482   0.462   2.621
 3898TIP3    H211701   1.341   0.515   2.632
 3899TIP3   OH211702   0.549   2.806   2.252
 3899TIP3    H111703   0.533   2.892   2.213
 3899TIP3    H211704   0.596   2.824   2.333
 3900TIP3   OH211705   0.947   3.794   0.926
 3900TIP3    H111706   0.903   3.878   0.921
 3900TIP3    H211707   0.885   3.731   0.889
 3901TIP3   OH211708   2.312   0.381   1.508
 3901TIP3    H111709   2.251   0.319   1.548
 3901TIP3    H211710   2.288   0.465   1.547
 3902TIP3   OH211711   4.696   1.348   2.585
 3902TIP3    H111712   4.666   1.339   2.494
 3902TIP3    H211713   4.733   1.262   2.606
 3903TIP3   OH211714   2.267   4.648   0.736
 3903TIP3    H111715   2.305   4.579   0.682
 3903TIP3    H211716   2.280   4.729   0.686
 3904TIP3   OH211717   1.324   0.290   3.115
 3904TIP3    H111718   1.304   0.336   3.033
 3904TIP3    H211719   1.242   0.248   3.139
 3905TIP3   OH211720   4.620   0.010   1.429
 3905TIP3    H111721   4.690   0.074   1.434
 3905TIP3    H211722   4.663  -0.074   1.445
 3906TIP3   OH211723   6.108   4.941   0.350
 3906TIP3    H111724   6.169   5.008   0.318
 3906TIP3    H211725   6.135   4.925   0.440
 3907TIP3   OH211726   0.070   2.402   3.504
 3907TIP3    H111727   0.030   2.379   3.420
 3907TIP3    H211728   0.050   2.328   3.561
 3908TIP3   OH211729   4.472   0.206   4.607
 3908TIP3    H111730   4.448   0.117   4.582
 3908TIP3    H211731   4.568   0.204   4.611
 3909TIP3   OH211732   4.522   5.935   0.186
 3909TIP3    H111733   4.537   5.893   0.101
 3909TIP3    H211734   4.431   5.964   0.183
 3910TIP3   OH211735   2.605   2.440   2.912
 3910TIP3    H111736   2.635   2.376   2.976
 3910TIP3    H211737   2.662   2.426   2.836
 3911TIP3   OH211738   2.485   3.963   3.147
 3911TIP3    H111739   2.513   3.872   3.134
 3911TIP3    H211740   2.558   4.003   3.194
 3912TIP3   OH211741   1.234   2.077   4.159
 3912TIP3    H111742   1.219   2.079   4.253
 3912TIP3    H211743   1.314   2.128   4.146
 3913TIP3   OH211744   0.108   5.822   3.957
 3913TIP3    H111745   0.170   5.863   3.896
 3913TIP3    H211746   0.156   5.748   3.993
 3914TIP3   OH211747   2.673   0.692   4.456
 3914TIP3    H111748   2.627   0.720   4.377
 3914TIP3    H211749   2.695   0.601   4.441
 3915TIP3   OH211750   6.254   5.137   3.480
 3915TIP3    H111751   6.328   5.078   3.464
 3915TIP3    H211752   6.278   5.185   3.559
 3916TIP3   OH211753   4.541   0.179   3.542
 3916TIP3    H111754   4.634   0.162   3.557
 3916TIP3    H211755   4.496   0.123   3.605
 3917TIP3   OH211756   1.762   1.492   3.505
 3917TIP3    H111757   1.705   1.474   3.579
 3917TIP3    H211758   1.737   1.428   3.439
 3918TIP3   OH211759   0.422   0.726   2.269
 3918TIP3    H111760   0.449   0.752   2.180
 3918TIP3    H211761   0.501   0.687   2.307
 3919TIP3   OH211762   6.268   1.585   4.012
 3919TIP3    H111763   6.310   1.541   4.086
 3919TIP3    H211764   6.337   1.594   3.947
 3920TIP3   OH211765   0.990   5.809   2.809
 3920TIP3    H111766   1.059   5.809   2.743
 3920TIP3    H211767   0.977   5.901   2.830
 3921TIP3   OH211768   0.386   4.080   1.631
 3921TIP3    H111769   0.331   4.024   1.687
 3921TIP3    H211770   0.424   4.144   1.691
 3922TIP3   OH211771   1.137   2.067   2.208
 3922TIP3    H111772   1.201   2.003   2.177
 3922TIP3    H211773   1.158   2.147   2.159
 3923TIP3   OH211774   2.463   1.348   2.996
 3923TIP3    H111775   2.433   1.436   2.974
 3923TIP3    H211776   2.396   1.314   3.055
 3924TIP3   OH211777   2.262   1.944   3.607
 3924TIP3    H111778   2.350   1.976   3.626
 3924TIP3    H211779   2.210   1.969   3.683
 3925TIP3   OH211780   3.767   4.399   3.078
 3925TIP3    H111781   3.778   4.425   2.986
 3925TIP3    H211782   3.783   4.479   3.128
 3926TIP3   OH211783   2.297   3.506   3.496
 3926TIP3    H111784   2.298   3.411   3.492
 3926TIP3    H211785   2.267   3.526   3.585
 3927TIP3   OH211786   4.545   5.573   3.593
 3927TIP3    H111787   4.501   5.655   3.572
 3927TIP3    H211788   4.488   5.530   3.656
 3928TIP3   OH211789   1.523   0.674   3.571
 3928TIP3    H111790   1.618   0.678   3.583
 3928TIP3    H211791   1.488   0.731   3.639
 3929TIP3   OH211792   4.662   1.154   1.717
 3929TIP3    H111793   4.577   1.124   1.749
 3929TIP3    H211794   4.681   1.097   1.643
 3930TIP3   OH211795   2.432   2.253   3.336
 3930TIP3    H111796   2.440   2.337   3.292
 3930TIP3    H211797   2.373   2.202   3.280
 3931TIP3   OH211798   4.913   5.208   2.690
 3931TIP3    H111799   4.846   5.139   2.695
 3931TIP3    H211800   4.867   5.284   2.654
 3932TIP3   OH211801   0.236   0.714   3.366
 3932TIP3    H111802   0.149   0.730   3.329
 3932TIP3    H211803   0.291   0.691   3.291
 3933TIP3   OH211804   5.837   5.640   3.017
 3933TIP3    H111805   5.801   5.690   3.090
 3933TIP3    H211806   5.780   5.660   2.943
 3934TIP3   OH211807   0.239   4.110   2.696
 3934TIP3    H111808   0.158   4.128   2.745
 3934TIP3    H211809   0.210   4.101   2.605
 3935TIP3   OH211810   0.003   0.866   4.204
 3935TIP3    H111811   0.080   0.891   4.255
 3935TIP3    H211812   0.021   0.776   4.176
 3936TIP3   OH211813   1.462   4.431   4.347
 3936TIP3    H111814   1.444   4.437   4.253
 3936TIP3    H211815   1.406   4.359   4.377
 3937TIP3   OH211816   6.028   4.245   0.330
 3937TIP3    H111817   6.118   4.260   0.300
 3937TIP3    H211818   5.975   4.252   0.251
 3938TIP3   OH211819   4.228   3.198   0.750
 3938TIP3    H111820   4.188   3.150   0.678
 3938TIP3    H211821   4.298   3.141   0.781
 3939TIP3   OH211822   5.504   2.620   2.773
 3939TIP3    H111823   5.566   2.597   2.843
 3939TIP3    H211824   5.496   2.715   2.778
 3940TIP3   OH211825   5.407   3.632   2.268
 3940TIP3    H111826   5.357   3.609   2.190
 3940TIP3    H211827   5.412   3.551   2.318
 3941TIP3   OH211828   0.846   5.101   4.299
 3941TIP3    H111829   0.876   5.113   4.209
 3941TIP3    H211830   0.753   5.078   4.291
 3942TIP3   OH211831   3.315   1.540   0.892
 3942TIP3    H111832   3.363   1.492   0.824
 3942TIP3    H211833   3.235   1.490   0.905
 3943TIP3   OH211834   5.082   4.849   4.127
 3943TIP3    H111835   5.064   4.756   4.114
 3943TIP3    H211836   5.155   4.868   4.067
 3944TIP3   OH211837   2.791   2.603   2.380
 3944TIP3    H111838   2.737   2.681   2.394
 3944TIP3    H211839   2.822   2.580   2.468
 3945TIP3   OH211840   4.390   3.342   1.749
 3945TIP3    H111841   4.456   3.343   1.818
 3945TIP3    H211842   4.440   3.350   1.668
 3946TIP3   OH211843   0.702   3.917   2.833
 3946TIP3    H111844   0.626   3.971   2.812
 3946TIP3    H211845   0.770   3.980   2.858
 3947TIP3   OH211846   2.940   1.088   3.348
 3947TIP3    H111847   2.980   1.126   3.427
 3947TIP3    H211848   3.008   1.097   3.280
 3948TIP3   OH211849   3.845   1.834   2.611
 3948TIP3    H111850   3.758   1.860   2.640
 3948TIP3    H211851   3.865   1.756   2.663
 3949TIP3   OH211852   5.885   2.671   1.813
 3949TIP3    H111853   5.836   2.604   1.861
 3949TIP3    H211854   5.914   2.732   1.881
 3950TIP3   OH211855   3.230   2.634   2.545
 3950TIP3    H111856   3.180   2.569   2.594
 3950TIP3    H211857   3.213   2.614   2.453
 3951TIP3   OH211858   2.348   4.098   1.099
 3951TIP3    H111859   2.320   4.017   1.141
 3951TIP3    H211860   2.289   4.109   1.025
 3952TIP3   OH211861   2.633   0.133   5.047
 3952TIP3    H111862   2.597   0.177   5.124
 3952TIP3    H211863   2.705   0.189   5.018
 3953TIP3   OH211864   4.568   4.766   4.324
 3953TIP3    H111865   4.513   4.842   4.307
 3953TIP3    H211866   4.620   4.756   4.244
 3954TIP3   OH211867   6.038   4.411   0.087
 3954TIP3    H111868   6.030   4.396  -0.008
 3954TIP3    H211869   5.984   4.488   0.104
 3955TIP3   OH211870   4.358   5.494   4.542
 3955TIP3    H111871   4.273   5.536   4.554
 3955TIP3    H211872   4.384   5.516   4.452
 3956TIP3   OH211873   5.774   5.587   0.155
 3956TIP3    H111874   5.781   5.653   0.086
 3956TIP3    H211875   5.719   5.628   0.221
 3957TIP3   OH211876   5.784   0.761   1.106
 3957TIP3    H111877   5.791   0.667   1.125
 3957TIP3    H211878   5.727   0.795   1.174
 3958TIP3   OH211879   3.870   0.415   1.129
 3958TIP3    H111880   3.897   0.357   1.201
 3958TIP3    H211881   3.777   0.396   1.118
 3959TIP3   OH211882   1.851   5.310   1.274
 3959TIP3    H111883   1.931   5.323   1.324
 3959TIP3    H211884   1.835   5.394   1.232
 3960TIP3   OH211885   2.291   3.264   1.133
 3960TIP3    H111886   2.270   3.286   1.042
 3960TIP3    H211887   2.264   3.173   1.143
 3961TIP3   OH211888   4.784   5.543   1.126
 3961TIP3    H111889   4.699   5.563   1.087
 3961TIP3    H211890   4.835   5.624   1.115
 3962TIP3   OH211891   2.856   4.966   3.876
 3962TIP3    H111892   2.898   5.044   3.913
 3962TIP3    H211893   2.836   4.912   3.952
 3963TIP3   OH211894   2.153   3.538   4.909
 3963TIP3    H111895   2.065   3.575   4.913
 3963TIP3    H211896   2.207   3.608   4.870
 3964TIP3   OH211897   0.613   4.040   4.681
 3964TIP3    H111898   0.654   4.066   4.764
 3964TIP3    H211899   0.633   4.113   4.622
 3965TIP3   OH211900   0.798   1.770   2.421
 3965TIP3    H111901   0.817   1.680   2.444
 3965TIP3    H211902   0.881   1.816   2.433
 3966TIP3   OH211903   2.661   2.564   4.438
 3966TIP3    H111904   2.660   2.659   4.425
 3966TIP3    H211905   2.576   2.534   4.407
 3967TIP3   OH211906   0.470   0.478   2.708
 3967TIP3    H111907   0.522   0.476   2.628
 3967TIP3    H211908   0.448   0.387   2.724
 3968TIP3   OH211909   3.630   3.763   2.709
 3968TIP3    H111910   3.663   3.847   2.675
 3968TIP3    H211911   3.685   3.745   2.785
 3969TIP3   OH211912   5.081   4.083   3.949
 3969TIP3    H111913   4.999   4.110   3.908
 3969TIP3    H211914   5.131   4.040   3.879
 3970TIP3   OH211915   0.353   1.594   0.383
 3970TIP3    H111916   0.286   1.583   0.316
 3970TIP3    H211917   0.436   1.595   0.335
 3971TIP3   OH211918   1.852   1.363   4.913
 3971TIP3    H111919   1.780   1.302   4.931
 3971TIP3    H211920   1.823   1.446   4.950
 3972TIP3   OH211921   5.213   3.185   3.811
 3972TIP3    H111922   5.161   3.265   3.804
 3972TIP3    H211923   5.181   3.143   3.891
 3973TIP3   OH211924   6.235   0.098   3.335
 3973TIP3    H111925   6.236   0.089   3.240
 3973TIP3    H211926   6.175   0.029   3.365
 3974TIP3   OH211927   0.771   4.677   4.149
 3974TIP3    H111928   0.805   4.619   4.080
 3974TIP3    H211929   0.783   4.765   4.115
 3975TIP3   OH211930   5.794   5.227   4.254
 3975TIP3    H111931   5.751   5.207   4.171
 3975TIP3    H211932   5.728   5.208   4.320
 3976TIP3   OH211933   5.855   1.280   3.184
 3976TIP3    H111934   5.899   1.276   3.269
 3976TIP3    H211935   5.829   1.371   3.174
 3977TIP3   OH211936   4.739   2.528   1.850
 3977TIP3    H111937   4.674   2.477   1.802
 3977TIP3    H211938   4.714   2.619   1.835
 3978TIP3   OH211939   0.962   4.221   3.850
 3978TIP3    H111940   0.943   4.127   3.854
 3978TIP3    H211941   0.915   4.251   3.773
 3979TIP3   OH211942   4.228   1.428   4.294
 3979TIP3    H111943   4.228   1.374   4.374
 3979TIP3    H211944   4.189   1.511   4.322
 3980TIP3   OH211945   2.573   4.851   1.613
 3980TIP3    H111946   2.619   4.888   1.689
 3980TIP3    H211947   2.538   4.927   1.567
 3981TIP3   OH211948   0.686   5.801   0.284
 3981TIP3    H111949   0.595   5.833   0.284
 3981TIP3    H211950   0.700   5.771   0.194
 3982TIP3   OH211951   4.598   1.860   0.518
 3982TIP3    H111952   4.593   1.875   0.424
 3982TIP3    H211953   4.692   1.861   0.538
 3983TIP3   OH211954   0.072   3.386   3.839
 3983TIP3    H111955  -0.022   3.391   3.824
 3983TIP3    H211956   0.106   3.470   3.806
 3984TIP3   OH211957   5.715   2.488   0.699
 3984TIP3    H111958   5.642   2.465   0.643
 3984TIP3    H211959   5.715   2.584   0.700
 3985TIP3   OH211960   5.646   5.203   4.018
 3985TIP3    H111961   5.594   5.147   3.961
 3985TIP3    H211962   5.582   5.261   4.059
 3986TIP3   OH211963   5.432   1.672   3.542
 3986TIP3    H111964   5.338   1.652   3.544
 3986TIP3    H211965   5.458   1.675   3.634
 3987TIP3   OH211966   5.397   4.528   2.284
 3987TIP3    H111967   5.345   4.484   2.351
 3987TIP3    H211968   5.470   4.567   2.333
 3988TIP3   OH211969   4.340   1.527   3.928
 3988TIP3    H111970   4.281   1.452   3.936
 3988TIP3    H211971   4.339   1.567   4.014
 3989TIP3   OH211972   4.654   1.439   0.043
 3989TIP3    H111973   4.693   1.400   0.121
 3989TIP3    H211974   4.572   1.478   0.073
 3990TIP3   OH211975   2.996   1.967   2.727
 3990TIP3    H111976   2.926   1.961   2.663
 3990TIP3    H211977   2.974   1.903   2.794
 3991TIP3   OH211978   6.159   0.043   2.329
 3991TIP3    H111979   6.211   0.122   2.316
 3991TIP3    H211980   6.128   0.049   2.420
 3992TIP3   OH211981   4.170   5.683   3.511
 3992TIP3    H111982   4.227   5.632   3.453
 3992TIP3    H211983   4.082   5.669   3.476
 3993TIP3   OH211984   1.174   2.219   4.931
 3993TIP3    H111985   1.231   2.201   4.857
 3993TIP3    H211986   1.171   2.315   4.938
 3994TIP3   OH211987   2.298   4.661   4.898
 3994TIP3    H111988   2.300   4.673   4.803
 3994TIP3    H211989   2.206   4.644   4.918
 3995TIP3   OH211990   3.898   2.790   3.780
 3995TIP3    H111991   3.949   2.822   3.854
 3995TIP3    H211992   3.827   2.739   3.819
 3996TIP3   OH211993   0.466   1.431   1.722
 3996TIP3    H111994   0.484   1.400   1.811
 3996TIP3    H211995   0.410   1.364   1.684
 3997TIP3   OH211996   3.997   1.682   0.737
 3997TIP3    H111997   3.938   1.607   0.735
 3997TIP3    H211998   4.083   1.644   0.756
 3998TIP3   OH211999   0.581   2.516   3.341
 3998TIP3    H112000   0.570   2.603   3.301
 3998TIP3    H212001   0.492   2.488   3.361
 3999TIP3   OH212002   1.497   0.829   3.126
 3999TIP3    H112003   1.539   0.844   3.041
 3999TIP3    H212004   1.570   0.810   3.185
 4000TIP3   OH212005   4.270   3.664   3.132
 4000TIP3    H112006   4.320   3.618   3.199
 4000TIP3    H212007   4.294   3.756   3.142
 4001TIP3   OH212008   5.412   2.303   5.090
 4001TIP3    H112009   5.454   2.311   5.004
 4001TIP3    H212010   5.375   2.214   5.090
 4002TIP3   OH212011   4.679   0.036   5.066
 4002TIP3    H112012   4.606  -0.003   5.114
 4002TIP3    H212013   4.638   0.096   5.004
 4003TIP3   OH212014   3.720   2.422   1.071
 4003TIP3    H112015   3.687   2.358   1.134
 4003TIP3    H212016   3.740   2.370   0.993
 4004TIP3   OH212017   5.176   1.580   3.540
 4004TIP3    H112018   5.152   1.519   3.469
 4004TIP3    H212019   5.101   1.578   3.599
 4005TIP3   OH212020   4.960   0.332   4.261
 4005TIP3    H112021   5.017   0.397   4.220
 4005TIP3    H212022   4.936   0.372   4.345
 4006TIP3   OH212023   5.694   0.487   3.430
 4006TIP3    H112024   5.729   0.400   3.411
 4006TIP3    H212025   5.613   0.492   3.380
 4007TIP3   OH212026   0.640   3.464   0.950
 4007TIP3    H112027   0.568   3.436   0.894
 4007TIP3    H212028   0.698   3.513   0.893
 4008TIP3   OH212029   0.584   0.070   5.064
 4008TIP3    H112030   0.611   0.142   5.007
 4008TIP3    H212031   0.649   0.002   5.050
 4009TIP3   OH212032   2.149   1.953   0.951
 4009TIP3    H112033   2.145   1.938   1.046
 4009TIP3    H212034   2.140   2.047   0.941
 4010TIP3   OH212035   2.369   5.742   3.705
 4010TIP3    H112036   2.389   5.835   3.696
 4010TIP3    H212037   2.397   5.703   3.623
 4011TIP3   OH212038   0.955   3.832   3.128
 4011TIP3    H112039   0.975   3.919   3.164
 4011TIP3    H212040   0.936   3.778   3.204
 4012TIP3   OH212041   3.234   3.203   2.893
 4012TIP3    H112042   3.252   3.126   2.838
 4012TIP3    H212043   3.154   3.240   2.856
 4013TIP3   OH212044   1.997   2.533   3.008
 4013TIP3    H112045   1.978   2.453   2.958
 4013TIP3    H212046   2.027   2.596   2.942
 4014TIP3   OH212047   0.623   3.075   0.867
 4014TIP3    H112048   0.699   3.134   0.864
 4014TIP3    H212049   0.617   3.048   0.959
 4015TIP3   OH212050   3.115   4.578   4.100
 4015TIP3    H112051   3.146   4.646   4.160
 4015TIP3    H212052   3.180   4.509   4.105
 4016TIP3   OH212053   0.060   1.715   0.980
 4016TIP3    H112054   0.154   1.705   0.991
 4016TIP3    H212055   0.042   1.804   1.009
 4017TIP3   OH212056   4.181   3.244   2.792
 4017TIP3    H112057   4.226   3.256   2.876
 4017TIP3    H212058   4.162   3.333   2.762
 4018TIP3   OH212059   3.417   2.488   4.596
 4018TIP3    H112060   3.410   2.458   4.687
 4018TIP3    H212061   3.326   2.495   4.567
 4019TIP3   OH212062   3.786   4.071   1.028
 4019TIP3    H112063   3.736   4.130   1.084
 4019TIP3    H212064   3.792   4.117   0.944
 4020TIP3   OH212065   5.029   1.645   2.291
 4020TIP3    H112066   4.999   1.557   2.314
 4020TIP3    H212067   4.968   1.704   2.335
 4021TIP3   OH212068   4.852   2.044   0.693
 4021TIP3    H112069   4.878   1.961   0.653
 4021TIP3    H212070   4.833   2.102   0.619
 4022TIP3   OH212071   5.974   2.742   1.558
 4022TIP3    H112072   6.046   2.682   1.541
 4022TIP3    H212073   5.935   2.710   1.640
 4023TIP3   OH212074   4.853   1.219   3.316
 4023TIP3    H112075   4.760   1.205   3.331
 4023TIP3    H212076   4.895   1.142   3.355
 4024TIP3   OH212077   3.663   5.174   3.761
 4024TIP3    H112078   3.595   5.177   3.694
 4024TIP3    H212079   3.745   5.162   3.713
 4025TIP3   OH212080   4.371   0.725   1.981
 4025TIP3    H112081   4.464   0.729   1.960
 4025TIP3    H212082   4.327   0.706   1.898
 4026TIP3   OH212083   5.174   4.667   1.666
 4026TIP3    H112084   5.103   4.668   1.730
 4026TIP3    H212085   5.227   4.744   1.688
 4027TIP3   OH212086   4.357   5.076   3.398
 4027TIP3    H112087   4.305   5.157   3.400
 4027TIP3    H212088   4.436   5.098   3.447
 4028TIP3   OH212089   0.861   2.544   3.304
 4028TIP3    H112090   0.892   2.595   3.379
 4028TIP3    H212091   0.766   2.540   3.315
 4029TIP3   OH212092   3.883   0.281   4.269
 4029TIP3    H112093   3.919   0.255   4.184
 4029TIP3    H212094   3.888   0.202   4.322
 4030TIP3   OH212095   0.346   5.011   0.829
 4030TIP3    H112096   0.410   5.076   0.858
 4030TIP3    H212097   0.352   5.013   0.734
 4031TIP3   OH212098   1.019   0.635   3.322
 4031TIP3    H112099   1.081   0.639   3.395
 4031TIP3    H212100   1.040   0.712   3.269
 4032TIP3   OH212101   1.623   5.192   2.551
 4032TIP3    H112102   1.660   5.114   2.592
 4032TIP3    H212103   1.587   5.243   2.623
 4033TIP3   OH212104   3.189   2.162   3.216
 4033TIP3    H112105   3.167   2.222   3.286
 4033TIP3    H212106   3.111   2.108   3.204
 4034TIP3   OH212107   2.280   5.096   5.082
 4034TIP3    H112108   2.229   5.113   5.161
 4034TIP3    H212109   2.215   5.080   5.014
 4035TIP3   OH212110   1.034   5.955   1.588
 4035TIP3    H112111   1.089   5.992   1.519
 4035TIP3    H212112   1.068   5.867   1.602
 4036TIP3   OH212113   0.245   3.774   4.558
 4036TIP3    H112114   0.170   3.832   4.570
 4036TIP3    H212115   0.217   3.711   4.491
 4037TIP3   OH212116   2.986   4.578   3.133
 4037TIP3    H112117   3.081   4.594   3.131
 4037TIP3    H212118   2.979   4.486   3.159
 4038TIP3   OH212119   4.036   4.745   4.551
 4038TIP3    H112120   4.119   4.792   4.562
 4038TIP3    H212121   4.055   4.676   4.487
 4039TIP3   OH212122   5.973   0.739   0.675
 4039TIP3    H112123   5.933   0.824   0.656
 4039TIP3    H212124   6.013   0.712   0.592
 4040TIP3   OH212125   3.132   2.386   3.801
 4040TIP3    H112126   3.217   2.354   3.829
 4040TIP3    H212127   3.138   2.390   3.705
 4041TIP3   OH212128   4.077   4.022   1.804
 4041TIP3    H112129   4.053   4.077   1.729
 4041TIP3    H212130   4.097   3.936   1.765
 4042TIP3   OH212131   1.968   2.297   2.091
 4042TIP3    H112132   2.013   2.265   2.169
 4042TIP3    H212133   2.038   2.322   2.031
 4043TIP3   OH212134   5.660   5.221   3.227
 4043TIP3    H112135   5.619   5.302   3.198
 4043TIP3    H212136   5.601   5.152   3.195
 4044TIP3   OH212137   3.026   2.108   3.501
 4044TIP3    H112138   3.045   2.015   3.496
 4044TIP3    H212139   3.109   2.149   3.525
 4045TIP3   OH212140   5.594   3.693   1.597
 4045TIP3    H112141   5.634   3.682   1.683
 4045TIP3    H212142   5.593   3.788   1.583
 4046TIP3   OH212143   1.294   1.482   4.304
 4046TIP3    H112144   1.341   1.423   4.364
 4046TIP3    H212145   1.300   1.568   4.346
 4047TIP3   OH212146   2.065   5.380   3.305
 4047TIP3    H112147   2.119   5.336   3.239
 4047TIP3    H212148   2.015   5.310   3.346
 4048TIP3   OH212149   2.228   0.831   3.488
 4048TIP3    H112150   2.280   0.818   3.567
 4048TIP3    H212151   2.293   0.838   3.418
 4049TIP3   OH212152   2.821   5.398   0.763
 4049TIP3    H112153   2.743   5.392   0.708
 4049TIP3    H212154   2.894   5.390   0.703
 4050TIP3   OH212155   4.374   2.561   4.713
 4050TIP3    H112156   4.366   2.583   4.806
 4050TIP3    H212157   4.333   2.635   4.668
 4051TIP3   OH212158   5.490   4.035   4.684
 4051TIP3    H112159   5.441   4.117   4.686
 4051TIP3    H212160   5.427   3.969   4.656
 4052TIP3   OH212161  -0.006   2.171   0.792
 4052TIP3    H112162  -0.098   2.148   0.803
 4052TIP3    H212163   0.017   2.218   0.872
 4053TIP3   OH212164   3.797   0.188   2.696
 4053TIP3    H112165   3.754   0.139   2.767
 4053TIP3    H212166   3.860   0.244   2.741
 4054TIP3   OH212167   2.561   4.898   4.323
 4054TIP3    H112168   2.489   4.858   4.274
 4054TIP3    H212169   2.555   4.991   4.301
 4055TIP3   OH212170   5.980   3.561   0.924
 4055TIP3    H112171   6.050   3.497   0.932
 4055TIP3    H212172   5.981   3.609   1.007
 4056TIP3   OH212173   2.138   0.391   4.860
 4056TIP3    H112174   2.060   0.350   4.897
 4056TIP3    H212175   2.124   0.391   4.766
 4057TIP3   OH212176   5.131   2.640   3.743
 4057TIP3    H112177   5.039   2.658   3.724
 4057TIP3    H212178   5.147   2.678   3.829
 4058TIP3   OH212179   3.160   3.923   0.211
 4058TIP3    H112180   3.178   3.836   0.176
 4058TIP3    H212181   3.212   3.928   0.291
 4059TIP3   OH212182   0.551   2.118   2.824
 4059TIP3    H112183   0.600   2.109   2.742
 4059TIP3    H212184   0.608   2.171   2.880
 4060TIP3   OH212185   2.574   2.571   3.277
 4060TIP3    H112186   2.603   2.614   3.197
 4060TIP3    H212187   2.552   2.643   3.336
 4061TIP3   OH212188   0.166   3.447   1.772
 4061TIP3    H112189   0.152   3.353   1.781
 4061TIP3    H212190   0.261   3.458   1.770
 4062TIP3   OH212191   0.767   2.097   0.230
 4062TIP3    H112192   0.675   2.097   0.203
 4062TIP3    H212193   0.814   2.059   0.155
 4063TIP3   OH212194   2.677   3.806   1.683
 4063TIP3    H112195   2.704   3.864   1.612
 4063TIP3    H212196   2.606   3.754   1.645
 4064TIP3   OH212197   5.946   4.327   4.775
 4064TIP3    H112198   5.867   4.282   4.744
 4064TIP3    H212199   6.002   4.256   4.808
 4065TIP3   OH212200   6.097   3.302   0.119
 4065TIP3    H112201   6.052   3.383   0.142
 4065TIP3    H212202   6.119   3.263   0.203
 4066TIP3   OH212203   4.126   5.399   0.653
 4066TIP3    H112204   4.167   5.415   0.738
 4066TIP3    H212205   4.187   5.343   0.607
 4067TIP3   OH212206   2.848   3.341   4.300
 4067TIP3    H112207   2.838   3.260   4.350
 4067TIP3    H212208   2.785   3.402   4.339
 4068TIP3   OH212209   1.018   3.079   1.473
 4068TIP3    H112210   0.964   3.147   1.514
 4068TIP3    H212211   0.984   2.997   1.509
 4069TIP3   OH212212   3.963   4.613   1.107
 4069TIP3    H112213   4.024   4.552   1.067
 4069TIP3    H212214   4.018   4.671   1.160
 4070TIP3   OH212215   1.725   1.878   4.034
 4070TIP3    H112216   1.679   1.794   4.039
 4070TIP3    H212217   1.657   1.941   4.011
 4071TIP3   OH212218   3.497   3.008   5.102
 4071TIP3    H112219   3.406   3.025   5.076
 4071TIP3    H212220   3.494   3.002   5.197
 4072TIP3   OH212221   4.001   5.204   3.730
 4072TIP3    H112222   4.051   5.269   3.779
 4072TIP3    H212223   3.947   5.257   3.670
 4073TIP3   OH212224   4.657   3.455   3.853
 4073TIP3    H112225   4.635   3.436   3.945
 4073TIP3    H212226   4.697   3.542   3.856
 4074TIP3   OH212227   5.442   0.722   3.836
 4074TIP3    H112228   5.423   0.813   3.859
 4074TIP3    H212229   5.521   0.727   3.783
 4075TIP3   OH212230   3.052   2.046   1.127
 4075TIP3    H112231   3.025   2.137   1.127
 4075TIP3    H212232   2.991   2.002   1.186
 4076TIP3   OH212233   0.146   5.502   0.642
 4076TIP3    H112234   0.109   5.473   0.559
 4076TIP3    H212235   0.142   5.425   0.698
 4077TIP3   OH212236   4.367   4.676   0.895
 4077TIP3    H112237   4.377   4.602   0.836
 4077TIP3    H212238   4.367   4.637   0.983
 4078TIP3   OH212239   4.912   2.467   3.113
 4078TIP3    H112240   4.947   2.452   3.026
 4078TIP3    H212241   4.828   2.421   3.113
 4079TIP3   OH212242   1.828   0.866   0.161
 4079TIP3    H112243   1.763   0.800   0.185
 4079TIP3    H212244   1.894   0.819   0.112
 4080TIP3   OH212245   1.260   3.008   3.296
 4080TIP3    H112246   1.322   2.948   3.253
 4080TIP3    H212247   1.314   3.059   3.356
 4081TIP3   OH212248   2.996   0.810   2.585
 4081TIP3    H112249   2.944   0.851   2.516
 4081TIP3    H212250   3.087   0.830   2.563
 4082TIP3   OH212251   2.096   2.573   3.738
 4082TIP3    H112252   2.040   2.601   3.810
 4082TIP3    H212253   2.179   2.550   3.779
 4083TIP3   OH212254   1.155   2.023   0.104
 4083TIP3    H112255   1.116   2.087   0.043
 4083TIP3    H212256   1.175   2.074   0.182
 4084TIP3   OH212257   0.053   3.668   0.586
 4084TIP3    H112258   0.022   3.603   0.522
 4084TIP3    H212259  -0.027   3.699   0.628
 4085TIP3   OH212260   2.944   5.873   5.192
 4085TIP3    H112261   2.922   5.951   5.243
 4085TIP3    H212262   3.012   5.902   5.132
 4086TIP3   OH212263   4.913   0.984   0.693
 4086TIP3    H112264   4.876   0.896   0.693
 4086TIP3    H212265   4.976   0.984   0.622
 4087TIP3   OH212266   3.095   4.587   1.423
 4087TIP3    H112267   3.046   4.652   1.474
 4087TIP3    H212268   3.043   4.507   1.429
 4088TIP3   OH212269   2.623   1.442   1.728
 4088TIP3    H112270   2.534   1.428   1.696
 4088TIP3    H212271   2.670   1.363   1.705
 4089TIP3   OH212272   5.146   4.860   3.774
 4089TIP3    H112273   5.195   4.821   3.702
 4089TIP3    H212274   5.197   4.838   3.852
 4090TIP3   OH212275   5.058   1.998   1.966
 4090TIP3    H112276   5.142   1.962   1.994
 4090TIP3    H212277   5.046   1.964   1.878
 4091TIP3   OH212278   4.474   0.655   2.988
 4091TIP3    H112279   4.522   0.594   3.044
 4091TIP3    H212280   4.382   0.645   3.015
 4092TIP3   OH212281   4.498   2.999   4.821
 4092TIP3    H112282   4.506   2.928   4.885
 4092TIP3    H212283   4.505   2.955   4.736
 4093TIP3   OH212284   4.729   5.036   5.115
 4093TIP3    H112285   4.798   5.103   5.120
 4093TIP3    H212286   4.674   5.053   5.191
 4094TIP3   OH212287   2.135   2.897   3.790
 4094TIP3    H112288   2.101   2.862   3.708
 4094TIP3    H212289   2.058   2.931   3.835
 4095TIP3   OH212290   0.140   0.185   3.401
 4095TIP3    H112291   0.181   0.148   3.322
 4095TIP3    H212292   0.055   0.142   3.406
 4096TIP3   OH212293   5.698   3.903   4.806
 4096TIP3    H112294   5.743   3.960   4.868
 4096TIP3    H212295   5.626   3.956   4.771
 4097TIP3   OH212296   0.752   2.150   2.353
 4097TIP3    H112297   0.797   2.069   2.375
 4097TIP3    H212298   0.659   2.126   2.351
 4098TIP3   OH212299   0.728   2.395   1.078
 4098TIP3    H112300   0.764   2.473   1.037
 4098TIP3    H212301   0.779   2.323   1.041
 4099TIP3   OH212302   3.737   2.974   3.299
 4099TIP3    H112303   3.703   2.892   3.263
 4099TIP3    H212304   3.780   2.948   3.380
 4100TIP3   OH212305   5.114   2.323   1.134
 4100TIP3    H112306   5.040   2.357   1.084
 4100TIP3    H212307   5.074   2.281   1.211
 4101TIP3   OH212308   3.215   5.833   3.123
 4101TIP3    H112309   3.195   5.920   3.089
 4101TIP3    H212310   3.223   5.846   3.218
 4102TIP3   OH212311   1.003   1.407   1.087
 4102TIP3    H112312   1.030   1.321   1.055
 4102TIP3    H212313   0.940   1.389   1.156
 4103TIP3   OH212314   0.337   3.606   0.434
 4103TIP3    H112315   0.249   3.625   0.466
 4103TIP3    H212316   0.390   3.682   0.461
 4104TIP3   OH212317   0.419   0.095  -0.054
 4104TIP3    H112318   0.366   0.017  -0.038
 4104TIP3    H212319   0.509   0.066  -0.042
 4105TIP3   OH212320   1.444   2.901   0.586
 4105TIP3    H112321   1.376   2.845   0.623
 4105TIP3    H212322   1.397   2.974   0.546
 4106TIP3   OH212323   1.158   3.405   0.276
 4106TIP3    H112324   1.171   3.420   0.183
 4106TIP3    H212325   1.226   3.456   0.319
 4107TIP3   OH212326   0.546   1.907   3.018
 4107TIP3    H112327   0.506   1.984   2.978
 4107TIP3    H212328   0.628   1.940   3.057
 4108TIP3   OH212329   0.904   3.747   2.882
 4108TIP3    H112330   0.923   3.782   2.969
 4108TIP3    H212331   0.812   3.769   2.866
 4109TIP3   OH212332   1.352   5.600   2.219
 4109TIP3    H112333   1.435   5.595   2.172
 4109TIP3    H212334   1.294   5.538   2.174
 4110TIP3   OH212335   4.734   3.754   0.127
 4110TIP3    H112336   4.783   3.741   0.208
 4110TIP3    H212337   4.645   3.773   0.156
 4111TIP3   OH212338   0.592   0.524   4.050
 4111TIP3    H112339   0.577   0.569   3.967
 4111TIP3    H212340   0.668   0.468   4.034
 4112TIP3   OH212341   3.872   4.627   4.992
 4112TIP3    H112342   3.821   4.676   5.056
 4112TIP3    H212343   3.865   4.677   4.911
 4113TIP3   OH212344   5.792   0.942   3.424
 4113TIP3    H112345   5.793   0.906   3.513
 4113TIP3    H212346   5.703   0.975   3.412
 4114TIP3   OH212347   3.025   4.843   4.792
 4114TIP3    H112348   3.034   4.878   4.881
 4114TIP3    H212349   2.995   4.753   4.805
 4115TIP3   OH212350   1.700   1.676   1.612
 4115TIP3    H112351   1.630   1.668   1.546
 4115TIP3    H212352   1.723   1.769   1.610
 4116TIP3   OH212353   4.124   2.885   2.009
 4116TIP3    H112354   4.187   2.951   1.980
 4116TIP3    H212355   4.061   2.934   2.062
 4117TIP3   OH212356   4.880   3.431   2.705
 4117TIP3    H112357   4.800   3.402   2.749
 4117TIP3    H212358   4.900   3.516   2.746
 4118TIP3   OH212359   1.112   0.774   3.982
 4118TIP3    H112360   1.096   0.773   3.888
 4118TIP3    H212361   1.025   0.777   4.021
 4119TIP3   OH212362   5.311   4.201   0.911
 4119TIP3    H112363   5.363   4.136   0.864
 4119TIP3    H212364   5.288   4.158   0.994
 4120TIP3   OH212365   4.267   2.464   0.299
 4120TIP3    H112366   4.218   2.539   0.266
 4120TIP3    H212367   4.310   2.428   0.222
 4121TIP3   OH212368   5.090   2.499   4.362
 4121TIP3    H112369   5.160   2.441   4.333
 4121TIP3    H212370   5.129   2.553   4.431
 4122TIP3   OH212371   3.596   4.256   2.877
 4122TIP3    H112372   3.653   4.218   2.810
 4122TIP3    H212373   3.652   4.267   2.953
 4123TIP3   OH212374   2.970   3.187   5.047
 4123TIP3    H112375   2.948   3.278   5.029
 4123TIP3    H212376   2.959   3.177   5.141
 4124TIP3   OH212377   6.348   1.815   4.623
 4124TIP3    H112378   6.385   1.780   4.703
 4124TIP3    H212379   6.255   1.795   4.629
 4125TIP3   OH212380   3.222   4.797   2.348
 4125TIP3    H112381   3.288   4.823   2.413
 4125TIP3    H212382   3.138   4.817   2.390
 4126TIP3   OH212383   4.581   4.053   1.954
 4126TIP3    H112384   4.492   4.063   1.920
 4126TIP3    H212385   4.619   4.140   1.948
 4127TIP3   OH212386   3.139   5.574   5.214
 4127TIP3    H112387   3.154   5.625   5.134
 4127TIP3    H212388   3.093   5.496   5.184
 4128TIP3   OH212389   5.361   3.804   4.573
 4128TIP3    H112390   5.342   3.728   4.627
 4128TIP3    H212391   5.424   3.773   4.508
 4129TIP3   OH212392   3.048   1.354   0.339
 4129TIP3    H112393   3.114   1.420   0.361
 4129TIP3    H212394   3.072   1.324   0.251
 4130TIP3   OH212395   6.119   4.667   2.146
 4130TIP3    H112396   6.189   4.710   2.098
 4130TIP3    H212397   6.061   4.631   2.079
 4131TIP3   OH212398   2.396   1.022   0.514
 4131TIP3    H112399   2.353   0.992   0.434
 4131TIP3    H212400   2.483   1.050   0.487
 4132TIP3   OH212401   1.241   1.515   0.650
 4132TIP3    H112402   1.220   1.474   0.566
 4132TIP3    H212403   1.231   1.444   0.714
 4133TIP3   OH212404   2.024   5.765   1.131
 4133TIP3    H112405   2.095   5.722   1.084
 4133TIP3    H212406   2.068   5.824   1.193
 4134TIP3   OH212407   5.362   4.402   0.373
 4134TIP3    H112408   5.279   4.446   0.390
 4134TIP3    H212409   5.371   4.339   0.445
 4135TIP3   OH212410   3.149   5.785   4.755
 4135TIP3    H112411   3.158   5.847   4.683
 4135TIP3    H212412   3.238   5.752   4.770
 4136TIP3   OH212413   4.922   2.405   4.723
 4136TIP3    H112414   5.012   2.377   4.706
 4136TIP3    H212415   4.921   2.498   4.700
 4137TIP3   OH212416   3.604   2.118   3.210
 4137TIP3    H112417   3.577   2.209   3.202
 4137TIP3    H212418   3.677   2.120   3.273
 4138TIP3   OH212419   4.904   3.970   4.607
 4138TIP3    H112420   4.865   4.042   4.558
 4138TIP3    H212421   4.997   3.975   4.588
 4139TIP3   OH212422   5.298   4.625   3.712
 4139TIP3    H112423   5.318   4.578   3.794
 4139TIP3    H212424   5.378   4.618   3.661
 4140TIP3   OH212425   5.639   2.858   1.553
 4140TIP3    H112426   5.606   2.896   1.472
 4140TIP3    H212427   5.733   2.846   1.537
 4141TIP3   OH212428   3.540   1.859   3.270
 4141TIP3    H112429   3.555   1.948   3.238
 4141TIP3    H212430   3.453   1.861   3.309
 4142TIP3   OH212431   4.169   4.071   4.833
 4142TIP3    H112432   4.097   4.091   4.892
 4142TIP3    H212433   4.170   3.976   4.827
 4143TIP3   OH212434   3.279   1.488   3.682
 4143TIP3    H112435   3.345   1.556   3.675
 4143TIP3    H212436   3.309   1.432   3.754
 4144TIP3   OH212437   4.650   4.047   3.991
 4144TIP3    H112438   4.597   4.114   4.033
 4144TIP3    H212439   4.661   4.078   3.901
 4145TIP3   OH212440   4.123   2.439   4.810
 4145TIP3    H112441   4.080   2.366   4.854
 4145TIP3    H212442   4.135   2.505   4.878
 4146TIP3   OH212443   4.846   1.483   4.894
 4146TIP3    H112444   4.878   1.571   4.915
 4146TIP3    H212445   4.755   1.496   4.868
 4147TIP3   OH212446   4.604   1.564   2.840
 4147TIP3    H112447   4.646   1.582   2.756
 4147TIP3    H212448   4.542   1.636   2.851
 4148TIP3   OH212449   0.165   0.581   2.030
 4148TIP3    H112450   0.122   0.502   1.998
 4148TIP3    H212451   0.244   0.589   1.978
 4149TIP3   OH212452   2.602   0.376   3.287
 4149TIP3    H112453   2.678   0.423   3.321
 4149TIP3    H212454   2.564   0.332   3.363
 4150TIP3   OH212455   2.537   1.817   1.008
 4150TIP3    H112456   2.491   1.733   1.013
 4150TIP3    H212457   2.590   1.810   0.929
 4151TIP3   OH212458   4.255   5.322   3.384
 4151TIP3    H112459   4.282   5.400   3.336
 4151TIP3    H212460   4.237   5.354   3.473
 4152TIP3   OH212461   5.025   4.353   3.330
 4152TIP3    H112462   5.057   4.411   3.400
 4152TIP3    H212463   5.031   4.406   3.251
 4153TIP3   OH212464   2.784   4.612   2.696
 4153TIP3    H112465   2.745   4.568   2.771
 4153TIP3    H212466   2.715   4.669   2.662
 4154TIP3   OH212467   2.477   1.620   1.909
 4154TIP3    H112468   2.469   1.688   1.842
 4154TIP3    H212469   2.495   1.540   1.861
 4155TIP3   OH212470   5.522   0.487   2.882
 4155TIP3    H112471   5.594   0.480   2.819
 4155TIP3    H212472   5.561   0.528   2.959
 4156TIP3   OH212473   3.589   3.544   3.401
 4156TIP3    H112474   3.584   3.635   3.431
 4156TIP3    H212475   3.511   3.533   3.346
 4157TIP3   OH212476   2.026   1.591   3.549
 4157TIP3    H112477   1.932   1.573   3.547
 4157TIP3    H212478   2.067   1.504   3.550
 4158TIP3   OH212479   5.286   4.209   4.071
 4158TIP3    H112480   5.236   4.177   3.996
 4158TIP3    H212481   5.237   4.177   4.148
 4159TIP3   OH212482   0.407   3.811   0.015
 4159TIP3    H112483   0.388   3.863   0.093
 4159TIP3    H212484   0.321   3.778  -0.012
 4160TIP3   OH212485   0.481   4.952   3.800
 4160TIP3    H112486   0.446   4.881   3.853
 4160TIP3    H212487   0.444   5.031   3.838
 4161TIP3   OH212488   5.367   1.811   4.520
 4161TIP3    H112489   5.352   1.825   4.426
 4161TIP3    H212490   5.462   1.798   4.527
 4162TIP3   OH212491   1.633   0.444   4.124
 4162TIP3    H112492   1.644   0.395   4.042
 4162TIP3    H212493   1.712   0.426   4.174
 4163TIP3   OH212494   1.569   0.166   2.128
 4163TIP3    H112495   1.583   0.245   2.182
 4163TIP3    H212496   1.514   0.197   2.056
 4164TIP3   OH212497   3.501   3.178   2.353
 4164TIP3    H112498   3.533   3.165   2.442
 4164TIP3    H212499   3.458   3.264   2.355
 4165TIP3   OH212500   4.528   0.519   2.750
 4165TIP3    H112501   4.607   0.565   2.722
 4165TIP3    H212502   4.492   0.573   2.821
 4166TIP3   OH212503   2.519   4.432   1.726
 4166TIP3    H112504   2.501   4.460   1.637
 4166TIP3    H212505   2.479   4.499   1.781
 4167TIP3   OH212506   4.870   2.665   2.069
 4167TIP3    H112507   4.864   2.578   2.031
 4167TIP3    H212508   4.804   2.716   2.022
 4168TIP3   OH212509   4.089   2.792   3.191
 4168TIP3    H112510   4.159   2.823   3.134
 4168TIP3    H212511   4.010   2.836   3.159
 4169TIP3   OH212512   0.079   3.628   4.925
 4169TIP3    H112513   0.086   3.680   5.004
 4169TIP3    H212514   0.155   3.570   4.928
 4170TIP3   OH212515   0.973   1.426   1.886
 4170TIP3    H112516   0.936   1.455   1.969
 4170TIP3    H212517   1.051   1.376   1.910
 4171TIP3   OH212518   3.719   2.319   1.852
 4171TIP3    H112519   3.730   2.352   1.941
 4171TIP3    H212520   3.731   2.225   1.860
 4172TIP3   OH212521   5.285   2.044   3.827
 4172TIP3    H112522   5.359   2.017   3.774
 4172TIP3    H212523   5.261   2.130   3.793
 4173TIP3   OH212524   0.108   2.550   1.835
 4173TIP3    H112525   0.072   2.571   1.749
 4173TIP3    H212526   0.106   2.633   1.883
 4174TIP3   OH212527   4.091   2.491   3.294
 4174TIP3    H112528   4.137   2.562   3.250
 4174TIP3    H212529   4.051   2.532   3.371
 4175TIP3   OH212530   0.447   6.012   1.058
 4175TIP3    H112531   0.419   5.921   1.050
 4175TIP3    H212532   0.365   6.061   1.067
 4176TIP3   OH212533   2.603   2.813   4.347
 4176TIP3    H112534   2.565   2.801   4.260
 4176TIP3    H212535   2.596   2.907   4.364
 4177TIP3   OH212536   0.964   3.197   0.971
 4177TIP3    H112537   1.032   3.258   0.998
 4177TIP3    H212538   0.969   3.194   0.876
 4178TIP3   OH212539   2.063   6.016   2.415
 4178TIP3    H112540   1.982   6.057   2.384
 4178TIP3    H212541   2.035   5.960   2.488
 4179TIP3   OH212542   5.768   1.814   2.062
 4179TIP3    H112543   5.826   1.795   1.988
 4179TIP3    H212544   5.682   1.825   2.023
 4180TIP3   OH212545   0.528   5.704   1.597
 4180TIP3    H112546   0.571   5.644   1.535
 4180TIP3    H212547   0.593   5.771   1.614
 4181TIP3   OH212548   0.411   2.172   2.416
 4181TIP3    H112549   0.324   2.137   2.436
 4181TIP3    H212550   0.472   2.115   2.462
 4182TIP3   OH212551   4.233   1.194   1.008
 4182TIP3    H112552   4.140   1.174   0.992
 4182TIP3    H212553   4.278   1.161   0.930
 4183TIP3   OH212554   4.084   2.810   1.137
 4183TIP3    H112555   4.018   2.741   1.148
 4183TIP3    H212556   4.034   2.892   1.146
 4184TIP3   OH212557   0.870   0.093   4.191
 4184TIP3    H112558   0.927   0.162   4.224
 4184TIP3    H212559   0.889   0.090   4.097
 4185TIP3   OH212560   3.290   4.371   4.154
 4185TIP3    H112561   3.280   4.279   4.129
 4185TIP3    H212562   3.372   4.399   4.113
 4186TIP3   OH212563   5.561   2.511   2.514
 4186TIP3    H112564   5.563   2.541   2.605
 4186TIP3    H212565   5.525   2.585   2.465
 4187TIP3   OH212566   1.341   5.166   4.334
 4187TIP3    H112567   1.378   5.146   4.420
 4187TIP3    H212568   1.339   5.261   4.331
 4188TIP3   OH212569   6.324   3.123   2.064
 4188TIP3    H112570   6.237   3.161   2.074
 4188TIP3    H212571   6.363   3.130   2.151
 4189TIP3   OH212572   4.939   5.603   0.556
 4189TIP3    H112573   4.938   5.508   0.564
 4189TIP3    H212574   4.989   5.633   0.633
 4190TIP3   OH212575   3.861   0.799   0.180
 4190TIP3    H112576   3.850   0.710   0.147
 4190TIP3    H212577   3.830   0.795   0.271
 4191TIP3   OH212578   4.824   4.377   2.638
 4191TIP3    H112579   4.793   4.460   2.674
 4191TIP3    H212580   4.855   4.328   2.714
 4192TIP3   OH212581   3.131   1.959   1.980
 4192TIP3    H112582   3.070   1.989   2.047
 4192TIP3    H212583   3.091   1.983   1.897
 4193TIP3   OH212584   3.509   0.086   1.642
 4193TIP3    H112585   3.476   0.032   1.570
 4193TIP3    H212586   3.589   0.041   1.670
 4194TIP3   OH212587   3.981   1.463   1.705
 4194TIP3    H112588   3.976   1.490   1.797
 4194TIP3    H212589   3.943   1.375   1.704
 4195TIP3   OH212590   3.465   3.615   2.434
 4195TIP3    H112591   3.372   3.626   2.414
 4195TIP3    H212592   3.471   3.527   2.472
 4196TIP3   OH212593   2.366   4.498   3.650
 4196TIP3    H112594   2.272   4.509   3.637
 4196TIP3    H212595   2.406   4.573   3.604
 4197TIP3   OH212596   5.848   1.067   2.474
 4197TIP3    H112597   5.776   1.057   2.412
 4197TIP3    H212598   5.831   1.000   2.540
 4198TIP3   OH212599   6.251   4.695   3.164
 4198TIP3    H112600   6.204   4.776   3.182
 4198TIP3    H212601   6.183   4.635   3.132
 4199TIP3   OH212602   3.925   1.002   3.220
 4199TIP3    H112603   3.893   1.023   3.132
 4199TIP3    H212604   3.965   1.083   3.250
 4200TIP3   OH212605   4.022   3.181   2.547
 4200TIP3    H112606   4.093   3.218   2.600
 4200TIP3    H212607   3.945   3.233   2.571
 4201TIP3   OH212608   6.011   1.685   1.905
 4201TIP3    H112609   6.018   1.636   1.823
 4201TIP3    H212610   6.088   1.660   1.955
 4202TIP3   OH212611   1.533   0.901   4.685
 4202TIP3    H112612   1.593   0.913   4.758
 4202TIP3    H212613   1.590   0.897   4.608
 4203TIP3   OH212614   5.955   2.055   4.073
 4203TIP3    H112615   5.961   2.148   4.091
 4203TIP3    H212616   5.935   2.015   4.158
 4204TIP3   OH212617   4.401   3.186   2.598
 4204TIP3    H112618   4.334   3.192   2.666
 4204TIP3    H212619   4.484   3.197   2.645
 4205TIP3   OH212620   5.105   3.964   0.675
 4205TIP3    H112621   5.199   3.972   0.691
 4205TIP3    H212622   5.073   4.054   0.673
 4206TIP3   OH212623   1.835   0.048   1.774
 4206TIP3    H112624   1.917  -0.001   1.774
 4206TIP3    H212625   1.847   0.115   1.842
 4207TIP3   OH212626   4.415   0.031   1.236
 4207TIP3    H112627   4.358   0.097   1.277
 4207TIP3    H212628   4.483   0.015   1.300
 4208TIP3   OH212629   0.315   4.009   3.799
 4208TIP3    H112630   0.267   4.028   3.879
 4208TIP3    H212631   0.349   3.921   3.811
 4209TIP3   OH212632   2.108   0.192   1.965
 4209TIP3    H112633   2.040   0.202   2.031
 4209TIP3    H212634   2.161   0.119   1.995
 4210TIP3   OH212635   4.683   3.328   0.062
 4210TIP3    H112636   4.717   3.378   0.137
 4210TIP3    H212637   4.646   3.395   0.005
 4211TIP3   OH212638   4.181   2.011   0.650
 4211TIP3    H112639   4.097   1.965   0.660
 4211TIP3    H212640   4.214   2.019   0.739
 4212TIP3   OH212641   0.641   0.975   0.362
 4212TIP3    H112642   0.648   1.020   0.446
 4212TIP3    H212643   0.673   0.886   0.379
 4213TIP3   OH212644   2.939   5.685   4.605
 4213TIP3    H112645   2.985   5.713   4.684
 4213TIP3    H212646   2.989   5.724   4.533
 4214TIP3   OH212647   0.130   0.869   0.685
 4214TIP3    H112648   0.063   0.865   0.754
 4214TIP3    H212649   0.137   0.961   0.663
 4215TIP3   OH212650   4.411   3.877   2.591
 4215TIP3    H112651   4.392   3.784   2.605
 4215TIP3    H212652   4.393   3.917   2.676
 4216TIP3   OH212653   6.043   2.051   0.577
 4216TIP3    H112654   6.038   1.963   0.614
 4216TIP3    H212655   6.063   2.107   0.652
 4217TIP3   OH212656   5.558   1.308   3.949
 4217TIP3    H112657   5.654   1.309   3.946
 4217TIP3    H212658   5.533   1.397   3.923
 4218TIP3   OH212659   5.416   0.493   0.007
 4218TIP3    H112660   5.472   0.464   0.079
 4218TIP3    H212661   5.440   0.435  -0.066
 4219TIP3   OH212662   1.459   3.183   3.389
 4219TIP3    H112663   1.432   3.274   3.402
 4219TIP3    H212664   1.554   3.187   3.381
 4220TIP3   OH212665   3.011   3.056   3.615
 4220TIP3    H112666   3.085   3.087   3.563
 4220TIP3    H212667   2.938   3.112   3.588
 4221TIP3   OH212668   5.328   0.249   0.878
 4221TIP3    H112669   5.357   0.247   0.787
 4221TIP3    H212670   5.233   0.250   0.873
 4222TIP3   OH212671   3.715   3.542   2.041
 4222TIP3    H112672   3.629   3.512   2.010
 4222TIP3    H212673   3.701   3.562   2.133
 4223TIP3   OH212674   0.301   0.974   2.151
 4223TIP3    H112675   0.233   0.970   2.218
 4223TIP3    H212676   0.383   0.981   2.200
 4224TIP3   OH212677   2.542   5.071   0.015
 4224TIP3    H112678   2.544   5.069   0.110
 4224TIP3    H212679   2.598   4.999  -0.012
 4225TIP3   OH212680   1.456   2.070   5.144
 4225TIP3    H112681   1.524   2.053   5.210
 4225TIP3    H212682   1.484   2.151   5.101
 4226TIP3   OH212683   2.505   4.061   1.505
 4226TIP3    H112684   2.577   4.067   1.567
 4226TIP3    H212685   2.432   4.025   1.556
 4227TIP3   OH212686   4.112   5.252   2.233
 4227TIP3    H112687   4.151   5.339   2.224
 4227TIP3    H212688   4.019   5.265   2.218
 4228TIP3   OH212689   4.034   5.878   1.768
 4228TIP3    H112690   4.120   5.914   1.789
 4228TIP3    H212691   4.041   5.785   1.787
 4229TIP3   OH212692   1.511   4.496   0.074
 4229TIP3    H112693   1.483   4.587   0.081
 4229TIP3    H212694   1.533   4.484  -0.018
 4230TIP3   OH212695   0.689   4.260   1.242
 4230TIP3    H112696   0.741   4.327   1.286
 4230TIP3    H212697   0.614   4.247   1.300
 4231TIP3   OH212698   0.273   2.264   2.121
 4231TIP3    H112699   0.243   2.240   2.033
 4231TIP3    H212700   0.209   2.225   2.180
 4232TIP3   OH212701   4.680   2.494   1.449
 4232TIP3    H112702   4.701   2.402   1.466
 4232TIP3    H212703   4.586   2.494   1.431
 4233TIP3   OH212704   0.122   4.502   3.135
 4233TIP3    H112705   0.086   4.434   3.078
 4233TIP3    H212706   0.054   4.569   3.139
 4234TIP3   OH212707   4.419   0.911   3.697
 4234TIP3    H112708   4.479   0.984   3.705
 4234TIP3    H212709   4.446   0.865   3.618
 4235TIP3   OH212710   0.709   0.177   2.000
 4235TIP3    H112711   0.754   0.261   1.990
 4235TIP3    H212712   0.764   0.114   1.953
 4236TIP3   OH212713   3.287   5.804   3.686
 4236TIP3    H112714   3.237   5.782   3.765
 4236TIP3    H212715   3.277   5.899   3.677
 4237TIP3   OH212716   0.414  -0.047   0.593
 4237TIP3    H112717   0.448  -0.021   0.507
 4237TIP3    H212718   0.426   0.031   0.648
 4238TIP3   OH212719   3.775   1.595   3.845
 4238TIP3    H112720   3.708   1.585   3.776
 4238TIP3    H212721   3.756   1.524   3.907
 4239TIP3   OH212722   4.451   1.299   2.970
 4239TIP3    H112723   4.442   1.229   3.034
 4239TIP3    H212724   4.424   1.259   2.887
 4240TIP3   OH212725   1.915   1.933   1.908
 4240TIP3    H112726   1.901   1.935   1.814
 4240TIP3    H212727   1.827   1.935   1.946
 4241TIP3   OH212728   2.463   4.560   2.638
 4241TIP3    H112729   2.505   4.474   2.638
 4241TIP3    H212730   2.448   4.579   2.545
 4242TIP3   OH212731   1.041   2.926   0.463
 4242TIP3    H112732   1.074   3.004   0.419
 4242TIP3    H212733   1.073   2.853   0.409
 4243TIP3   OH212734   1.669   5.608   0.533
 4243TIP3    H112735   1.760   5.587   0.555
 4243TIP3    H212736   1.663   5.703   0.542
 4244TIP3   OH212737   4.392   4.170   3.085
 4244TIP3    H112738   4.433   4.233   3.026
 4244TIP3    H212739   4.460   4.150   3.150
 4245TIP3   OH212740   5.394   3.392   1.212
 4245TIP3    H112741   5.318   3.334   1.206
 4245TIP3    H212742   5.378   3.445   1.290
 4246TIP3   OH212743   0.798   4.957   0.224
 4246TIP3    H112744   0.880   5.004   0.205
 4246TIP3    H212745   0.817   4.866   0.202
 4247TIP3   OH212746   4.431   4.395   2.931
 4247TIP3    H112747   4.385   4.402   2.847
 4247TIP3    H212748   4.465   4.483   2.948
 4248TIP3   OH212749   6.379   0.193   1.629
 4248TIP3    H112750   6.366   0.154   1.543
 4248TIP3    H212751   6.399   0.285   1.611
 4249TIP3   OH212752   5.946   4.750   1.865
 4249TIP3    H112753   5.851   4.740   1.852
 4249TIP3    H212754   5.976   4.663   1.891
 4250TIP3   OH212755   0.474   3.041   2.100
 4250TIP3    H112756   0.497   3.131   2.079
 4250TIP3    H212757   0.459   2.999   2.016
 4251TIP3   OH212758   0.017   2.639   0.354
 4251TIP3    H112759   0.094   2.690   0.328
 4251TIP3    H212760   0.004   2.660   0.446
 4252TIP3   OH212761   4.457   4.875   3.942
 4252TIP3    H112762   4.546   4.884   3.977
 4252TIP3    H212763   4.402   4.923   4.004
 4253TIP3   OH212764   5.915   3.606   1.651
 4253TIP3    H112765   6.011   3.614   1.647
 4253TIP3    H212766   5.897   3.576   1.740
 4254TIP3   OH212767   6.272   3.683   3.950
 4254TIP3    H112768   6.356   3.673   3.905
 4254TIP3    H212769   6.212   3.713   3.883
 4255TIP3   OH212770   4.866   3.419   2.038
 4255TIP3    H112771   4.826   3.332   2.043
 4255TIP3    H212772   4.792   3.479   2.025
 4256TIP3   OH212773   1.151   3.645   4.358
 4256TIP3    H112774   1.122   3.733   4.382
 4256TIP3    H212775   1.146   3.595   4.440
 4257TIP3   OH212776   5.177   5.891   3.868
 4257TIP3    H112777   5.219   5.814   3.907
 4257TIP3    H212778   5.100   5.907   3.922
 4258TIP3   OH212779   1.901   1.906   2.990
 4258TIP3    H112780   1.829   1.928   2.930
 4258TIP3    H212781   1.870   1.827   3.035
 4259TIP3   OH212782   5.928   1.158   4.604
 4259TIP3    H112783   5.943   1.241   4.650
 4259TIP3    H212784   5.887   1.102   4.670
 4260TIP3   OH212785   0.050   1.211   0.628
 4260TIP3    H112786   0.137   1.244   0.608
 4260TIP3    H212787   0.037   1.137   0.568
 4261TIP3   OH212788   2.200   2.017   1.909
 4261TIP3    H112789   2.111   1.987   1.927
 4261TIP3    H212790   2.230   1.962   1.836
 4262TIP3   OH212791   2.633   4.427   3.384
 4262TIP3    H112792   2.726   4.446   3.375
 4262TIP3    H212793   2.605   4.480   3.459
 4263TIP3   OH212794   5.062   2.568   4.915
 4263TIP3    H112795   5.001   2.494   4.919
 4263TIP3    H212796   5.111   2.564   4.996
 4264TIP3   OH212797   4.783   2.593   0.698
 4264TIP3    H112798   4.722   2.664   0.682
 4264TIP3    H212799   4.835   2.622   0.772
 4265TIP3   OH212800   5.572   1.789   2.812
 4265TIP3    H112801   5.526   1.856   2.762
 4265TIP3    H212802   5.505   1.725   2.834
 4266TIP3   OH212803   3.833   4.452   2.823
 4266TIP3    H112804   3.854   4.518   2.756
 4266TIP3    H212805   3.856   4.369   2.783
 4267TIP3   OH212806   6.217   0.844   4.911
 4267TIP3    H112807   6.210   0.931   4.872
 4267TIP3    H212808   6.195   0.857   5.003
 4268TIP3   OH212809   2.491   4.170   3.388
 4268TIP3    H112810   2.500   4.246   3.331
 4268TIP3    H212811   2.579   4.132   3.393
 4269TIP3   OH212812   5.523   0.148   4.945
 4269TIP3    H112813   5.580   0.081   4.983
 4269TIP3    H212814   5.557   0.162   4.857
 4270TIP3   OH212815   0.249   1.799   5.079
 4270TIP3    H112816   0.243   1.883   5.034
 4270TIP3    H212817   0.225   1.818   5.170
 4271TIP3   OH212818   5.060   0.710   3.389
 4271TIP3    H112819   4.999   0.702   3.462
 4271TIP3    H212820   5.046   0.631   3.336
 4272TIP3   OH212821   1.937   4.204   2.035
 4272TIP3    H112822   2.027   4.178   2.055
 4272TIP3    H212823   1.942   4.246   1.949
 4273TIP3   OH212824   3.377   0.255   3.691
 4273TIP3    H112825   3.465   0.273   3.723
 4273TIP3    H212826   3.327   0.234   3.769
 4274TIP3   OH212827   1.915   3.074   0.384
 4274TIP3    H112828   1.820   3.058   0.382
 4274TIP3    H212829   1.947   3.022   0.458
 4275TIP3   OH212830   1.347   4.664   3.330
 4275TIP3    H112831   1.263   4.632   3.298
 4275TIP3    H212832   1.400   4.585   3.343
 4276TIP3   OH212833   2.600   1.600   1.264
 4276TIP3    H112834   2.515   1.639   1.288
 4276TIP3    H212835   2.589   1.506   1.278
 4277TIP3   OH212836   6.283   5.145   0.913
 4277TIP3    H112837   6.207   5.106   0.954
 4277TIP3    H212838   6.339   5.071   0.890
 4278TIP3   OH212839   1.701   5.050   1.630
 4278TIP3    H112840   1.796   5.057   1.626
 4278TIP3    H212841   1.680   5.042   1.723
 4279TIP3   OH212842   1.674   4.290   3.033
 4279TIP3    H112843   1.602   4.353   3.030
 4279TIP3    H212844   1.683   4.268   3.126
 4280TIP3   OH212845   2.413   4.038   2.137
 4280TIP3    H112846   2.355   3.963   2.125
 4280TIP3    H212847   2.490   4.018   2.083
 4281TIP3   OH212848   3.951   5.558   4.291
 4281TIP3    H112849   3.866   5.566   4.333
 4281TIP3    H212850   3.992   5.482   4.332
 4282TIP3   OH212851   5.936   5.230   4.860
 4282TIP3    H112852   6.026   5.226   4.893
 4282TIP3    H212853   5.934   5.308   4.804
 4283TIP3   OH212854   5.891   2.871   4.708
 4283TIP3    H112855   5.973   2.898   4.748
 4283TIP3    H212856   5.825   2.887   4.776
 4284TIP3   OH212857   1.254   0.397   2.883
 4284TIP3    H112858   1.232   0.354   2.801
 4284TIP3    H212859   1.324   0.458   2.861
 4285TIP3   OH212860   4.811   0.345   1.580
 4285TIP3    H112861   4.872   0.405   1.624
 4285TIP3    H212862   4.819   0.366   1.487
 4286TIP3   OH212863   0.084   1.674   3.200
 4286TIP3    H112864   0.138   1.744   3.162
 4286TIP3    H212865   0.028   1.719   3.264
 4287TIP3   OH212866   5.733   2.753   0.704
 4287TIP3    H112867   5.708   2.810   0.776
 4287TIP3    H212868   5.825   2.775   0.687
 4288TIP3   OH212869   3.261   3.108   1.899
 4288TIP3    H112870   3.231   3.094   1.809
 4288TIP3    H212871   3.182   3.097   1.952
 4289TIP3   OH212872   1.695   3.357   4.810
 4289TIP3    H112873   1.723   3.311   4.731
 4289TIP3    H212874   1.715   3.449   4.792
 4290TIP3   OH212875   0.823   3.772   3.401
 4290TIP3    H112876   0.818   3.708   3.472
 4290TIP3    H212877   0.900   3.826   3.422
 4291TIP3   OH212878   0.091   0.932   4.626
 4291TIP3    H112879   0.011   0.901   4.584
 4291TIP3    H212880   0.124   0.855   4.674
 4292TIP3   OH212881   4.491   5.382   0.435
 4292TIP3    H112882   4.547   5.423   0.369
 4292TIP3    H212883   4.549   5.366   0.510
 4293TIP3   OH212884   5.522   1.774   1.189
 4293TIP3    H112885   5.554   1.784   1.100
 4293TIP3    H212886   5.455   1.841   1.199
 4294TIP3   OH212887   4.962   1.787   2.533
 4294TIP3    H112888   5.052   1.783   2.502
 4294TIP3    H212889   4.940   1.880   2.531
 4295TIP3   OH212890   5.806   0.081   4.156
 4295TIP3    H112891   5.846   0.010   4.106
 4295TIP3    H212892   5.879   0.141   4.174
 4296TIP3   OH212893   1.184   0.247   3.695
 4296TIP3    H112894   1.231   0.279   3.772
 4296TIP3    H212895   1.227   0.291   3.622
 4297TIP3   OH212896   2.887   5.520   1.003
 4297TIP3    H112897   2.831   5.459   1.051
 4297TIP3    H212898   2.894   5.484   0.915
 4298TIP3   OH212899   3.187   6.002   2.367
 4298TIP3    H112900   3.124   5.931   2.380
 4298TIP3    H212901   3.243   5.973   2.296
 4299TIP3   OH212902   6.161   5.600   3.320
 4299TIP3    H112903   6.211   5.635   3.247
 4299TIP3    H212904   6.176   5.506   3.317
 4300TIP3   OH212905   5.055   1.387   3.404
 4300TIP3    H112906   5.012   1.392   3.489
 4300TIP3    H212907   4.984   1.376   3.341
 4301TIP3   OH212908   6.221   3.535   4.633
 4301TIP3    H112909   6.245   3.619   4.672
 4301TIP3    H212910   6.127   3.541   4.618
 4302TIP3   OH212911   3.250   4.991   4.440
 4302TIP3    H112912   3.181   4.934   4.474
 4302TIP3    H212913   3.309   5.005   4.515
 4303TIP3   OH212914   5.583   5.707   1.877
 4303TIP3    H112915   5.650   5.713   1.808
 4303TIP3    H212916   5.587   5.615   1.905
 4304TIP3   OH212917   0.532   3.932   1.469
 4304TIP3    H112918   0.464   3.978   1.519
 4304TIP3    H212919   0.611   3.984   1.483
 4305TIP3   OH212920   4.841   2.631   3.336
 4305TIP3    H112921   4.874   2.574   3.267
 4305TIP3    H212922   4.861   2.585   3.418
 4306TIP3   OH212923   0.493   3.652   4.659
 4306TIP3    H112924   0.470   3.561   4.639
 4306TIP3    H212925   0.419   3.703   4.626
 4307TIP3   OH212926   5.784   5.414   1.834
 4307TIP3    H112927   5.839   5.466   1.892
 4307TIP3    H212928   5.826   5.328   1.831
 4308TIP3   OH212929   4.150   1.618   1.268
 4308TIP3    H112930   4.123   1.645   1.356
 4308TIP3    H212931   4.243   1.640   1.263
 4309TIP3   OH212932   0.515   2.575   1.138
 4309TIP3    H112933   0.540   2.650   1.083
 4309TIP3    H212934   0.569   2.503   1.105
 4310TIP3   OH212935   5.880   3.616   3.549
 4310TIP3    H112936   5.959   3.563   3.547
 4310TIP3    H212937   5.870   3.648   3.459
 4311TIP3   OH212938   1.553   1.809   3.672
 4311TIP3    H112939   1.479   1.847   3.719
 4311TIP3    H212940   1.537   1.714   3.674
 4312TIP3   OH212941   3.742   0.872   1.496
 4312TIP3    H112942   3.767   0.856   1.405
 4312TIP3    H212943   3.817   0.840   1.547
 4313TIP3   OH212944   5.333   0.493   5.137
 4313TIP3    H112945   5.415   0.526   5.100
 4313TIP3    H212946   5.265   0.548   5.097
 4314TIP3   OH212947   1.198   4.334   3.851
 4314TIP3    H112948   1.118   4.284   3.868
 4314TIP3    H212949   1.172   4.399   3.785
 4315TIP3   OH212950   0.859   1.704   3.957
 4315TIP3    H112951   0.923   1.642   3.993
 4315TIP3    H212952   0.867   1.694   3.863
 4316TIP3   OH212953   2.325   1.841   1.524
 4316TIP3    H112954   2.287   1.762   1.484
 4316TIP3    H212955   2.382   1.876   1.455
 4317TIP3   OH212956   4.116   3.034   2.313
 4317TIP3    H112957   4.037   2.993   2.279
 4317TIP3    H212958   4.088   3.073   2.396
 4318TIP3   OH212959   1.785   2.933   3.290
 4318TIP3    H112960   1.733   2.955   3.212
 4318TIP3    H212961   1.826   2.849   3.269
 4319TIP3   OH212962   1.572   0.554   0.045
 4319TIP3    H112963   1.537   0.643   0.043
 4319TIP3    H212964   1.632   0.550  -0.030
 4320TIP3   OH212965   3.186   3.361   3.784
 4320TIP3    H112966   3.169   3.390   3.694
 4320TIP3    H212967   3.107   3.386   3.832
 4321TIP3   OH212968   1.935   3.329   0.982
 4321TIP3    H112969   1.919   3.345   0.889
 4321TIP3    H212970   1.849   3.306   1.017
 4322TIP3   OH212971   6.264   4.283   2.544
 4322TIP3    H112972   6.322   4.359   2.542
 4322TIP3    H212973   6.313   4.214   2.499
 4323TIP3   OH212974   2.193   3.571   3.741
 4323TIP3    H112975   2.248   3.620   3.803
 4323TIP3    H212976   2.105   3.577   3.777
 4324TIP3   OH212977   5.979   5.031   4.165
 4324TIP3    H112978   5.946   4.985   4.242
 4324TIP3    H212979   5.960   5.123   4.181
 4325TIP3   OH212980   0.693   2.605   4.617
 4325TIP3    H112981   0.724   2.516   4.637
 4325TIP3    H212982   0.602   2.592   4.588
 4326TIP3   OH212983   3.935   2.578   1.208
 4326TIP3    H112984   3.866   2.518   1.180
 4326TIP3    H212985   3.949   2.557   1.300
 4327TIP3   OH212986   4.050   5.537   4.928
 4327TIP3    H112987   4.008   5.459   4.964
 4327TIP3    H212988   4.135   5.507   4.896
 4328TIP3   OH212989   3.834   0.880   4.359
 4328TIP3    H112990   3.807   0.952   4.302
 4328TIP3    H212991   3.919   0.853   4.323
 4329TIP3   OH212992   1.408   1.821   4.134
 4329TIP3    H112993   1.465   1.750   4.104
 4329TIP3    H212994   1.421   1.823   4.229
 4330TIP3   OH212995   5.610   5.752   0.318
 4330TIP3    H112996   5.564   5.832   0.292
 4330TIP3    H212997   5.566   5.725   0.399
 4331TIP3   OH212998   1.805   0.461   2.046
 4331TIP3    H112999   1.852   0.387   2.083
 4331TIP3    H213000   1.831   0.536   2.099
 4332TIP3   OH213001   6.113   2.326   4.188
 4332TIP3    H113002   6.104   2.416   4.154
 4332TIP3    H213003   6.042   2.317   4.251
 4333TIP3   OH213004   3.448   5.185   2.621
 4333TIP3    H113005   3.447   5.187   2.717
 4333TIP3    H213006   3.495   5.265   2.596
 4334TIP3   OH213007   5.514   0.967   2.886
 4334TIP3    H113008   5.497   0.942   2.976
 4334TIP3    H213009   5.466   0.902   2.834
 4335TIP3   OH213010   4.069   4.364   1.943
 4335TIP3    H113011   4.010   4.339   1.872
 4335TIP3    H213012   4.035   4.448   1.973
 4336TIP3   OH213013   3.019   4.295   2.499
 4336TIP3    H113014   2.965   4.225   2.462
 4336TIP3    H213015   3.061   4.255   2.575
 4337TIP3   OH213016   2.739   0.838   3.731
 4337TIP3    H113017   2.731   0.891   3.652
 4337TIP3    H213018   2.732   0.748   3.701
 4338TIP3   OH213019   2.233   4.929   4.678
 4338TIP3    H113020   2.324   4.923   4.707
 4338TIP3    H213021   2.189   4.977   4.747
 4339TIP3   OH213022   4.519   3.300   1.503
 4339TIP3    H113023   4.470   3.223   1.473
 4339TIP3    H213024   4.604   3.293   1.459
 4340TIP3   OH213025   3.681   1.925   1.658
 4340TIP3    H113026   3.775   1.908   1.643
 4340TIP3    H213027   3.677   1.963   1.745
 4341TIP3   OH213028   0.714   1.463   3.747
 4341TIP3    H113029   0.628   1.491   3.779
 4341TIP3    H213030   0.700   1.373   3.719
 4342TIP3   OH213031   0.146   5.341   2.019
 4342TIP3    H113032   0.057   5.340   1.983
 4342TIP3    H213033   0.134   5.363   2.111
 4343TIP3   OH213034   2.604   1.868   2.380
 4343TIP3    H113035   2.599   1.814   2.301
 4343TIP3    H213036   2.621   1.957   2.347
 4344TIP3   OH213037   4.045   5.073   4.998
 4344TIP3    H113038   4.096   5.017   5.056
 4344TIP3    H213039   3.975   5.017   4.965
 4345TIP3   OH213040   0.086   1.733   2.432
 4345TIP3    H113041   0.070   1.644   2.462
 4345TIP3    H213042   0.009   1.782   2.461
 4346TIP3   OH213043   4.629   4.543   3.842
 4346TIP3    H113044   4.594   4.625   3.807
 4346TIP3    H213045   4.710   4.528   3.793
 4347TIP3   OH213046   3.230   3.992   2.405
 4347TIP3    H113047   3.177   3.956   2.477
 4347TIP3    H213048   3.320   3.989   2.439
 4348TIP3   OH213049   1.593   1.560   2.902
 4348TIP3    H113050   1.529   1.490   2.887
 4348TIP3    H213051   1.555   1.636   2.858
 4349TIP3   OH213052   2.979   1.338   0.040
 4349TIP3    H113053   2.903   1.322  -0.016
 4349TIP3    H213054   3.016   1.251   0.056
 4350TIP3   OH213055   1.160   0.186   1.783
 4350TIP3    H113056   1.110   0.180   1.865
 4350TIP3    H213057   1.141   0.273   1.749
 4351TIP3   OH213058   2.594   2.733   3.044
 4351TIP3    H113059   2.608   2.827   3.045
 4351TIP3    H213060   2.663   2.699   2.987
 4352TIP3   OH213061   2.579   3.921   0.188
 4352TIP3    H113062   2.535   3.838   0.171
 4352TIP3    H213063   2.656   3.897   0.241
 4353TIP3   OH213064   0.040   5.832   4.925
 4353TIP3    H113065  -0.024   5.903   4.931
 4353TIP3    H213066   0.123   5.875   4.910
 4354TIP3   OH213067   3.354   3.654   0.804
 4354TIP3    H113068   3.360   3.656   0.708
 4354TIP3    H213069   3.260   3.663   0.822
 4355TIP3   OH213070   3.012   2.768   4.975
 4355TIP3    H113071   2.926   2.810   4.971
 4355TIP3    H213072   3.074   2.835   4.947
 4356TIP3   OH213073   1.478   2.224   0.861
 4356TIP3    H113074   1.487   2.140   0.906
 4356TIP3    H213075   1.385   2.245   0.867
 4357TIP3   OH213076   0.665   3.009   1.142
 4357TIP3    H113077   0.626   2.987   1.226
 4357TIP3    H213078   0.685   3.102   1.148
 4358TIP3   OH213079   5.642   2.435   0.219
 4358TIP3    H113080   5.573   2.467   0.277
 4358TIP3    H213081   5.679   2.513   0.179
 4359TIP3   OH213082   6.093   0.863   2.965
 4359TIP3    H113083   6.042   0.934   3.005
 4359TIP3    H213084   6.092   0.883   2.871
 4360TIP3   OH213085   2.688   1.760   0.315
 4360TIP3    H113086   2.599   1.789   0.336
 4360TIP3    H213087   2.681   1.726   0.226
 4361TIP3   OH213088   1.181   0.973   2.601
 4361TIP3    H113089   1.200   0.886   2.635
 4361TIP3    H213090   1.161   1.025   2.679
 4362TIP3   OH213091   2.495   0.252   1.337
 4362TIP3    H113092   2.453   0.295   1.411
 4362TIP3    H213093   2.492   0.317   1.266
 4363TIP3   OH213094   0.194   4.292   2.947
 4363TIP3    H113095   0.271   4.311   3.001
 4363TIP3    H213096   0.217   4.326   2.861
 4364TIP3   OH213097   3.801   2.483   2.602
 4364TIP3    H113098   3.771   2.574   2.600
 4364TIP3    H213099   3.742   2.437   2.543
 4365TIP3   OH213100   5.076   3.802   3.292
 4365TIP3    H113101   5.110   3.881   3.334
 4365TIP3    H213102   5.130   3.791   3.213
 4366TIP3   OH213103   0.754   4.022   1.859
 4366TIP3    H113104   0.842   4.053   1.840
 4366TIP3    H213105   0.702   4.101   1.874
 4367TIP3   OH213106   0.077   5.480   2.249
 4367TIP3    H113107   0.085   5.416   2.320
 4367TIP3    H213108   0.134   5.552   2.275
 4368TIP3   OH213109   4.277   1.956   2.015
 4368TIP3    H113110   4.259   1.878   2.067
 4368TIP3    H213111   4.191   1.993   1.996
 4369TIP3   OH213112   5.443   4.695   4.426
 4369TIP3    H113113   5.407   4.720   4.512
 4369TIP3    H213114   5.493   4.771   4.398
 4370TIP3   OH213115   5.946   3.515   0.191
 4370TIP3    H113116   5.929   3.608   0.180
 4370TIP3    H213117   5.889   3.488   0.263
 4371TIP3   OH213118   1.490   3.908   4.556
 4371TIP3    H113119   1.472   3.981   4.496
 4371TIP3    H213120   1.506   3.834   4.498
 4372TIP3   OH213121   5.659   0.467   4.793
 4372TIP3    H113122   5.687   0.387   4.750
 4372TIP3    H213123   5.599   0.508   4.731
 4373TIP3   OH213124   5.389   3.358   0.305
 4373TIP3    H113125   5.474   3.387   0.272
 4373TIP3    H213126   5.391   3.379   0.399
 4374TIP3   OH213127   5.545   3.283   3.708
 4374TIP3    H113128   5.607   3.356   3.703
 4374TIP3    H213129   5.483   3.309   3.776
 4375TIP3   OH213130   5.498   4.843   0.952
 4375TIP3    H113131   5.569   4.876   1.007
 4375TIP3    H213132   5.542   4.793   0.883
 4376TIP3   OH213133   4.646   5.894   2.554
 4376TIP3    H113134   4.699   5.904   2.475
 4376TIP3    H213135   4.671   5.969   2.608
 4377TIP3   OH213136   1.012   4.476   1.777
 4377TIP3    H113137   1.036   4.393   1.818
 4377TIP3    H213138   1.095   4.510   1.743
 4378TIP3   OH213139   0.797   3.750   1.326
 4378TIP3    H113140   0.718   3.711   1.288
 4378TIP3    H213141   0.789   3.843   1.308
 4379TIP3   OH213142   1.008   0.637   1.416
 4379TIP3    H113143   0.969   0.572   1.474
 4379TIP3    H213144   1.096   0.604   1.398
 4380TIP3   OH213145   5.991   4.315   3.929
 4380TIP3    H113146   6.045   4.324   4.008
 4380TIP3    H213147   5.939   4.396   3.926
 4381TIP3   OH213148   5.868   5.024   2.705
 4381TIP3    H113149   5.899   4.978   2.783
 4381TIP3    H213150   5.944   5.074   2.675
 4382TIP3   OH213151   4.879   1.753   4.914
 4382TIP3    H113152   4.895   1.843   4.943
 4382TIP3    H213153   4.790   1.754   4.881
 4383TIP3   OH213154   4.983   5.062   1.750
 4383TIP3    H113155   5.049   5.130   1.767
 4383TIP3    H213156   5.030   4.997   1.698
 4384TIP3   OH213157   0.469   4.069   2.861
 4384TIP3    H113158   0.460   4.148   2.913
 4384TIP3    H213159   0.395   4.071   2.800
 4385TIP3   OH213160   6.229   1.756   3.646
 4385TIP3    H113161   6.138   1.778   3.625
 4385TIP3    H213162   6.222   1.683   3.708
 4386TIP3   OH213163   2.482   3.891   4.934
 4386TIP3    H113164   2.567   3.849   4.933
 4386TIP3    H213165   2.498   3.979   4.901
 4387TIP3   OH213166   0.045   0.634   2.728
 4387TIP3    H113167   0.032   0.727   2.746
 4387TIP3    H213168  -0.038   0.592   2.751
 4388TIP3   OH213169   5.271   0.435   2.332
 4388TIP3    H113170   5.286   0.341   2.340
 4388TIP3    H213171   5.328   0.462   2.259
 4389TIP3   OH213172   3.427   0.302   1.521
 4389TIP3    H113173   3.416   0.362   1.595
 4389TIP3    H213174   3.441   0.216   1.562
 4390TIP3   OH213175   2.971   5.673   1.216
 4390TIP3    H113176   2.937   5.622   1.143
 4390TIP3    H213177   3.044   5.723   1.179
 4391TIP3   OH213178   5.002   1.699   0.958
 4391TIP3    H113179   5.056   1.759   0.906
 4391TIP3    H213180   5.065   1.641   1.001
 4392TIP3   OH213181   2.845   0.564   4.165
 4392TIP3    H113182   2.875   0.640   4.115
 4392TIP3    H213183   2.906   0.495   4.142
 4393TIP3   OH213184   2.886   2.861   0.945
 4393TIP3    H113185   2.964   2.860   0.889
 4393TIP3    H213186   2.813   2.850   0.884
 4394TIP3   OH213187   0.327   0.543   4.049
 4394TIP3    H113188   0.419   0.567   4.063
 4394TIP3    H213189   0.318   0.539   3.954
 4395TIP3   OH213190   0.822   5.441   1.727
 4395TIP3    H113191   0.786   5.528   1.740
 4395TIP3    H213192   0.783   5.388   1.797
 4396TIP3   OH213193   4.791   2.224   2.411
 4396TIP3    H113194   4.847   2.254   2.339
 4396TIP3    H213195   4.840   2.153   2.452
 4397TIP3   OH213196   6.352   2.610   1.586
 4397TIP3    H113197   6.292   2.547   1.547
 4397TIP3    H213198   6.404   2.642   1.512
 4398TIP3   OH213199   4.353   3.603   2.540
 4398TIP3    H113200   4.293   3.592   2.466
 4398TIP3    H213201   4.322   3.540   2.605
 4399TIP3   OH213202   6.049   4.534   3.077
 4399TIP3    H113203   6.106   4.506   3.005
 4399TIP3    H213204   6.046   4.459   3.136
 4400TIP3   OH213205   6.345   5.620   1.075
 4400TIP3    H113206   6.314   5.671   1.149
 4400TIP3    H213207   6.305   5.534   1.086
 4401TIP3   OH213208   1.245   2.139   3.000
 4401TIP3    H113209   1.331   2.159   2.962
 4401TIP3    H213210   1.211   2.068   2.947
 4402TIP3   OH213211   3.944   5.583   0.579
 4402TIP3    H113212   3.994   5.505   0.600
 4402TIP3    H213213   3.927   5.624   0.663
 4403TIP3   OH213214   2.270   4.294   0.812
 4403TIP3    H113215   2.212   4.231   0.854
 4403TIP3    H213216   2.283   4.363   0.878
 4404TIP3   OH213217   2.002   2.897   4.342
 4404TIP3    H113218   1.911   2.868   4.338
 4404TIP3    H213219   2.048   2.842   4.280
 4405TIP3   OH213220   5.163   5.296   1.946
 4405TIP3    H113221   5.211   5.376   1.963
 4405TIP3    H213222   5.175   5.279   1.853
 4406TIP3   OH213223   5.396   1.678   4.107
 4406TIP3    H113224   5.426   1.755   4.059
 4406TIP3    H213225   5.301   1.685   4.107
 4407TIP3   OH213226   1.636   2.424   2.068
 4407TIP3    H113227   1.541   2.427   2.073
 4407TIP3    H213228   1.664   2.514   2.086
 4408TIP3   OH213229   3.328   3.312   4.589
 4408TIP3    H113230   3.245   3.277   4.555
 4408TIP3    H213231   3.393   3.245   4.569
 4409TIP3   OH213232   0.154   0.611   3.000
 4409TIP3    H113233   0.155   0.602   2.904
 4409TIP3    H213234   0.148   0.706   3.015
 4410TIP3   OH213235   4.468   0.988   0.621
 4410TIP3    H113236   4.478   1.083   0.612
 4410TIP3    H213237   4.383   0.976   0.663
 4411TIP3   OH213238   0.660   3.281   3.914
 4411TIP3    H113239   0.743   3.245   3.885
 4411TIP3    H213240   0.670   3.291   4.009
 4412TIP3   OH213241   1.936   3.549   0.184
 4412TIP3    H113242   1.994   3.498   0.240
 4412TIP3    H213243   1.937   3.503   0.100
 4413TIP3   OH213244   0.645   5.568   4.916
 4413TIP3    H113245   0.558   5.539   4.887
 4413TIP3    H213246   0.700   5.490   4.907
 4414TIP3   OH213247   2.372   2.296   0.313
 4414TIP3    H113248   2.401   2.269   0.400
 4414TIP3    H213249   2.279   2.274   0.310
 4415TIP3   OH213250   5.578   1.434   0.493
 4415TIP3    H113251   5.604   1.412   0.403
 4415TIP3    H213252   5.632   1.378   0.548
 4416TIP3   OH213253   4.537   2.818   3.553
 4416TIP3    H113254   4.462   2.840   3.609
 4416TIP3    H213255   4.551   2.896   3.499
 4417TIP3   OH213256   5.902   1.768   2.620
 4417TIP3    H113257   5.878   1.709   2.549
 4417TIP3    H213258   5.870   1.854   2.591
 4418TIP3   OH213259   4.937   2.939   0.170
 4418TIP3    H113260   4.958   2.920   0.078
 4418TIP3    H213261   4.967   3.030   0.183
 4419TIP3   OH213262   0.960   5.445  -0.019
 4419TIP3    H113263   1.029   5.398  -0.065
 4419TIP3    H213264   0.929   5.383   0.047
 4420TIP3   OH213265   2.666   1.866   1.485
 4420TIP3    H113266   2.684   1.913   1.404
 4420TIP3    H213267   2.667   1.774   1.460
 4421TIP3   OH213268   6.280   5.315   3.692
 4421TIP3    H113269   6.240   5.358   3.768
 4421TIP3    H213270   6.309   5.387   3.636
 4422TIP3   OH213271   6.287   4.096   2.127
 4422TIP3    H113272   6.240   4.035   2.184
 4422TIP3    H213273   6.254   4.182   2.153
 4423TIP3   OH213274   4.482   2.031   2.921
 4423TIP3    H113275   4.478   2.048   3.015
 4423TIP3    H213276   4.414   2.087   2.884
 4424TIP3   OH213277   4.199   4.877   5.124
 4424TIP3    H113278   4.230   4.818   5.054
 4424TIP3    H213279   4.230   4.835   5.204
 4425TIP3   OH213280   5.497   1.711   5.168
 4425TIP3    H113281   5.402   1.701   5.158
 4425TIP3    H213282   5.513   1.803   5.148
 4426TIP3   OH213283   2.665   2.130   0.972
 4426TIP3    H113284   2.725   2.112   0.900
 4426TIP3    H213285   2.590   2.173   0.931
 4427TIP3   OH213286   6.140   4.525   4.710
 4427TIP3    H113287   6.217   4.487   4.752
 4427TIP3    H213288   6.078   4.452   4.704
 4428TIP3   OH213289   3.250   5.455   0.536
 4428TIP3    H113290   3.326   5.423   0.487
 4428TIP3    H213291   3.185   5.386   0.528
 4429TIP3   OH213292   1.603   5.427   5.041
 4429TIP3    H113293   1.509   5.421   5.060
 4429TIP3    H213294   1.644   5.441   5.127
 4430TIP3   OH213295   5.344   5.712   4.771
 4430TIP3    H113296   5.325   5.731   4.863
 4430TIP3    H213297   5.396   5.787   4.741
 4431TIP3   OH213298   4.601   5.370   4.605
 4431TIP3    H113299   4.562   5.283   4.611
 4431TIP3    H213300   4.529   5.428   4.584
 4432TIP3   OH213301   1.665   4.141   3.670
 4432TIP3    H113302   1.593   4.203   3.659
 4432TIP3    H213303   1.683   4.109   3.582
 4433TIP3   OH213304   4.492   1.786   2.628
 4433TIP3    H113305   4.505   1.858   2.566
 4433TIP3    H213306   4.574   1.736   2.625
 4434TIP3   OH213307   1.399   5.253   0.396
 4434TIP3    H113308   1.458   5.328   0.401
 4434TIP3    H213309   1.382   5.243   0.302
 4435TIP3   OH213310   0.663   5.844   2.480
 4435TIP3    H113311   0.646   5.807   2.393
 4435TIP3    H213312   0.604   5.919   2.486
 4436TIP3   OH213313   2.077   1.722   2.059
 4436TIP3    H113314   2.011   1.791   2.061
 4436TIP3    H213315   2.119   1.730   1.974
 4437TIP3   OH213316   5.653   3.680   3.930
 4437TIP3    H113317   5.633   3.612   3.995
 4437TIP3    H213318   5.669   3.759   3.982
 4438TIP3   OH213319   2.716   4.811   2.943
 4438TIP3    H113320   2.751   4.854   3.021
 4438TIP3    H213321   2.754   4.724   2.944
 4439TIP3   OH213322   1.574   5.104   5.104
 4439TIP3    H113323   1.649   5.161   5.120
 4439TIP3    H213324   1.511   5.128   5.172
 4440TIP3   OH213325   1.091   3.647   2.696
 4440TIP3    H113326   1.028   3.690   2.754
 4440TIP3    H213327   1.091   3.556   2.724
 4441TIP3   OH213328   2.232   4.712   3.840
 4441TIP3    H113329   2.320   4.687   3.812
 4441TIP3    H213330   2.174   4.674   3.775
 4442TIP3   OH213331   4.301   0.501   1.809
 4442TIP3    H113332   4.316   0.451   1.728
 4442TIP3    H213333   4.268   0.586   1.778
 4443TIP3   OH213334   4.972   2.964   2.513
 4443TIP3    H113335   5.000   2.923   2.432
 4443TIP3    H213336   5.040   2.943   2.576
 4444TIP3   OH213337   4.937   1.428   4.532
 4444TIP3    H113338   4.843   1.423   4.547
 4444TIP3    H213339   4.947   1.441   4.438
 4445TIP3   OH213340   1.739   2.097   1.126
 4445TIP3    H113341   1.817   2.121   1.177
 4445TIP3    H213342   1.768   2.023   1.072
 4446TIP3   OH213343   5.616   1.403   0.210
 4446TIP3    H113344   5.648   1.489   0.183
 4446TIP3    H213345   5.671   1.341   0.162
 4447TIP3   OH213346   4.432   0.140   2.467
 4447TIP3    H113347   4.466   0.177   2.385
 4447TIP3    H213348   4.343   0.113   2.445
 4448TIP3   OH213349   0.687   3.637   2.352
 4448TIP3    H113350   0.707   3.693   2.428
 4448TIP3    H213351   0.671   3.698   2.280
 4449TIP3   OH213352   2.843   4.095   2.478
 4449TIP3    H113353   2.831   4.033   2.550
 4449TIP3    H213354   2.832   4.042   2.399
 4450TIP3   OH213355   4.071   3.632   3.857
 4450TIP3    H113356   3.977   3.614   3.851
 4450TIP3    H213357   4.104   3.620   3.768
 4451TIP3   OH213358   1.372   4.150   3.273
 4451TIP3    H113359   1.364   4.091   3.347
 4451TIP3    H213360   1.404   4.095   3.201
 4452TIP3   OH213361   2.450   3.714   3.624
 4452TIP3    H113362   2.443   3.631   3.576
 4452TIP3    H213363   2.364   3.755   3.613
 4453TIP3   OH213364   4.267   5.756   0.938
 4453TIP3    H113365   4.263   5.780   0.845
 4453TIP3    H213366   4.264   5.840   0.984
 4454TIP3   OH213367   3.851   4.953   3.399
 4454TIP3    H113368   3.801   4.963   3.318
 4454TIP3    H213369   3.822   5.026   3.454
 4455TIP3   OH213370   0.929   4.738   0.983
 4455TIP3    H113371   0.909   4.821   0.939
 4455TIP3    H213372   0.997   4.698   0.930
 4456TIP3   OH213373   1.731   0.253   0.401
 4456TIP3    H113374   1.774   0.303   0.332
 4456TIP3    H213375   1.644   0.293   0.408
 4457TIP3   OH213376   1.939   4.257   5.038
 4457TIP3    H113377   1.861   4.209   5.066
 4457TIP3    H213378   1.956   4.320   5.108
 4458TIP3   OH213379   4.024   0.127   1.670
 4458TIP3    H113380   4.035   0.044   1.625
 4458TIP3    H213381   4.113   0.160   1.682
 4459TIP3   OH213382   5.532   0.468   3.219
 4459TIP3    H113383   5.587   0.544   3.198
 4459TIP3    H213384   5.450   0.507   3.250
 4460TIP3   OH213385   5.333   1.228   3.464
 4460TIP3    H113386   5.244   1.249   3.492
 4460TIP3    H213387   5.376   1.195   3.542
 4461TIP3   OH213388   0.730   1.636   0.786
 4461TIP3    H113389   0.769   1.562   0.832
 4461TIP3    H213390   0.800   1.670   0.731
 4462TIP3   OH213391   3.029   1.585   3.699
 4462TIP3    H113392   3.022   1.678   3.675
 4462TIP3    H213393   3.121   1.564   3.688
 4463TIP3   OH213394   0.865   5.297   2.776
 4463TIP3    H113395   0.850   5.371   2.835
 4463TIP3    H213396   0.858   5.220   2.833
 4464TIP3   OH213397   2.530   4.877   2.171
 4464TIP3    H113398   2.435   4.890   2.180
 4464TIP3    H213399   2.559   4.853   2.258
 4465TIP3   OH213400   0.694   1.129   4.299
 4465TIP3    H113401   0.763   1.163   4.242
 4465TIP3    H213402   0.615   1.177   4.272
 4466TIP3   OH213403   4.955   5.874   4.305
 4466TIP3    H113404   5.000   5.955   4.282
 4466TIP3    H213405   5.025   5.810   4.319
 4467TIP3   OH213406   3.843   4.228   0.793
 4467TIP3    H113407   3.879   4.314   0.771
 4467TIP3    H213408   3.859   4.174   0.716
 4468TIP3   OH213409   3.711   2.152   0.592
 4468TIP3    H113410   3.776   2.149   0.662
 4468TIP3    H213411   3.760   2.179   0.514
 4469TIP3   OH213412   3.781   3.913   2.480
 4469TIP3    H113413   3.817   3.942   2.564
 4469TIP3    H213414   3.830   3.962   2.414
 4470TIP3   OH213415   6.314   5.729   4.228
 4470TIP3    H113416   6.219   5.721   4.234
 4470TIP3    H213417   6.339   5.670   4.157
 4471TIP3   OH213418   1.028   2.767   3.250
 4471TIP3    H113419   0.974   2.690   3.232
 4471TIP3    H213420   1.023   2.778   3.345
 4472TIP3   OH213421   0.084   5.282   2.735
 4472TIP3    H113422   0.101   5.328   2.817
 4472TIP3    H213423   0.039   5.202   2.761
 4473TIP3   OH213424   5.156   5.687   4.362
 4473TIP3    H113425   5.174   5.595   4.378
 4473TIP3    H213426   5.154   5.727   4.449
 4474TIP3   OH213427   1.574   3.381   1.405
 4474TIP3    H113428   1.486   3.407   1.432
 4474TIP3    H213429   1.576   3.286   1.421
 4475TIP3   OH213430   3.007   1.311   2.624
 4475TIP3    H113431   2.957   1.230   2.634
 4475TIP3    H213432   2.941   1.376   2.597
 4476TIP3   OH213433   4.152   2.323   1.278
 4476TIP3    H113434   4.138   2.415   1.298
 4476TIP3    H213435   4.134   2.315   1.184
 4477TIP3   OH213436   4.560   2.173   4.289
 4477TIP3    H113437   4.629   2.140   4.348
 4477TIP3    H213438   4.592   2.154   4.201
 4478TIP3   OH213439   3.849   2.442   0.594
 4478TIP3    H113440   3.937   2.434   0.558
 4478TIP3    H213441   3.791   2.432   0.518
 4479TIP3   OH213442   2.739   0.223   4.653
 4479TIP3    H113443   2.735   0.309   4.611
 4479TIP3    H213444   2.831   0.214   4.680
 4480TIP3   OH213445   1.693   4.689   0.344
 4480TIP3    H113446   1.634   4.689   0.419
 4480TIP3    H213447   1.739   4.605   0.349
 4481TIP3   OH213448   1.231   5.708   3.883
 4481TIP3    H113449   1.232   5.637   3.948
 4481TIP3    H213450   1.280   5.779   3.924
 4482TIP3   OH213451   0.785   2.758   2.087
 4482TIP3    H113452   0.797   2.663   2.075
 4482TIP3    H213453   0.705   2.765   2.139
 4483TIP3   OH213454   3.763   2.786   0.847
 4483TIP3    H113455   3.818   2.864   0.844
 4483TIP3    H213456   3.730   2.783   0.937
 4484TIP3   OH213457   0.379   0.380   4.959
 4484TIP3    H113458   0.471   0.359   4.969
 4484TIP3    H213459   0.370   0.407   4.867
 4485TIP3   OH213460   4.743   3.990   1.744
 4485TIP3    H113461   4.698   4.005   1.827
 4485TIP3    H213462   4.687   3.927   1.697
 4486TIP3   OH213463   3.881   4.785   4.755
 4486TIP3    H113464   3.808   4.760   4.698
 4486TIP3    H213465   3.957   4.791   4.697
 4487TIP3   OH213466   3.961   1.501   1.995
 4487TIP3    H113467   4.024   1.491   2.067
 4487TIP3    H213468   3.952   1.595   1.983
 4488TIP3   OH213469   4.082   4.981   2.311
 4488TIP3    H113470   4.005   4.983   2.368
 4488TIP3    H213471   4.099   5.073   2.291
 4489TIP3   OH213472   4.418   0.774   5.018
 4489TIP3    H113473   4.398   0.867   5.034
 4489TIP3    H213474   4.444   0.771   4.926
 4490TIP3   OH213475   3.333   3.534   0.223
 4490TIP3    H113476   3.299   3.574   0.143
 4490TIP3    H213477   3.269   3.466   0.245
 4491TIP3   OH213478   3.354   4.322   1.166
 4491TIP3    H113479   3.340   4.379   1.242
 4491TIP3    H213480   3.276   4.266   1.164
 4492TIP3   OH213481   2.716   4.763   5.128
 4492TIP3    H113482   2.633   4.736   5.166
 4492TIP3    H213483   2.693   4.820   5.055
 4493TIP3   OH213484   1.859   0.598   2.564
 4493TIP3    H113485   1.952   0.600   2.544
 4493TIP3    H213486   1.849   0.656   2.640
 4494TIP3   OH213487   4.033   1.228   4.352
 4494TIP3    H113488   4.007   1.270   4.270
 4494TIP3    H213489   4.108   1.173   4.329
 4495TIP3   OH213490   3.575   1.061   3.894
 4495TIP3    H113491   3.550   0.969   3.888
 4495TIP3    H213492   3.656   1.061   3.945
 4496TIP3   OH213493   4.487   2.449   0.704
 4496TIP3    H113494   4.410   2.408   0.744
 4496TIP3    H213495   4.532   2.378   0.659
 4497TIP3   OH213496   4.870   0.716   1.982
 4497TIP3    H113497   4.891   0.676   1.897
 4497TIP3    H213498   4.815   0.652   2.027
 4498TIP3   OH213499   4.030   3.195   0.955
 4498TIP3    H113500   4.022   3.132   1.027
 4498TIP3    H213501   4.123   3.193   0.932
 4499TIP3   OH213502   5.509   0.979   0.059
 4499TIP3    H113503   5.532   1.015   0.145
 4499TIP3    H213504   5.448   0.908   0.077
 4500TIP3   OH213505   0.454   0.181   0.762
 4500TIP3    H113506   0.376   0.227   0.731
 4500TIP3    H213507   0.449   0.188   0.857
 4501TIP3   OH213508   4.055   1.278   0.458
 4501TIP3    H113509   4.037   1.304   0.548
 4501TIP3    H213510   3.969   1.253   0.423
 4502TIP3   OH213511   5.691   5.836   4.571
 4502TIP3    H113512   5.724   5.770   4.633
 4502TIP3    H213513   5.769   5.886   4.547
 4503TIP3   OH213514   0.436   1.276   0.957
 4503TIP3    H113515   0.476   1.246   0.875
 4503TIP3    H213516   0.362   1.330   0.928
 4504TIP3   OH213517   0.229   3.435   3.239
 4504TIP3    H113518   0.257   3.505   3.181
 4504TIP3    H213519   0.309   3.386   3.258
 4505TIP3   OH213520   0.835   3.930   3.710
 4505TIP3    H113521   0.869   3.923   3.799
 4505TIP3    H213522   0.907   3.899   3.655
 4506TIP3   OH213523   3.327   1.311   4.352
 4506TIP3    H113524   3.381   1.389   4.363
 4506TIP3    H213525   3.386   1.238   4.372
 4507TIP3   OH213526   5.534   4.429   3.150
 4507TIP3    H113527   5.627   4.426   3.170
 4507TIP3    H213528   5.528   4.410   3.057
 4508TIP3   OH213529   3.377  -0.020   4.538
 4508TIP3    H113530   3.313  -0.030   4.608
 4508TIP3    H213531   3.460  -0.004   4.583
 4509TIP3   OH213532   2.256   5.603   1.305
 4509TIP3    H113533   2.245   5.640   1.393
 4509TIP3    H213534   2.257   5.508   1.318
 4510TIP3   OH213535   1.211   4.390   3.095
 4510TIP3    H113536   1.300   4.389   3.130
 4510TIP3    H213537   1.157   4.424   3.167
 4511TIP3   OH213538   1.279   4.583   0.616
 4511TIP3    H113539   1.323   4.551   0.694
 4511TIP3    H213540   1.349   4.602   0.554
 4512TIP3   OH213541   5.727   3.885   4.087
 4512TIP3    H113542   5.649   3.935   4.063
 4512TIP3    H213543   5.782   3.948   4.135
 4513TIP3   OH213544   2.485   2.872   1.196
 4513TIP3    H113545   2.542   2.805   1.233
 4513TIP3    H213546   2.533   2.954   1.210
 4514TIP3   OH213547   2.284   0.490   3.507
 4514TIP3    H113548   2.335   0.416   3.539
 4514TIP3    H213549   2.265   0.542   3.585
 4515TIP3   OH213550   0.599   1.669   2.113
 4515TIP3    H113551   0.582   1.691   2.204
 4515TIP3    H213552   0.632   1.579   2.116
 4516TIP3   OH213553   0.379   5.558   4.854
 4516TIP3    H113554   0.298   5.527   4.893
 4516TIP3    H213555   0.352   5.615   4.782
 4517TIP3   OH213556   3.864   2.715   2.910
 4517TIP3    H113557   3.929   2.710   2.840
 4517TIP3    H213558   3.827   2.803   2.902
 4518TIP3   OH213559   5.477   5.246   4.681
 4518TIP3    H113560   5.416   5.175   4.662
 4518TIP3    H213561   5.491   5.242   4.775
 4519TIP3   OH213562   0.449   0.071   3.930
 4519TIP3    H113563   0.371   0.085   3.877
 4519TIP3    H213564   0.501   0.150   3.917
 4520TIP3   OH213565   6.162   0.793   1.188
 4520TIP3    H113566   6.116   0.795   1.105
 4520TIP3    H213567   6.166   0.885   1.216
 4521TIP3   OH213568   5.224   2.980   4.486
 4521TIP3    H113569   5.185   2.897   4.457
 4521TIP3    H213570   5.298   2.954   4.541
 4522TIP3   OH213571   0.739   4.998   3.686
 4522TIP3    H113572   0.719   5.046   3.606
 4522TIP3    H213573   0.660   4.947   3.703
 4523TIP3   OH213574   5.999   3.406   0.648
 4523TIP3    H113575   5.911   3.371   0.663
 4523TIP3    H213576   6.034   3.420   0.736
 4524TIP3   OH213577   0.310   4.260   4.961
 4524TIP3    H113578   0.288   4.196   5.029
 4524TIP3    H213579   0.292   4.345   5.001
 4525TIP3   OH213580   1.501   0.809   0.084
 4525TIP3    H113581   1.421   0.860   0.069
 4525TIP3    H213582   1.570   0.860   0.040
 4526TIP3   OH213583   2.079   2.965   0.787
 4526TIP3    H113584   2.063   2.879   0.826
 4526TIP3    H213585   2.075   3.026   0.861
 4527TIP3   OH213586   1.880   2.160   3.303
 4527TIP3    H113587   1.961   2.184   3.258
 4527TIP3    H213588   1.829   2.114   3.236
 4528TIP3   OH213589   3.133   1.717   0.172
 4528TIP3    H113590   3.082   1.677   0.101
 4528TIP3    H213591   3.072   1.724   0.245
 4529TIP3   OH213592   2.646   5.450   0.404
 4529TIP3    H113593   2.662   5.419   0.493
 4529TIP3    H213594   2.733   5.469   0.369
 4530TIP3   OH213595   3.843   1.565   4.473
 4530TIP3    H113596   3.903   1.639   4.472
 4530TIP3    H213597   3.810   1.563   4.563
 4531TIP3   OH213598   3.697   1.537   4.776
 4531TIP3    H113599   3.661   1.595   4.843
 4531TIP3    H213600   3.732   1.462   4.824
 4532TIP3   OH213601   0.390   4.732   1.371
 4532TIP3    H113602   0.471   4.775   1.342
 4532TIP3    H213603   0.330   4.741   1.297
 4533TIP3   OH213604   1.862   0.641   4.528
 4533TIP3    H113605   1.924   0.714   4.518
 4533TIP3    H213606   1.799   0.655   4.458
 4534TIP3   OH213607   1.623   3.056   3.108
 4534TIP3    H113608   1.629   3.089   3.018
 4534TIP3    H213609   1.541   3.005   3.109
 4535TIP3   OH213610   4.545   1.821   3.344
 4535TIP3    H113611   4.480   1.768   3.389
 4535TIP3    H213612   4.627   1.774   3.356
 4536TIP3   OH213613   2.510   0.631   3.164
 4536TIP3    H113614   2.502   0.546   3.208
 4536TIP3    H213615   2.600   0.632   3.132
 4537TIP3   OH213616   1.241   0.480   1.386
 4537TIP3    H113617   1.329   0.466   1.350
 4537TIP3    H213618   1.183   0.428   1.331
 4538TIP3   OH213619   1.031   1.917   4.528
 4538TIP3    H113620   0.936   1.904   4.529
 4538TIP3    H213621   1.043   2.009   4.552
 4539TIP3   OH213622   2.954   1.679   0.628
 4539TIP3    H113623   3.023   1.678   0.694
 4539TIP3    H213624   2.906   1.761   0.644
 4540TIP3   OH213625   0.687   4.970   0.953
 4540TIP3    H113626   0.755   5.008   1.008
 4540TIP3    H213627   0.630   5.044   0.931
 4541TIP3   OH213628   4.655   2.482   0.946
 4541TIP3    H113629   4.639   2.484   0.852
 4541TIP3    H213630   4.670   2.390   0.966
 4542TIP3   OH213631   0.786   4.434   3.214
 4542TIP3    H113632   0.784   4.503   3.148
 4542TIP3    H213633   0.736   4.468   3.287
 4543TIP3   OH213634   3.586   3.728   4.820
 4543TIP3    H113635   3.532   3.798   4.858
 4543TIP3    H213636   3.547   3.647   4.853
 4544TIP3   OH213637   5.090   2.278   2.607
 4544TIP3    H113638   5.132   2.352   2.650
 4544TIP3    H213639   5.161   2.232   2.563
 4545TIP3   OH213640   4.250   5.554   2.706
 4545TIP3    H113641   4.327   5.582   2.656
 4545TIP3    H213642   4.230   5.467   2.671
 4546TIP3   OH213643   1.147   0.109   4.483
 4546TIP3    H113644   1.203   0.117   4.405
 4546TIP3    H213645   1.093   0.188   4.481
 4547TIP3   OH213646   2.714   1.270   3.361
 4547TIP3    H113647   2.723   1.176   3.345
 4547TIP3    H213648   2.663   1.276   3.442
 4548TIP3   OH213649   0.982   4.172   0.184
 4548TIP3    H113650   0.929   4.145   0.109
 4548TIP3    H213651   0.940   4.253   0.215
 4549TIP3   OH213652   2.374   4.635   2.894
 4549TIP3    H113653   2.396   4.612   2.804
 4549TIP3    H213654   2.425   4.713   2.913
 4550TIP3   OH213655   5.071   3.389   2.955
 4550TIP3    H113656   5.002   3.347   3.005
 4550TIP3    H213657   5.026   3.430   2.881
 4551TIP3   OH213658   5.449   0.705   1.775
 4551TIP3    H113659   5.518   0.677   1.715
 4551TIP3    H213660   5.496   0.743   1.849
 4552TIP3   OH213661   6.255   0.534   0.132
 4552TIP3    H113662   6.223   0.444   0.128
 4552TIP3    H213663   6.193   0.584   0.078
 4553TIP3   OH213664   4.286   1.945   2.376
 4553TIP3    H113665   4.321   1.982   2.457
 4553TIP3    H213666   4.352   1.967   2.309
 4554TIP3   OH213667   0.247   4.940   2.085
 4554TIP3    H113668   0.162   4.902   2.062
 4554TIP3    H213669   0.225   5.014   2.142
 4555TIP3   OH213670   1.438   5.805   5.064
 4555TIP3    H113671   1.393   5.873   5.115
 4555TIP3    H213672   1.426   5.725   5.114
 4556TIP3   OH213673   4.828   1.208   4.134
 4556TIP3    H113674   4.873   1.128   4.106
 4556TIP3    H213675   4.736   1.192   4.112
 4557TIP3   OH213676   3.333   4.406   1.454
 4557TIP3    H113677   3.407   4.453   1.416
 4557TIP3    H213678   3.269   4.474   1.473
 4558TIP3   OH213679   3.906   3.032   0.770
 4558TIP3    H113680   3.934   3.097   0.835
 4558TIP3    H213681   3.982   3.018   0.715
 4559TIP3   OH213682   4.152   0.088   1.015
 4559TIP3    H113683   4.118   0.025   1.078
 4559TIP3    H213684   4.224   0.042   0.972
 4560TIP3   OH213685   4.680   0.165   1.070
 4560TIP3    H113686   4.744   0.124   1.127
 4560TIP3    H213687   4.720   0.164   0.983
 4561TIP3   OH213688   6.194   2.092   3.411
 4561TIP3    H113689   6.128   2.060   3.473
 4561TIP3    H213690   6.252   2.147   3.464
 4562TIP3   OH213691   3.638   1.296   3.286
 4562TIP3    H113692   3.578   1.370   3.286
 4562TIP3    H213693   3.616   1.247   3.366
 4563TIP3   OH213694   2.163   3.663   1.491
 4563TIP3    H113695   2.111   3.694   1.418
 4563TIP3    H213696   2.149   3.568   1.493
 4564TIP3   OH213697   3.623   4.684   2.221
 4564TIP3    H113698   3.704   4.661   2.175
 4564TIP3    H213699   3.651   4.696   2.312
 4565TIP3   OH213700   4.993   1.936   2.917
 4565TIP3    H113701   4.906   1.918   2.883
 4565TIP3    H213702   5.045   1.859   2.894
 4566TIP3   OH213703   1.706   2.245   3.525
 4566TIP3    H113704   1.627   2.194   3.507
 4566TIP3    H213705   1.772   2.209   3.466
 4567TIP3   OH213706   5.215   2.499   0.482
 4567TIP3    H113707   5.189   2.491   0.390
 4567TIP3    H213708   5.149   2.558   0.520
 4568TIP3   OH213709   5.874   1.627   1.605
 4568TIP3    H113710   5.954   1.680   1.609
 4568TIP3    H213711   5.901   1.548   1.558
 4569TIP3   OH213712   0.664   1.238   3.605
 4569TIP3    H113713   0.724   1.209   3.536
 4569TIP3    H213714   0.656   1.162   3.663
 4570TIP3   OH213715   0.802   5.759   3.604
 4570TIP3    H113716   0.816   5.733   3.695
 4570TIP3    H213717   0.863   5.831   3.590
 4571TIP3   OH213718   1.687   0.375   2.590
 4571TIP3    H113719   1.652   0.388   2.502
 4571TIP3    H213720   1.759   0.437   2.597
 4572TIP3   OH213721   1.199   5.970   1.848
 4572TIP3    H113722   1.234   5.885   1.874
 4572TIP3    H213723   1.262   6.003   1.784
 4573TIP3   OH213724   4.963   0.217   0.525
 4573TIP3    H113725   4.981   0.276   0.599
 4573TIP3    H213726   5.015   0.253   0.453
 4574TIP3   OH213727   5.720   4.087   2.588
 4574TIP3    H113728   5.771   4.058   2.512
 4574TIP3    H213729   5.690   4.175   2.564
 4575TIP3   OH213730   2.351   4.787   3.566
 4575TIP3    H113731   2.387   4.818   3.483
 4575TIP3    H213732   2.256   4.790   3.554
 4576TIP3   OH213733   5.719   0.867   2.312
 4576TIP3    H113734   5.693   0.891   2.223
 4576TIP3    H213735   5.646   0.816   2.346
 4577TIP3   OH213736   1.390   5.231   1.256
 4577TIP3    H113737   1.464   5.173   1.275
 4577TIP3    H213738   1.424   5.291   1.189
 4578TIP3   OH213739   0.607   5.130   1.628
 4578TIP3    H113740   0.639   5.040   1.626
 4578TIP3    H213741   0.643   5.167   1.709
 4579TIP3   OH213742   1.671   3.750   3.647
 4579TIP3    H113743   1.747   3.733   3.702
 4579TIP3    H213744   1.699   3.823   3.590
 4580TIP3   OH213745   3.432   2.123   4.689
 4580TIP3    H113746   3.371   2.185   4.729
 4580TIP3    H213747   3.515   2.140   4.732
 4581TIP3   OH213748   1.335   1.369   3.496
 4581TIP3    H113749   1.348   1.274   3.486
 4581TIP3    H213750   1.320   1.401   3.407
 4582TIP3   OH213751   0.710   5.534   0.398
 4582TIP3    H113752   0.660   5.615   0.386
 4582TIP3    H213753   0.665   5.489   0.470
 4583TIP3   OH213754   1.583   4.985   3.048
 4583TIP3    H113755   1.549   5.074   3.063
 4583TIP3    H213756   1.608   4.985   2.955
 4584TIP3   OH213757   1.819   1.556   1.348
 4584TIP3    H113758   1.737   1.576   1.303
 4584TIP3    H213759   1.808   1.466   1.379
 4585TIP3   OH213760   3.419   2.658   1.990
 4585TIP3    H113761   3.430   2.685   1.899
 4585TIP3    H213762   3.372   2.575   1.985
 4586TIP3   OH213763   1.118   4.300   4.973
 4586TIP3    H113764   1.127   4.344   4.888
 4586TIP3    H213765   1.181   4.228   4.970
 4587TIP3   OH213766   6.237   2.597   0.640
 4587TIP3    H113767   6.242   2.627   0.731
 4587TIP3    H213768   6.322   2.556   0.624
 4588TIP3   OH213769   4.199   1.564   4.616
 4588TIP3    H113770   4.122   1.558   4.673
 4588TIP3    H213771   4.223   1.473   4.600
 4589TIP3   OH213772   0.182   3.381   4.418
 4589TIP3    H113773   0.100   3.357   4.461
 4589TIP3    H213774   0.219   3.297   4.391
 4590TIP3   OH213775   6.217   3.647   1.238
 4590TIP3    H113776   6.244   3.641   1.330
 4590TIP3    H213777   6.233   3.560   1.202
 4591TIP3   OH213778   0.117   5.404   3.313
 4591TIP3    H113779   0.063   5.340   3.266
 4591TIP3    H213780   0.054   5.451   3.368
 4592TIP3   OH213781   5.677   5.212   4.931
 4592TIP3    H113782   5.649   5.131   4.974
 4592TIP3    H213783   5.755   5.188   4.883
 4593TIP3   OH213784   2.886   0.297   4.042
 4593TIP3    H113785   2.793   0.302   4.018
 4593TIP3    H213786   2.886   0.268   4.133
 4594TIP3   OH213787   2.462   3.231   4.918
 4594TIP3    H113788   2.396   3.164   4.934
 4594TIP3    H213789   2.542   3.197   4.958
 4595TIP3   OH213790   2.108   5.644   3.253
 4595TIP3    H113791   2.084   5.551   3.255
 4595TIP3    H213792   2.025   5.690   3.260
 4596TIP3   OH213793   2.931   0.106   2.256
 4596TIP3    H113794   2.932   0.159   2.176
 4596TIP3    H213795   2.971   0.023   2.231
 4597TIP3   OH213796   3.923   1.436   2.975
 4597TIP3    H113797   3.884   1.472   3.055
 4597TIP3    H213798   4.013   1.467   2.976
 4598TIP3   OH213799   0.594  -0.005   2.329
 4598TIP3    H113800   0.680   0.030   2.353
 4598TIP3    H213801   0.550   0.068   2.285
 4599TIP3   OH213802   5.827   0.425   1.598
 4599TIP3    H113803   5.788   0.377   1.525
 4599TIP3    H213804   5.902   0.470   1.560
 4600TIP3   OH213805   3.182   3.149   0.364
 4600TIP3    H113806   3.221   3.110   0.285
 4600TIP3    H213807   3.257   3.172   0.419
 4601TIP3   OH213808   2.979   0.720   3.202
 4601TIP3    H113809   2.909   0.783   3.185
 4601TIP3    H213810   3.031   0.719   3.122
 4602TIP3   OH213811   3.704   5.150   3.010
 4602TIP3    H113812   3.705   5.244   2.991
 4602TIP3    H213813   3.634   5.115   2.956
 4603TIP3   OH213814   0.984   3.956   0.633
 4603TIP3    H113815   1.016   4.021   0.695
 4603TIP3    H213816   1.029   3.977   0.551
 4604TIP3   OH213817   2.538   5.750   0.614
 4604TIP3    H113818   2.520   5.659   0.638
 4604TIP3    H213819   2.601   5.780   0.679
 4605TIP3   OH213820   5.429   5.512   4.549
 4605TIP3    H113821   5.429   5.580   4.617
 4605TIP3    H213822   5.450   5.431   4.596
 4606TIP3   OH213823   4.463   5.792   3.476
 4606TIP3    H113824   4.514   5.864   3.513
 4606TIP3    H213825   4.371   5.818   3.490
 4607TIP3   OH213826   5.555   3.987   1.572
 4607TIP3    H113827   5.632   3.953   1.618
 4607TIP3    H213828   5.580   4.075   1.546
 4608TIP3   OH213829   1.562   1.310   3.828
 4608TIP3    H113830   1.622   1.290   3.756
 4608TIP3    H213831   1.577   1.241   3.893
 4609TIP3   OH213832   3.865   3.777   0.232
 4609TIP3    H113833   3.930   3.723   0.278
 4609TIP3    H213834   3.896   3.781   0.142
 4610TIP3   OH213835   5.378   4.538   4.684
 4610TIP3    H113836   5.403   4.630   4.673
 4610TIP3    H213837   5.306   4.541   4.747
 4611TIP3   OH213838   0.235   0.535   2.316
 4611TIP3    H113839   0.289   0.614   2.312
 4611TIP3    H213840   0.212   0.516   2.225
 4612TIP3   OH213841   5.987   2.300   4.642
 4612TIP3    H113842   5.924   2.319   4.711
 4612TIP3    H213843   5.980   2.206   4.629
 4613TIP3   OH213844   3.831   0.604   2.124
 4613TIP3    H113845   3.792   0.652   2.197
 4613TIP3    H213846   3.788   0.518   2.126
 4614TIP3   OH213847   1.347   4.450   4.625
 4614TIP3    H113848   1.386   4.440   4.538
 4614TIP3    H213849   1.387   4.530   4.660
 4615TIP3   OH213850   2.592   4.678   2.363
 4615TIP3    H113851   2.519   4.616   2.365
 4615TIP3    H213852   2.668   4.625   2.340
 4616TIP3   OH213853   5.222   4.056   4.921
 4616TIP3    H113854   5.315   4.042   4.940
 4616TIP3    H213855   5.178   3.982   4.962
 4617TIP3   OH213856   3.956   2.493   5.158
 4617TIP3    H113857   3.986   2.567   5.210
 4617TIP3    H213858   4.035   2.442   5.140
 4618TIP3   OH213859   1.972   0.670   4.217
 4618TIP3    H113860   2.006   0.732   4.281
 4618TIP3    H213861   1.902   0.717   4.172
 4619TIP3   OH213862   3.492   1.159   2.801
 4619TIP3    H113863   3.535   1.234   2.760
 4619TIP3    H213864   3.443   1.197   2.874
 4620TIP3   OH213865   0.171   2.431   5.089
 4620TIP3    H113866   0.102   2.381   5.132
 4620TIP3    H213867   0.210   2.483   5.160
 4621TIP3   OH213868   1.226   4.837   3.691
 4621TIP3    H113869   1.131   4.839   3.691
 4621TIP3    H213870   1.252   4.888   3.768
 4622TIP3   OH213871   1.200   5.669   5.211
 4622TIP3    H113872   1.189   5.727   5.287
 4622TIP3    H213873   1.121   5.681   5.160
 4623TIP3   OH213874   5.485   0.151   4.299
 4623TIP3    H113875   5.410   0.112   4.253
 4623TIP3    H213876   5.525   0.078   4.345
 4624TIP3   OH213877   4.952   3.835   2.119
 4624TIP3    H113878   4.859   3.823   2.103
 4624TIP3    H213879   4.957   3.899   2.190
 4625TIP3   OH213880   2.300   4.913   2.452
 4625TIP3    H113881   2.331   5.001   2.472
 4625TIP3    H213882   2.209   4.912   2.483
 4626TIP3   OH213883   0.900   4.075   2.906
 4626TIP3    H113884   0.993   4.095   2.915
 4626TIP3    H213885   0.864   4.086   2.994
 4627TIP3   OH213886   4.888   3.492   1.258
 4627TIP3    H113887   4.857   3.402   1.250
 4627TIP3    H213888   4.809   3.543   1.276
 4628TIP3   OH213889   3.841   1.606   1.258
 4628TIP3    H113890   3.783   1.595   1.334
 4628TIP3    H213891   3.928   1.617   1.296
 4629TIP3   OH213892   2.598   5.453   2.034
 4629TIP3    H113893   2.677   5.403   2.012
 4629TIP3    H213894   2.540   5.441   1.959
 4630TIP3   OH213895   4.929   4.270   0.991
 4630TIP3    H113896   4.872   4.202   1.027
 4630TIP3    H213897   4.907   4.274   0.898
 4631TIP3   OH213898   2.097   0.413   4.319
 4631TIP3    H113899   2.133   0.379   4.237
 4631TIP3    H213900   2.061   0.498   4.295
 4632TIP3   OH213901   6.062   1.626   0.387
 4632TIP3    H113902   6.080   1.641   0.294
 4632TIP3    H213903   6.144   1.649   0.431
 4633TIP3   OH213904   2.083   0.728   0.417
 4633TIP3    H113905   2.123   0.751   0.500
 4633TIP3    H213906   2.040   0.644   0.433
 4634TIP3   OH213907   0.707   2.583   4.933
 4634TIP3    H113908   0.691   2.676   4.942
 4634TIP3    H213909   0.627   2.548   4.894
 4635TIP3   OH213910   1.077   5.949   4.748
 4635TIP3    H113911   1.056   6.038   4.777
 4635TIP3    H213912   1.152   5.923   4.802
 4636TIP3   OH213913   3.647   4.853   4.232
 4636TIP3    H113914   3.646   4.760   4.253
 4636TIP3    H213915   3.559   4.872   4.201
 4637TIP3   OH213916   4.349   0.772   3.923
 4637TIP3    H113917   4.321   0.696   3.872
 4637TIP3    H213918   4.362   0.841   3.859
 4638TIP3   OH213919   0.759   5.230   2.536
 4638TIP3    H113920   0.685   5.187   2.578
 4638TIP3    H213921   0.800   5.280   2.606
 4639TIP3   OH213922   2.780   2.475   1.138
 4639TIP3    H113923   2.714   2.437   1.195
 4639TIP3    H213924   2.737   2.482   1.053
 4640TIP3   OH213925   5.504   3.078   2.243
 4640TIP3    H113926   5.594   3.078   2.275
 4640TIP3    H213927   5.453   3.043   2.316
 4641TIP3   OH213928   2.658   1.195   0.767
 4641TIP3    H113929   2.684   1.184   0.676
 4641TIP3    H213930   2.657   1.106   0.803
 4642TIP3   OH213931   4.096   4.379   4.806
 4642TIP3    H113932   4.104   4.295   4.852
 4642TIP3    H213933   4.004   4.402   4.816
 4643TIP3   OH213934   5.247   4.241   2.405
 4643TIP3    H113935   5.219   4.235   2.314
 4643TIP3    H213936   5.326   4.187   2.409
 4644TIP3   OH213937   3.479   0.546   3.359
 4644TIP3    H113938   3.393   0.577   3.331
 4644TIP3    H213939   3.508   0.610   3.424
 4645TIP3   OH213940   2.266   3.419   1.998
 4645TIP3    H113941   2.321   3.493   1.971
 4645TIP3    H213942   2.243   3.438   2.089
 4646TIP3   OH213943   3.288   2.420   1.920
 4646TIP3    H113944   3.317   2.331   1.941
 4646TIP3    H213945   3.253   2.412   1.831
 4647TIP3   OH213946   1.576   2.281   1.543
 4647TIP3    H113947   1.634   2.316   1.474
 4647TIP3    H213948   1.519   2.355   1.565
 4648TIP3   OH213949   0.973   4.623   2.723
 4648TIP3    H113950   0.914   4.582   2.660
 4648TIP3    H213951   0.933   4.708   2.741
 4649TIP3   OH213952   5.993   5.741   4.246
 4649TIP3    H113953   6.011   5.650   4.224
 4649TIP3    H213954   5.903   5.755   4.215
 4650TIP3   OH213955   6.204   4.390   1.706
 4650TIP3    H113956   6.248   4.307   1.693
 4650TIP3    H213957   6.136   4.392   1.638
 4651TIP3   OH213958   6.107   5.799   3.623
 4651TIP3    H113959   6.018   5.770   3.603
 4651TIP3    H213960   6.127   5.760   3.708
 4652TIP3   OH213961   1.332   1.932   1.504
 4652TIP3    H113962   1.309   1.997   1.571
 4652TIP3    H213963   1.248   1.895   1.477
 4653TIP3   OH213964   5.657   4.201   1.461
 4653TIP3    H113965   5.656   4.282   1.410
 4653TIP3    H213966   5.718   4.144   1.414
 4654TIP3   OH213967   2.416   0.950   3.705
 4654TIP3    H113968   2.500   0.904   3.702
 4654TIP3    H213969   2.410   0.996   3.621
 4655TIP3   OH213970   1.711   5.880   4.982
 4655TIP3    H113971   1.640   5.829   5.022
 4655TIP3    H213972   1.666   5.948   4.932
 4656TIP3   OH213973   5.258   0.108   3.618
 4656TIP3    H113974   5.319   0.129   3.547
 4656TIP3    H213975   5.189   0.055   3.576
 4657TIP3   OH213976   4.317   1.624   2.473
 4657TIP3    H113977   4.223   1.636   2.489
 4657TIP3    H213978   4.358   1.648   2.556
 4658TIP3   OH213979   5.377   4.809   2.507
 4658TIP3    H113980   5.461   4.770   2.483
 4658TIP3    H213981   5.320   4.735   2.525
 4659TIP3   OH213982   0.424   5.670   1.890
 4659TIP3    H113983   0.508   5.629   1.868
 4659TIP3    H213984   0.423   5.751   1.839
 4660TIP3   OH213985   3.937   0.745   2.950
 4660TIP3    H113986   4.030   0.722   2.957
 4660TIP3    H213987   3.930   0.791   2.866
 4661TIP3   OH213988   4.249   4.303   2.250
 4661TIP3    H113989   4.271   4.355   2.172
 4661TIP3    H213990   4.280   4.215   2.230
 4662TIP3   OH213991   2.898   5.975   3.570
 4662TIP3    H113992   2.899   5.979   3.665
 4662TIP3    H213993   2.944   5.894   3.548
 4663TIP3   OH213994   1.478   5.448   2.005
 4663TIP3    H113995   1.462   5.377   1.943
 4663TIP3    H213996   1.546   5.501   1.965
 4664TIP3   OH213997   1.939   0.184   4.381
 4664TIP3    H113998   1.915   0.187   4.288
 4664TIP3    H213999   2.008   0.250   4.390
 4665TIP3   OH214000   1.596   4.362   4.802
 4665TIP3    H114001   1.504   4.343   4.784
 4665TIP3    H214002   1.618   4.433   4.742
 4666TIP3   OH214003   0.748   1.606   1.093
 4666TIP3    H114004   0.660   1.567   1.094
 4666TIP3    H214005   0.774   1.608   1.185
 4667TIP3   OH214006   1.283   4.338   1.554
 4667TIP3    H114007   1.209   4.332   1.493
 4667TIP3    H214008   1.302   4.431   1.560
 4668TIP3   OH214009   5.389   2.205   4.044
 4668TIP3    H114010   5.345   2.134   3.997
 4668TIP3    H214011   5.322   2.272   4.055
 4669TIP3   OH214012   2.350   0.323   2.432
 4669TIP3    H114013   2.416   0.357   2.493
 4669TIP3    H214014   2.375   0.359   2.348
 4670TIP3   OH214015   5.753   2.079   0.821
 4670TIP3    H114016   5.722   2.040   0.740
 4670TIP3    H214017   5.745   2.173   0.807
 4671TIP3   OH214018   5.115   5.183   0.901
 4671TIP3    H114019   5.029   5.142   0.906
 4671TIP3    H214020   5.172   5.126   0.952
 4672TIP3   OH214021   4.499   3.838   4.229
 4672TIP3    H114022   4.546   3.883   4.158
 4672TIP3    H214023   4.480   3.751   4.194
 4673TIP3   OH214024   1.439   0.589   5.098
 4673TIP3    H114025   1.424   0.564   5.006
 4673TIP3    H214026   1.463   0.682   5.093
 4674TIP3   OH214027   0.327   0.070   2.018
 4674TIP3    H114028   0.337  -0.007   1.961
 4674TIP3    H214029   0.293   0.138   1.960
 4675TIP3   OH214030   1.286   2.204   1.591
 4675TIP3    H114031   1.225   2.198   1.518
 4675TIP3    H214032   1.355   2.263   1.560
 4676TIP3   OH214033   2.950   2.727   1.149
 4676TIP3    H114034   2.908   2.781   1.082
 4676TIP3    H214035   2.908   2.642   1.141
 4677TIP3   OH214036   1.860   3.103   4.766
 4677TIP3    H114037   1.952   3.076   4.763
 4677TIP3    H214038   1.836   3.093   4.858
 4678TIP3   OH214039   4.451   0.321   1.203
 4678TIP3    H114040   4.454   0.279   1.289
 4678TIP3    H214041   4.507   0.266   1.148
 4679TIP3   OH214042   3.553   0.301   2.549
 4679TIP3    H114043   3.569   0.216   2.509
 4679TIP3    H214044   3.640   0.332   2.574
 4680TIP3   OH214045   5.592   5.653   4.376
 4680TIP3    H114046   5.605   5.728   4.433
 4680TIP3    H214047   5.545   5.589   4.430
 4681TIP3   OH214048   4.657   3.083   4.341
 4681TIP3    H114049   4.646   3.015   4.274
 4681TIP3    H214050   4.657   3.165   4.292
 4682TIP3   OH214051   0.146   3.631   3.727
 4682TIP3    H114052   0.212   3.673   3.782
 4682TIP3    H214053   0.150   3.677   3.644
 4683TIP3   OH214054   5.507   1.258   1.642
 4683TIP3    H114055   5.478   1.169   1.660
 4683TIP3    H214056   5.430   1.313   1.658
 4684TIP3   OH214057   2.950   1.045   1.844
 4684TIP3    H114058   2.946   0.982   1.916
 4684TIP3    H214059   2.975   0.993   1.768
 4685TIP3   OH214060   5.797   0.901   3.715
 4685TIP3    H114061   5.749   0.818   3.710
 4685TIP3    H214062   5.848   0.895   3.796
 4686TIP3   OH214063   3.066  -0.017   3.613
 4686TIP3    H114064   3.070   0.005   3.520
 4686TIP3    H214065   3.157  -0.010   3.644
 4687TIP3   OH214066   3.135   0.701   4.275
 4687TIP3    H114067   3.086   0.783   4.272
 4687TIP3    H214068   3.148   0.677   4.183
 4688TIP3   OH214069   0.313   2.763   4.007
 4688TIP3    H114070   0.266   2.837   4.047
 4688TIP3    H214071   0.264   2.745   3.927
 4689TIP3   OH214072   5.210   2.431   4.016
 4689TIP3    H114073   5.297   2.466   4.038
 4689TIP3    H214074   5.221   2.392   3.929
 4690TIP3   OH214075   0.186   0.989   1.509
 4690TIP3    H114076   0.148   0.971   1.423
 4690TIP3    H214077   0.261   0.929   1.515
 4691TIP3   OH214078   1.058   3.702   1.793
 4691TIP3    H114079   1.052   3.609   1.816
 4691TIP3    H214080   1.029   3.707   1.702
 4692TIP3   OH214081   5.047   0.686   2.381
 4692TIP3    H114082   4.978   0.750   2.398
 4692TIP3    H214083   5.126   0.739   2.366
 4693TIP3   OH214084   2.803   5.921   0.007
 4693TIP3    H114085   2.887   5.965  -0.004
 4693TIP3    H214086   2.812   5.871   0.088
 4694TIP3   OH214087   3.332   4.194   3.095
 4694TIP3    H114088   3.239   4.174   3.080
 4694TIP3    H214089   3.340   4.287   3.078
 4695TIP3   OH214090   4.501   0.152   3.080
 4695TIP3    H114091   4.539   0.119   2.999
 4695TIP3    H214092   4.526   0.088   3.147
 4696TIP3   OH214093   6.319   0.545   0.992
 4696TIP3    H114094   6.299   0.635   1.019
 4696TIP3    H214095   6.398   0.552   0.940
 4697TIP3   OH214096   2.181   0.151   3.991
 4697TIP3    H114097   2.188   0.063   4.028
 4697TIP3    H214098   2.223   0.208   4.057
 4698TIP3   OH214099   5.131   3.380   3.290
 4698TIP3    H114100   5.120   3.403   3.382
 4698TIP3    H214101   5.167   3.291   3.291
 4699TIP3   OH214102   1.815   1.020   2.019
 4699TIP3    H114103   1.806   1.016   2.114
 4699TIP3    H214104   1.731   1.052   1.988
 4700TIP3   OH214105   0.909   3.143   3.951
 4700TIP3    H114106   0.894   3.050   3.932
 4700TIP3    H214107   1.004   3.154   3.941
 4701TIP3   OH214108   5.285   1.413   1.656
 4701TIP3    H114109   5.223   1.449   1.592
 4701TIP3    H214110   5.324   1.490   1.697
 4702TIP3   OH214111   6.218   1.304   5.063
 4702TIP3    H114112   6.225   1.342   4.976
 4702TIP3    H214113   6.298   1.331   5.108
 4703TIP3   OH214114   4.312   1.596   1.890
 4703TIP3    H114115   4.380   1.529   1.900
 4703TIP3    H214116   4.296   1.628   1.979
 4704TIP3   OH214117   5.303   3.688   4.881
 4704TIP3    H114118   5.267   3.602   4.863
 4704TIP3    H214119   5.397   3.678   4.866
 4705TIP3   OH214120   4.057   2.234   2.538
 4705TIP3    H114121   4.052   2.170   2.609
 4705TIP3    H214122   3.976   2.284   2.545
 4706TIP3   OH214123   0.157   3.041   2.467
 4706TIP3    H114124   0.165   2.957   2.512
 4706TIP3    H214125   0.068   3.042   2.433
 4707TIP3   OH214126   2.231   0.091   2.380
 4707TIP3    H114127   2.196   0.042   2.454
 4707TIP3    H214128   2.258   0.175   2.417
 4708TIP3   OH214129   6.195   0.922   2.403
 4708TIP3    H114130   6.163   0.833   2.417
 4708TIP3    H214131   6.192   0.934   2.308
 4709TIP3   OH214132   1.867  -0.020   3.307
 4709TIP3    H114133   1.832   0.069   3.301
 4709TIP3    H214134   1.946  -0.011   3.361
 4710TIP3   OH214135   4.126   5.170   1.645
 4710TIP3    H114136   4.042   5.210   1.666
 4710TIP3    H214137   4.172   5.236   1.593
 4711TIP3   OH214138   4.315   0.317   4.801
 4711TIP3    H114139   4.324   0.284   4.712
 4711TIP3    H214140   4.237   0.274   4.836
 4712TIP3   OH214141   0.808   3.903   5.068
 4712TIP3    H114142   0.794   3.822   5.019
 4712TIP3    H214143   0.723   3.947   5.068
 4713TIP3   OH214144   1.373   2.875   4.588
 4713TIP3    H114145   1.456   2.851   4.629
 4713TIP3    H214146   1.306   2.837   4.644
 4714TIP3   OH214147   2.974   0.291   2.015
 4714TIP3    H114148   2.900   0.274   1.958
 4714TIP3    H214149   3.019   0.365   1.975
 4715TIP3   OH214150   0.932   0.052   1.637
 4715TIP3    H114151   1.002  -0.006   1.609
 4715TIP3    H214152   0.909   0.023   1.725
 4716TIP3   OH214153   1.342   3.300   0.872
 4716TIP3    H114154   1.312   3.211   0.853
 4716TIP3    H214155   1.406   3.289   0.943
 4717TIP3   OH214156   5.430   3.407   3.920
 4717TIP3    H114157   5.372   3.479   3.947
 4717TIP3    H214158   5.516   3.447   3.914
 4718TIP3   OH214159   0.101   3.267   0.929
 4718TIP3    H114160   0.186   3.250   0.969
 4718TIP3    H214161   0.088   3.195   0.868
 4719TIP3   OH214162   2.037   3.512   1.695
 4719TIP3    H114163   1.955   3.489   1.653
 4719TIP3    H214164   2.055   3.602   1.668
 4720TIP3   OH214165   0.168   2.052   3.791
 4720TIP3    H114166   0.168   2.129   3.847
 4720TIP3    H214167   0.111   1.989   3.836
 4721TIP3   OH214168   2.763   2.698   4.825
 4721TIP3    H114169   2.756   2.606   4.799
 4721TIP3    H214170   2.725   2.701   4.913
 4722TIP3   OH214171   5.703   0.284   5.139
 4722TIP3    H114172   5.622   0.247   5.103
 4722TIP3    H214173   5.731   0.220   5.204
 4723TIP3   OH214174   0.274   0.650   0.771
 4723TIP3    H114175   0.232   0.734   0.757
 4723TIP3    H214176   0.293   0.648   0.865
 4724TIP3   OH214177   2.063   4.599   3.654
 4724TIP3    H114178   2.045   4.645   3.571
 4724TIP3    H214179   1.976   4.582   3.691
 4725TIP3   OH214180   3.508   3.041   3.057
 4725TIP3    H114181   3.543   2.982   3.124
 4725TIP3    H214182   3.434   3.085   3.100
 4726TIP3   OH214183   5.927   1.522   1.007
 4726TIP3    H114184   5.848   1.507   1.058
 4726TIP3    H214185   5.927   1.617   0.990
 4727TIP3   OH214186   4.380   5.783   3.943
 4727TIP3    H114187   4.459   5.797   3.995
 4727TIP3    H214188   4.362   5.869   3.904
 4728TIP3   OH214189   0.269   4.452   4.255
 4728TIP3    H114190   0.214   4.508   4.310
 4728TIP3    H214191   0.318   4.398   4.318
 4729TIP3   OH214192   1.598   1.384   0.536
 4729TIP3    H114193   1.615   1.448   0.604
 4729TIP3    H214194   1.665   1.401   0.469
 4730TIP3   OH214195   2.303   0.282   4.554
 4730TIP3    H114196   2.321   0.363   4.506
 4730TIP3    H214197   2.357   0.289   4.633
 4731TIP3   OH214198   3.010   1.952   3.145
 4731TIP3    H114199   2.920   1.924   3.162
 4731TIP3    H214200   3.031   1.913   3.060
 4732TIP3   OH214201   2.234   5.555   1.957
 4732TIP3    H114202   2.305   5.616   1.974
 4732TIP3    H214203   2.184   5.595   1.886
 4733TIP3   OH214204   5.530   1.843   0.896
 4733TIP3    H114205   5.476   1.915   0.929
 4733TIP3    H214206   5.575   1.880   0.820
 4734TIP3   OH214207   0.631   2.626   4.289
 4734TIP3    H114208   0.581   2.604   4.211
 4734TIP3    H214209   0.580   2.590   4.362
 4735TIP3   OH214210   2.055   3.279   2.589
 4735TIP3    H114211   1.962   3.258   2.594
 4735TIP3    H214212   2.082   3.247   2.503
 4736TIP3   OH214213   6.359   0.630   5.056
 4736TIP3    H114214   6.287   0.569   5.072
 4736TIP3    H214215   6.323   0.693   4.993
 4737TIP3   OH214216   3.105   2.249   0.812
 4737TIP3    H114217   3.156   2.319   0.771
 4737TIP3    H214218   3.161   2.217   0.883
 4738TIP3   OH214219   3.616   2.215   1.234
 4738TIP3    H114220   3.625   2.179   1.322
 4738TIP3    H214221   3.582   2.142   1.181
 4739TIP3   OH214222   3.803   5.442   1.868
 4739TIP3    H114223   3.831   5.372   1.808
 4739TIP3    H214224   3.714   5.417   1.893
 4740TIP3   OH214225   6.248   5.084   2.896
 4740TIP3    H114226   6.199   5.149   2.947
 4740TIP3    H214227   6.335   5.084   2.935
 4741TIP3   OH214228   2.022   3.594   2.241
 4741TIP3    H114229   1.940   3.551   2.266
 4741TIP3    H214230   2.075   3.592   2.321
 4742TIP3   OH214231   1.788   2.986   1.114
 4742TIP3    H114232   1.753   2.943   1.192
 4742TIP3    H214233   1.797   2.915   1.050
 4743TIP3   OH214234   4.005   2.870   4.042
 4743TIP3    H114235   4.098   2.849   4.049
 4743TIP3    H214236   3.997   2.958   4.081
 4744TIP3   OH214237   0.138   3.117   4.793
 4744TIP3    H114238   0.116   3.033   4.833
 4744TIP3    H214239   0.232   3.128   4.811
 4745TIP3   OH214240   4.780   5.292   0.359
 4745TIP3    H114241   4.752   5.211   0.316
 4745TIP3    H214242   4.772   5.274   0.453
 4746TIP3   OH214243   5.723   3.158   1.360
 4746TIP3    H114244   5.787   3.229   1.351
 4746TIP3    H214245   5.737   3.124   1.448
 4747TIP3   OH214246   4.082   0.836   4.617
 4747TIP3    H114247   4.017   0.769   4.637
 4747TIP3    H214248   4.128   0.852   4.700
 4748TIP3   OH214249   4.662   4.167   2.570
 4748TIP3    H114250   4.716   4.242   2.592
 4748TIP3    H214251   4.575   4.204   2.550
 4749TIP3   OH214252   0.891   1.658   3.633
 4749TIP3    H114253   0.892   1.630   3.542
 4749TIP3    H214254   0.855   1.583   3.681
 4750TIP3   OH214255   4.632   3.865   3.444
 4750TIP3    H114256   4.718   3.899   3.417
 4750TIP3    H214257   4.611   3.798   3.379
 4751TIP3   OH214258   2.509   1.430   4.457
 4751TIP3    H114259   2.455   1.478   4.394
 4751TIP3    H214260   2.588   1.407   4.408
 4752TIP3   OH214261   1.146   5.898   0.137
 4752TIP3    H114262   1.094   5.847   0.076
 4752TIP3    H214263   1.197   5.833   0.185
 4753TIP3   OH214264   5.585   1.651   2.426
 4753TIP3    H114265   5.545   1.738   2.418
 4753TIP3    H214266   5.671   1.661   2.384
 4754TIP3   OH214267   2.329   0.392   3.806
 4754TIP3    H114268   2.293   0.473   3.769
 4754TIP3    H214269   2.253   0.335   3.814
 4755TIP3   OH214270   1.690   3.479   2.665
 4755TIP3    H114271   1.697   3.497   2.759
 4755TIP3    H214272   1.738   3.397   2.652
 4756TIP3   OH214273   5.233   5.563   3.507
 4756TIP3    H114274   5.295   5.545   3.578
 4756TIP3    H214275   5.237   5.485   3.451
 4757TIP3   OH214276   1.774   2.147   2.601
 4757TIP3    H114277   1.737   2.099   2.676
 4757TIP3    H214278   1.753   2.238   2.620
 4758TIP3   OH214279   1.091   5.497   4.562
 4758TIP3    H114280   1.038   5.425   4.529
 4758TIP3    H214281   1.028   5.561   4.595
 4759TIP3   OH214282   4.648   4.668   0.624
 4759TIP3    H114283   4.565   4.703   0.593
 4759TIP3    H214284   4.671   4.723   0.699
 4760TIP3   OH214285   0.095   0.333   4.109
 4760TIP3    H114286   0.097   0.326   4.013
 4760TIP3    H214287   0.163   0.272   4.138
 4761TIP3   OH214288   4.837   4.604   3.369
 4761TIP3    H114289   4.858   4.694   3.344
 4761TIP3    H214290   4.860   4.598   3.462
 4762TIP3   OH214291   4.444   5.766   1.321
 4762TIP3    H114292   4.376   5.728   1.377
 4762TIP3    H214293   4.444   5.711   1.243
 4763TIP3   OH214294   3.806   5.132   2.027
 4763TIP3    H114295   3.725   5.108   1.981
 4763TIP3    H214296   3.876   5.103   1.970
 4764TIP3   OH214297   2.565   2.366   1.286
 4764TIP3    H114298   2.530   2.283   1.253
 4764TIP3    H214299   2.500   2.395   1.350
 4765TIP3   OH214300   5.021   0.985   3.385
 4765TIP3    H114301   5.104   1.016   3.349
 4765TIP3    H214302   5.037   0.893   3.406
 4766TIP3   OH214303   3.081   4.118   5.212
 4766TIP3    H114304   3.073   4.090   5.120
 4766TIP3    H214305   2.993   4.144   5.237
 4767TIP3   OH214306   3.997   5.264   0.916
 4767TIP3    H114307   4.068   5.320   0.946
 4767TIP3    H214308   3.929   5.325   0.888
 4768TIP3   OH214309   1.799   1.572   0.710
 4768TIP3    H114310   1.770   1.545   0.797
 4768TIP3    H214311   1.886   1.535   0.701
 4769TIP3   OH214312   3.078   4.266   1.136
 4769TIP3    H114313   2.991   4.229   1.153
 4769TIP3    H214314   3.060   4.350   1.094
 4770TIP3   OH214315   6.307   0.824   3.327
 4770TIP3    H114316   6.237   0.803   3.389
 4770TIP3    H214317   6.277   0.787   3.244
 4771TIP3   OH214318   4.116   0.369   0.969
 4771TIP3    H114319   4.022   0.390   0.973
 4771TIP3    H214320   4.122   0.281   1.006
 4772TIP3   OH214321   3.398   3.956   5.199
 4772TIP3    H114322   3.360   3.869   5.190
 4772TIP3    H214323   3.430   3.977   5.112
 4773TIP3   OH214324   4.872   0.105   1.263
 4773TIP3    H114325   4.873   0.013   1.234
 4773TIP3    H214326   4.928   0.106   1.341
 4774TIP3   OH214327   3.728   2.135   3.669
 4774TIP3    H114328   3.651   2.097   3.710
 4774TIP3    H214329   3.794   2.135   3.737
 4775TIP3   OH214330   4.335   2.600   2.436
 4775TIP3    H114331   4.326   2.505   2.437
 4775TIP3    H214332   4.247   2.632   2.418
 4776TIP3   OH214333   3.660   1.333   3.914
 4776TIP3    H114334   3.583   1.372   3.954
 4776TIP3    H214335   3.629   1.252   3.874
 4777TIP3   OH214336   0.961   5.806   4.361
 4777TIP3    H114337   1.056   5.808   4.346
 4777TIP3    H214338   0.952   5.791   4.455
 4778TIP3   OH214339   2.909   1.077   1.150
 4778TIP3    H114340   2.898   1.030   1.068
 4778TIP3    H214341   3.002   1.100   1.154
 4779TIP3   OH214342   4.092   4.558   5.186
 4779TIP3    H114343   4.030   4.567   5.114
 4779TIP3    H214344   4.037   4.555   5.264
 4780TIP3   OH214345   2.838   4.325   3.648
 4780TIP3    H114346   2.914   4.331   3.590
 4780TIP3    H214347   2.819   4.231   3.653
 4781TIP3   OH214348   0.356   2.263   4.616
 4781TIP3    H114349   0.333   2.218   4.697
 4781TIP3    H214350   0.277   2.255   4.562
 4782TIP3   OH214351   5.119   3.268   4.997
 4782TIP3    H114352   5.058   3.236   5.063
 4782TIP3    H214353   5.206   3.252   5.034
 4783TIP3   OH214354   3.722   1.009   2.878
 4783TIP3    H114355   3.638   1.033   2.839
 4783TIP3    H214356   3.733   1.071   2.950
 4784TIP3   OH214357   1.780   4.697   3.057
 4784TIP3    H114358   1.723   4.640   3.005
 4784TIP3    H214359   1.721   4.745   3.115
 4785TIP3   OH214360   4.549   4.074   0.099
 4785TIP3    H114361   4.558   3.997   0.156
 4785TIP3    H214362   4.558   4.149   0.158
 4786TIP3   OH214363   2.072   4.383   3.203
 4786TIP3    H114364   2.021   4.384   3.122
 4786TIP3    H214365   2.089   4.475   3.222
 4787TIP3   OH214366   5.557   3.701   0.312
 4787TIP3    H114367   5.640   3.688   0.357
 4787TIP3    H214368   5.577   3.763   0.242
 4788TIP3   OH214369   1.608   5.028   0.555
 4788TIP3    H114370   1.537   5.075   0.598
 4788TIP3    H214371   1.625   4.952   0.612
 4789TIP3   OH214372   2.652   5.774   1.510
 4789TIP3    H114373   2.744   5.757   1.491
 4789TIP3    H214374   2.606   5.695   1.481
 4790TIP3   OH214375   1.010   5.057   2.594
 4790TIP3    H114376   0.944   5.124   2.612
 4790TIP3    H214377   1.093   5.105   2.592
 4791TIP3   OH214378   4.325   5.564   3.310
 4791TIP3    H114379   4.264   5.602   3.247
 4791TIP3    H214380   4.395   5.628   3.317
 4792TIP3   OH214381   3.213   3.654   2.355
 4792TIP3    H114382   3.156   3.601   2.300
 4792TIP3    H214383   3.165   3.736   2.369
 4793TIP3   OH214384   4.572   1.274   0.903
 4793TIP3    H114385   4.543   1.237   0.819
 4793TIP3    H214386   4.667   1.277   0.896
 4794TIP3   OH214387   1.589   5.118   2.124
 4794TIP3    H114388   1.562   5.094   2.213
 4794TIP3    H214389   1.664   5.176   2.137
 4795TIP3   OH214390   5.898   4.342   2.112
 4795TIP3    H114391   5.868   4.251   2.105
 4795TIP3    H214392   5.834   4.383   2.170
 4796TIP3   OH214393   3.427   3.350   4.299
 4796TIP3    H114394   3.333   3.338   4.292
 4796TIP3    H214395   3.450   3.308   4.383
 4797TIP3   OH214396   2.983   5.439   2.490
 4797TIP3    H114397   2.969   5.366   2.551
 4797TIP3    H214398   3.075   5.432   2.464
 4798TIP3   OH214399   0.422   4.236   1.344
 4798TIP3    H114400   0.382   4.150   1.351
 4798TIP3    H214401   0.390   4.284   1.421
 4799TIP3   OH214402   2.228   4.436   1.945
 4799TIP3    H114403   2.267   4.349   1.930
 4799TIP3    H214404   2.303   4.494   1.958
 4800TIP3   OH214405   1.625   5.882   0.631
 4800TIP3    H114406   1.589   5.944   0.568
 4800TIP3    H214407   1.606   5.920   0.716
 4801TIP3   OH214408   3.494   1.397   1.882
 4801TIP3    H114409   3.581   1.435   1.868
 4801TIP3    H214410   3.453   1.455   1.946
 4802TIP3   OH214411   6.322   2.455   1.190
 4802TIP3    H114412   6.311   2.382   1.251
 4802TIP3    H214413   6.396   2.428   1.135
 4803TIP3   OH214414   4.530   1.470   1.956
 4803TIP3    H114415   4.575   1.508   2.031
 4803TIP3    H214416   4.558   1.379   1.954
 4804TIP3   OH214417   4.270   2.313   2.391
 4804TIP3    H114418   4.195   2.288   2.445
 4804TIP3    H214419   4.337   2.248   2.412
 4805TIP3   OH214420   3.863   0.545   0.312
 4805TIP3    H114421   3.909   0.471   0.273
 4805TIP3    H214422   3.912   0.565   0.392
 4806TIP3   OH214423   3.530   5.380   1.851
 4806TIP3    H114424   3.519   5.389   1.757
 4806TIP3    H214425   3.451   5.419   1.888
 4807TIP3   OH214426   3.109   5.760   2.822
 4807TIP3    H114427   3.013   5.763   2.819
 4807TIP3    H214428   3.136   5.850   2.804
 4808TIP3   OH214429   0.256   5.619   4.089
 4808TIP3    H114430   0.255   5.541   4.034
 4808TIP3    H214431   0.242   5.586   4.178
 4809TIP3   OH214432   3.573   5.869   3.270
 4809TIP3    H114433   3.611   5.865   3.358
 4809TIP3    H214434   3.557   5.777   3.248
 4810TIP3   OH214435   6.310   0.189   3.083
 4810TIP3    H114436   6.396   0.224   3.105
 4810TIP3    H214437   6.251   0.264   3.093
 4811TIP3   OH214438   1.510   1.039   3.442
 4811TIP3    H114439   1.536   0.984   3.369
 4811TIP3    H214440   1.580   1.105   3.449
 4812TIP3   OH214441   4.483   2.089   1.896
 4812TIP3    H114442   4.451   2.105   1.808
 4812TIP3    H214443   4.406   2.059   1.945
 4813TIP3   OH214444   0.179   4.803   1.158
 4813TIP3    H114445   0.132   4.884   1.142
 4813TIP3    H214446   0.246   4.800   1.089
 4814TIP3   OH214447   4.168   4.190   1.203
 4814TIP3    H114448   4.121   4.250   1.261
 4814TIP3    H214449   4.247   4.238   1.178
 4815TIP3   OH214450   6.205   3.738   1.907
 4815TIP3    H114451   6.223   3.755   1.999
 4815TIP3    H214452   6.130   3.678   1.908
 4816TIP3   OH214453   0.484   1.064   1.117
 4816TIP3    H114454   0.543   1.126   1.075
 4816TIP3    H214455   0.407   1.116   1.140
 4817TIP3   OH214456   4.473   2.761   1.648
 4817TIP3    H114457   4.378   2.751   1.660
 4817TIP3    H214458   4.493   2.845   1.690
 4818TIP3   OH214459   6.066   1.015   1.539
 4818TIP3    H114460   6.149   1.033   1.494
 4818TIP3    H214461   5.999   1.047   1.479
 4819TIP3   OH214462   4.667   5.129   2.405
 4819TIP3    H114463   4.654   5.071   2.480
 4819TIP3    H214464   4.721   5.201   2.440
 4820TIP3   OH214465   6.244   4.989   4.210
 4820TIP3    H114466   6.296   4.984   4.129
 4820TIP3    H214467   6.153   4.996   4.180
 4821TIP3   OH214468   0.986   1.002   0.509
 4821TIP3    H114469   1.063   1.036   0.554
 4821TIP3    H214470   1.020   0.941   0.444
 4822TIP3   OH214471   5.534   1.872   3.988
 4822TIP3    H114472   5.613   1.831   4.023
 4822TIP3    H214473   5.566   1.937   3.925
 4823TIP3   OH214474   3.121   1.106   0.448
 4823TIP3    H114475   3.205   1.068   0.425
 4823TIP3    H214476   3.121   1.192   0.407
 4824TIP3   OH214477   3.013   2.317   4.387
 4824TIP3    H114478   2.952   2.294   4.317
 4824TIP3    H214479   3.015   2.240   4.444
 4825TIP3   OH214480   1.443   0.320   0.371
 4825TIP3    H114481   1.358   0.277   0.382
 4825TIP3    H214482   1.457   0.367   0.454
 4826TIP3   OH214483   4.374   4.877   1.117
 4826TIP3    H114484   4.383   4.807   1.053
 4826TIP3    H214485   4.462   4.889   1.153
 4827TIP3   OH214486   3.706   4.836   1.400
 4827TIP3    H114487   3.708   4.742   1.382
 4827TIP3    H214488   3.646   4.845   1.474
 4828TIP3   OH214489   4.165   1.354   4.044
 4828TIP3    H114490   4.168   1.379   4.136
 4828TIP3    H214491   4.073   1.332   4.028
 4829TIP3   OH214492   0.737   1.260   2.904
 4829TIP3    H114493   0.647   1.247   2.936
 4829TIP3    H214494   0.750   1.189   2.841
 4830TIP3   OH214495   0.779   3.496   2.987
 4830TIP3    H114496   0.774   3.413   2.939
 4830TIP3    H214497   0.861   3.536   2.957
 4831TIP3   OH214498   3.045   1.867   4.140
 4831TIP3    H114499   3.100   1.788   4.132
 4831TIP3    H214500   3.045   1.886   4.233
 4832TIP3   OH214501   2.070   4.744   4.067
 4832TIP3    H114502   2.149   4.725   4.018
 4832TIP3    H214503   2.006   4.680   4.037
 4833TIP3   OH214504   4.175   5.398   1.864
 4833TIP3    H114505   4.174   5.305   1.885
 4833TIP3    H214506   4.264   5.414   1.831
 4834TIP3   OH214507   3.044   4.143   3.098
 4834TIP3    H114508   3.029   4.129   3.005
 4834TIP3    H214509   3.009   4.065   3.141
 4835TIP3   OH214510   1.843   5.651   0.211
 4835TIP3    H114511   1.865   5.572   0.260
 4835TIP3    H214512   1.917   5.666   0.153
 4836TIP3   OH214513   2.627   4.245   2.962
 4836TIP3    H114514   2.602   4.224   2.872
 4836TIP3    H214515   2.627   4.160   3.006
 4837TIP3   OH214516   2.807   4.244   0.932
 4837TIP3    H114517   2.792   4.150   0.929
 4837TIP3    H214518   2.719   4.282   0.935
 4838TIP3   OH214519   1.465   2.514   3.195
 4838TIP3    H114520   1.526   2.494   3.123
 4838TIP3    H214521   1.392   2.454   3.182
 4839TIP3   OH214522   3.095   2.897   0.777
 4839TIP3    H114523   3.182   2.870   0.806
 4839TIP3    H214524   3.097   2.993   0.780
 4840TIP3   OH214525   5.345   4.330   5.035
 4840TIP3    H114526   5.253   4.302   5.037
 4840TIP3    H214527   5.357   4.377   5.117
 4841TIP3   OH214528   5.440   5.252   2.475
 4841TIP3    H114529   5.462   5.338   2.440
 4841TIP3    H214530   5.503   5.238   2.546
 4842TIP3   OH214531   3.536   1.143   3.498
 4842TIP3    H114532   3.495   1.192   3.570
 4842TIP3    H214533   3.462   1.119   3.441
 4843TIP3   OH214534   6.021   3.246   3.440
 4843TIP3    H114535   6.047   3.210   3.355
 4843TIP3    H214536   5.927   3.229   3.445
 4844TIP3   OH214537   2.452   5.735   1.991
 4844TIP3    H114538   2.519   5.804   1.995
 4844TIP3    H214539   2.467   5.683   2.070
 4845TIP3   OH214540   4.693   4.318   1.909
 4845TIP3    H114541   4.688   4.408   1.942
 4845TIP3    H214542   4.735   4.326   1.824
 4846TIP3   OH214543   2.511   0.996   2.302
 4846TIP3    H114544   2.567   0.975   2.228
 4846TIP3    H214545   2.431   0.947   2.287
 4847TIP3   OH214546   0.417   0.830   4.500
 4847TIP3    H114547   0.505   0.851   4.530
 4847TIP3    H214548   0.405   0.738   4.523
 4848TIP3   OH214549   1.993   4.542   1.999
 4848TIP3    H114550   1.969   4.582   1.915
 4848TIP3    H214551   2.062   4.480   1.978
 4849TIP3   OH214552   5.697   2.248   2.544
 4849TIP3    H114553   5.758   2.280   2.611
 4849TIP3    H214554   5.680   2.324   2.488
 4850TIP3   OH214555   0.794   4.086   4.182
 4850TIP3    H114556   0.731   4.152   4.213
 4850TIP3    H214557   0.828   4.123   4.101
 4851TIP3   OH214558   2.628   1.810   3.586
 4851TIP3    H114559   2.656   1.845   3.670
 4851TIP3    H214560   2.574   1.879   3.548
 4852TIP3   OH214561   5.455   0.085   1.048
 4852TIP3    H114562   5.435   0.154   0.985
 4852TIP3    H214563   5.477   0.009   0.994
 4853TIP3   OH214564   6.325   4.814   2.019
 4853TIP3    H114565   6.360   4.879   1.958
 4853TIP3    H214566   6.350   4.729   1.981
 4854TIP3   OH214567   3.854   4.753   3.961
 4854TIP3    H114568   3.933   4.796   3.993
 4854TIP3    H214569   3.788   4.823   3.956
 4855TIP3   OH214570   4.880   3.559   4.015
 4855TIP3    H114571   4.815   3.596   4.074
 4855TIP3    H214572   4.934   3.633   3.988
 4856TIP3   OH214573   3.552   3.910   3.793
 4856TIP3    H114574   3.519   3.911   3.883
 4856TIP3    H214575   3.473   3.921   3.739
 4857TIP3   OH214576   4.303   3.270   3.746
 4857TIP3    H114577   4.269   3.228   3.825
 4857TIP3    H214578   4.225   3.295   3.697
 4858TIP3   OH214579   1.843   1.183   3.664
 4858TIP3    H114580   1.896   1.241   3.719
 4858TIP3    H214581   1.905   1.146   3.601
 4859TIP3   OH214582   1.188   5.145   0.539
 4859TIP3    H114583   1.213   5.079   0.475
 4859TIP3    H214584   1.228   5.226   0.507
 4860TIP3   OH214585   5.335   5.008   4.632
 4860TIP3    H114586   5.310   5.024   4.541
 4860TIP3    H214587   5.253   4.989   4.676
 4861TIP3   OH214588   6.091   1.643   3.335
 4861TIP3    H114589   6.018   1.699   3.362
 4861TIP3    H214590   6.125   1.684   3.255
 4862TIP3   OH214591   1.275   3.343   1.810
 4862TIP3    H114592   1.308   3.307   1.892
 4862TIP3    H214593   1.181   3.356   1.826
 4863TIP3   OH214594   5.514   5.763   1.405
 4863TIP3    H114595   5.434   5.725   1.442
 4863TIP3    H214596   5.490   5.852   1.380
 4864TIP3   OH214597   4.098   1.341   1.252
 4864TIP3    H114598   4.132   1.430   1.256
 4864TIP3    H214599   4.119   1.311   1.164
 4865TIP3   OH214600   0.447   5.045   1.940
 4865TIP3    H114601   0.371   5.005   1.982
 4865TIP3    H214602   0.418   5.134   1.919
 4866TIP3   OH214603   5.094   1.667   4.066
 4866TIP3    H114604   5.089   1.762   4.055
 4866TIP3    H214605   5.060   1.631   3.984
 4867TIP3   OH214606   1.432   1.044   4.901
 4867TIP3    H114607   1.461   0.999   4.822
 4867TIP3    H214608   1.337   1.035   4.900
 4868TIP3   OH214609   4.599   1.706   1.443
 4868TIP3    H114610   4.594   1.691   1.538
 4868TIP3    H214611   4.512   1.686   1.411
 4869TIP3   OH214612   4.358   4.560   1.137
 4869TIP3    H114613   4.331   4.584   1.226
 4869TIP3    H214614   4.362   4.465   1.138
 4870TIP3   OH214615   4.769   3.097   2.420
 4870TIP3    H114616   4.843   3.037   2.430
 4870TIP3    H214617   4.809   3.183   2.407
 4871TIP3   OH214618   5.395   2.767   3.012
 4871TIP3    H114619   5.418   2.857   3.035
 4871TIP3    H214620   5.299   2.765   3.014
 4872TIP3   OH214621   0.500   3.819   0.499
 4872TIP3    H114622   0.452   3.900   0.514
 4872TIP3    H214623   0.582   3.830   0.547
 4873TIP3   OH214624   3.330   2.818   0.916
 4873TIP3    H114625   3.398   2.847   0.976
 4873TIP3    H214626   3.378   2.778   0.843
 4874TIP3   OH214627   5.523   0.397   1.749
 4874TIP3    H114628   5.602   0.367   1.704
 4874TIP3    H214629   5.556   0.437   1.829
 4875TIP3   OH214630   2.723   5.568   4.108
 4875TIP3    H114631   2.746   5.556   4.200
 4875TIP3    H214632   2.762   5.652   4.085
 4876TIP3   OH214633   3.596   5.822   4.597
 4876TIP3    H114634   3.562   5.896   4.547
 4876TIP3    H214635   3.686   5.846   4.617
 4877TIP3   OH214636   5.831   4.046   5.057
 4877TIP3    H114637   5.787   4.130   5.048
 4877TIP3    H214638   5.856   4.041   5.149
 4878TIP3   OH214639   3.015   4.678   1.086
 4878TIP3    H114640   2.942   4.623   1.112
 4878TIP3    H214641   3.013   4.677   0.990
 4879TIP3   OH214642   5.143   4.674   2.672
 4879TIP3    H114643   5.071   4.732   2.694
 4879TIP3    H214644   5.175   4.641   2.756
 4880TIP3   OH214645   4.487   3.336   4.326
 4880TIP3    H114646   4.546   3.364   4.395
 4880TIP3    H214647   4.401   3.332   4.368
 4881TIP3   OH214648   4.742   0.716   3.861
 4881TIP3    H114649   4.686   0.782   3.902
 4881TIP3    H214650   4.722   0.635   3.907
 4882TIP3   OH214651   3.494   0.231   2.266
 4882TIP3    H114652   3.486   0.327   2.268
 4882TIP3    H214653   3.415   0.199   2.309
 4883TIP3   OH214654   5.173   3.996   4.533
 4883TIP3    H114655   5.187   4.038   4.449
 4883TIP3    H214656   5.244   3.933   4.542
 4884TIP3   OH214657   5.515   3.943   2.113
 4884TIP3    H114658   5.457   3.922   2.186
 4884TIP3    H214659   5.488   3.883   2.043
 4885TIP3   OH214660   0.764   3.464   4.910
 4885TIP3    H114661   0.849   3.502   4.933
 4885TIP3    H214662   0.749   3.495   4.820
 4886TIP3   OH214663   3.328   1.827   3.444
 4886TIP3    H114664   3.322   1.793   3.534
 4886TIP3    H214665   3.237   1.842   3.418
 4887TIP3   OH214666   5.803   1.635   2.875
 4887TIP3    H114667   5.731   1.697   2.864
 4887TIP3    H214668   5.857   1.647   2.796
 4888TIP3   OH214669   0.280   5.233   4.465
 4888TIP3    H114670   0.350   5.200   4.521
 4888TIP3    H214671   0.202   5.182   4.491
 4889TIP3   OH214672   4.756   4.600   2.803
 4889TIP3    H114673   4.831   4.657   2.787
 4889TIP3    H214674   4.758   4.583   2.897
 4890TIP3   OH214675   0.967   4.626   5.023
 4890TIP3    H114676   1.026   4.594   5.091
 4890TIP3    H214677   1.025   4.661   4.955
 4891TIP3   OH214678   4.575   1.781   5.148
 4891TIP3    H114679   4.593   1.790   5.054
 4891TIP3    H214680   4.575   1.686   5.162
 4892TIP3   OH214681   3.831   3.142   3.641
 4892TIP3    H114682   3.868   3.224   3.608
 4892TIP3    H214683   3.756   3.169   3.694
 4893TIP3   OH214684   1.062   0.802   1.186
 4893TIP3    H114685   1.000   0.830   1.118
 4893TIP3    H214686   1.007   0.769   1.256
 4894TIP3   OH214687   3.576   5.785   4.178
 4894TIP3    H114688   3.514   5.848   4.142
 4894TIP3    H214689   3.658   5.802   4.131
 4895TIP3   OH214690   2.469   2.431   5.034
 4895TIP3    H114691   2.524   2.352   5.038
 4895TIP3    H214692   2.404   2.410   4.967
 4896TIP3   OH214693   3.101   1.472   4.608
 4896TIP3    H114694   3.185   1.483   4.653
 4896TIP3    H214695   3.119   1.495   4.517
 4897TIP3   OH214696   3.422   4.180   4.471
 4897TIP3    H114697   3.390   4.096   4.441
 4897TIP3    H214698   3.347   4.239   4.464
 4898TIP3   OH214699   4.224   5.402   1.542
 4898TIP3    H114700   4.253   5.434   1.457
 4898TIP3    H214701   4.213   5.481   1.595
 4899TIP3   OH214702   3.812   5.620   3.680
 4899TIP3    H114703   3.752   5.623   3.754
 4899TIP3    H214704   3.899   5.622   3.720
 4900TIP3   OH214705   4.399   2.164   3.161
 4900TIP3    H114706   4.312   2.173   3.200
 4900TIP3    H214707   4.437   2.251   3.168
 4901TIP3   OH214708   3.316   3.719   4.031
 4901TIP3    H114709   3.400   3.760   4.050
 4901TIP3    H214710   3.339   3.635   3.991
 4902TIP3   OH214711   1.539   0.293   3.291
 4902TIP3    H114712   1.487   0.245   3.227
 4902TIP3    H214713   1.505   0.382   3.287
 4903TIP3   OH214714   2.270   4.719   2.212
 4903TIP3    H114715   2.219   4.645   2.245
 4903TIP3    H214716   2.282   4.777   2.287
 4904TIP3   OH214717   4.087   3.067   1.687
 4904TIP3    H114718   4.083   3.103   1.775
 4904TIP3    H214719   4.015   3.109   1.640
 4905TIP3   OH214720   1.332   0.115   4.285
 4905TIP3    H114721   1.423   0.090   4.302
 4905TIP3    H214722   1.296   0.042   4.234
 4906TIP3   OH214723   5.221   4.775   0.048
 4906TIP3    H114724   5.278   4.708   0.087
 4906TIP3    H214725   5.280   4.847   0.025
 4907TIP3   OH214726   0.198   2.730   3.751
 4907TIP3    H114727   0.223   2.810   3.705
 4907TIP3    H214728   0.119   2.700   3.707
 4908TIP3   OH214729   4.333   5.686   4.283
 4908TIP3    H114730   4.412   5.643   4.248
 4908TIP3    H214731   4.265   5.667   4.219
 4909TIP3   OH214732   0.632   1.661   0.481
 4909TIP3    H114733   0.580   1.606   0.541
 4909TIP3    H214734   0.577   1.738   0.467
 4910TIP3   OH214735   6.125   1.745   1.623
 4910TIP3    H114736   6.214   1.742   1.659
 4910TIP3    H214737   6.133   1.803   1.547
 4911TIP3   OH214738   2.065   5.166   0.334
 4911TIP3    H114739   2.027   5.139   0.251
 4911TIP3    H214740   2.160   5.168   0.317
 4912TIP3   OH214741   0.190   5.381   4.000
 4912TIP3    H114742   0.249   5.332   4.058
 4912TIP3    H214743   0.177   5.322   3.925
 4913TIP3   OH214744   5.980   3.230   4.331
 4913TIP3    H114745   5.932   3.183   4.400
 4913TIP3    H214746   5.917   3.295   4.298
 4914TIP3   OH214747   2.239   4.801   1.582
 4914TIP3    H114748   2.239   4.880   1.636
 4914TIP3    H214749   2.285   4.736   1.636
 4915TIP3   OH214750   4.868   5.179   0.075
 4915TIP3    H114751   4.952   5.214   0.107
 4915TIP3    H214752   4.857   5.097   0.122
 4916TIP3   OH214753   2.826   2.449   3.908
 4916TIP3    H114754   2.801   2.463   4.000
 4916TIP3    H214755   2.918   2.473   3.904
 4917TIP3   OH214756   4.902   5.386   3.505
 4917TIP3    H114757   4.984   5.337   3.503
 4917TIP3    H214758   4.902   5.439   3.426
 4918TIP3   OH214759   4.446   0.232   0.773
 4918TIP3    H114760   4.486   0.316   0.798
 4918TIP3    H214761   4.515   0.187   0.724
 4919TIP3   OH214762   2.950   5.130   0.367
 4919TIP3    H114763   3.030   5.174   0.336
 4919TIP3    H214764   2.880   5.168   0.315
 4920TIP3   OH214765   2.620   4.263   4.322
 4920TIP3    H114766   2.662   4.348   4.335
 4920TIP3    H214767   2.660   4.207   4.389
 4921TIP3   OH214768   3.768   3.175   2.105
 4921TIP3    H114769   3.798   3.238   2.171
 4921TIP3    H214770   3.780   3.221   2.022
 4922TIP3   OH214771   1.276   2.065   4.661
 4922TIP3    H114772   1.371   2.057   4.664
 4922TIP3    H214773   1.256   2.079   4.568
 4923TIP3   OH214774   3.164   0.648   4.870
 4923TIP3    H114775   3.094   0.596   4.831
 4923TIP3    H214776   3.245   0.610   4.835
 4924TIP3   OH214777   3.706   1.576   0.290
 4924TIP3    H114778   3.719   1.668   0.311
 4924TIP3    H214779   3.632   1.549   0.344
 4925TIP3   OH214780   4.034   2.060   2.313
 4925TIP3    H114781   4.126   2.035   2.318
 4925TIP3    H214782   4.018   2.109   2.394
 4926TIP3   OH214783   4.146   4.776   1.243
 4926TIP3    H114784   4.132   4.835   1.317
 4926TIP3    H214785   4.226   4.808   1.201
 4927TIP3   OH214786   3.527   5.235   3.517
 4927TIP3    H114787   3.486   5.241   3.431
 4927TIP3    H214788   3.563   5.322   3.532
 4928TIP3   OH214789   5.608   0.180   2.134
 4928TIP3    H114790   5.673   0.140   2.191
 4928TIP3    H214791   5.525   0.169   2.180
 4929TIP3   OH214792   4.094   4.324   2.479
 4929TIP3    H114793   4.135   4.319   2.393
 4929TIP3    H214794   4.033   4.397   2.473
 4930TIP3   OH214795   5.348   3.846   3.615
 4930TIP3    H114796   5.404   3.846   3.692
 4930TIP3    H214797   5.408   3.861   3.542
 4931TIP3   OH214798   1.737   3.159   3.430
 4931TIP3    H114799   1.758   3.132   3.519
 4931TIP3    H214800   1.757   3.082   3.376
 4932TIP3   OH214801   0.924   1.547   4.733
 4932TIP3    H114802   0.946   1.559   4.641
 4932TIP3    H214803   0.853   1.483   4.733
 4933TIP3   OH214804   3.949   3.139   0.142
 4933TIP3    H114805   4.009   3.150   0.216
 4933TIP3    H214806   3.901   3.222   0.139
 4934TIP3   OH214807   1.610   1.821   3.049
 4934TIP3    H114808   1.549   1.772   3.104
 4934TIP3    H214809   1.572   1.815   2.961
 4935TIP3   OH214810   1.339   0.563   1.653
 4935TIP3    H114811   1.349   0.581   1.560
 4935TIP3    H214812   1.382   0.636   1.697
 4936TIP3   OH214813   4.939   3.009   3.021
 4936TIP3    H114814   4.884   3.057   3.082
 4936TIP3    H214815   4.901   3.029   2.935
 4937TIP3   OH214816   0.017   4.739   0.581
 4937TIP3    H114817   0.013   4.667   0.518
 4937TIP3    H214818   0.095   4.720   0.633
 4938TIP3   OH214819   5.366   5.775   1.026
 4938TIP3    H114820   5.422   5.699   1.042
 4938TIP3    H214821   5.389   5.804   0.938
 4939TIP3   OH214822   3.698   0.635   3.832
 4939TIP3    H114823   3.717   0.662   3.742
 4939TIP3    H214824   3.778   0.594   3.863
 4940TIP3   OH214825   1.231   2.813   1.727
 4940TIP3    H114826   1.218   2.906   1.743
 4940TIP3    H214827   1.292   2.810   1.653
 4941TIP3   OH214828   5.355   2.364   1.439
 4941TIP3    H114829   5.438   2.320   1.459
 4941TIP3    H214830   5.378   2.457   1.440
 4942TIP3   OH214831   4.429   1.658   0.066
 4942TIP3    H114832   4.476   1.731   0.027
 4942TIP3    H214833   4.429   1.676   0.159
 4943TIP3   OH214834   2.591   5.269   3.099
 4943TIP3    H114835   2.503   5.231   3.088
 4943TIP3    H214836   2.622   5.232   3.182
 4944TIP3   OH214837   4.049   0.053   1.313
 4944TIP3    H114838   4.130   0.104   1.312
 4944TIP3    H214839   3.994   0.097   1.378
 4945TIP3   OH214840   5.600   4.723   3.809
 4945TIP3    H114841   5.514   4.755   3.785
 4945TIP3    H214842   5.597   4.716   3.905
 4946TIP3   OH214843   0.379   3.115   3.265
 4946TIP3    H114844   0.296   3.102   3.310
 4946TIP3    H214845   0.437   3.153   3.331
 4947TIP3   OH214846   4.609   4.404   0.213
 4947TIP3    H114847   4.649   4.377   0.130
 4947TIP3    H214848   4.682   4.438   0.265
 4948TIP3   OH214849   1.614   0.046   4.257
 4948TIP3    H114850   1.631   0.083   4.171
 4948TIP3    H214851   1.625  -0.048   4.246
 4949TIP3   OH214852   2.869   3.816   1.874
 4949TIP3    H114853   2.943   3.851   1.823
 4949TIP3    H214854   2.797   3.811   1.811
 4950TIP3   OH214855   2.722   1.193   1.622
 4950TIP3    H114856   2.715   1.159   1.711
 4950TIP3    H214857   2.711   1.116   1.566
 4951TIP3   OH214858   4.104   3.810   4.824
 4951TIP3    H114859   4.162   3.748   4.869
 4951TIP3    H214860   4.027   3.759   4.800
 4952TIP3   OH214861   4.383   1.078   1.338
 4952TIP3    H114862   4.400   1.170   1.357
 4952TIP3    H214863   4.425   1.063   1.253
 4953TIP3   OH214864   5.760   1.617   0.728
 4953TIP3    H114865   5.688   1.597   0.788
 4953TIP3    H214866   5.727   1.592   0.642
 4954TIP3   OH214867   1.847   0.826   3.631
 4954TIP3    H114868   1.801   0.758   3.681
 4954TIP3    H214869   1.849   0.902   3.690
 4955TIP3   OH214870   2.850   3.499   0.649
 4955TIP3    H114871   2.791   3.432   0.613
 4955TIP3    H214872   2.892   3.456   0.723
 4956TIP3   OH214873   5.186   5.012   3.093
 4956TIP3    H114874   5.257   4.948   3.099
 4956TIP3    H214875   5.156   5.006   3.002
 4957TIP3   OH214876   0.148   5.316   4.790
 4957TIP3    H114877   0.131   5.397   4.741
 4957TIP3    H214878   0.119   5.335   4.879
 4958TIP3   OH214879   3.042   4.547   2.669
 4958TIP3    H114880   2.948   4.561   2.679
 4958TIP3    H214881   3.048   4.479   2.602
 4959TIP3   OH214882   2.464   4.485   1.462
 4959TIP3    H114883   2.411   4.416   1.422
 4959TIP3    H214884   2.442   4.563   1.411
 4960TIP3   OH214885   4.340   0.332   3.851
 4960TIP3    H114886   4.362   0.251   3.804
 4960TIP3    H214887   4.414   0.347   3.910
 4961TIP3   OH214888   4.737   4.897   3.317
 4961TIP3    H114889   4.789   4.945   3.252
 4961TIP3    H214890   4.760   4.938   3.401
 4962TIP3   OH214891   3.257   3.417   0.604
 4962TIP3    H114892   3.324   3.358   0.569
 4962TIP3    H214893   3.303   3.498   0.622
 4963TIP3   OH214894   0.728   5.143   2.050
 4963TIP3    H114895   0.655   5.087   2.023
 4963TIP3    H214896   0.739   5.125   2.143
 4964TIP3   OH214897   2.897   5.925   3.845
 4964TIP3    H114898   2.934   6.001   3.891
 4964TIP3    H214899   2.930   5.849   3.893
 4965TIP3   OH214900   3.518   1.155   0.063
 4965TIP3    H114901   3.520   1.230   0.004
 4965TIP3    H214902   3.511   1.079   0.004
 4966TIP3   OH214903   3.889   3.330   0.724
 4966TIP3    H114904   3.849   3.412   0.754
 4966TIP3    H214905   3.934   3.296   0.801
 4967TIP3   OH214906   0.063   1.206   4.292
 4967TIP3    H114907  -0.028   1.191   4.318
 4967TIP3    H214908   0.114   1.158   4.357
 4968TIP3   OH214909   3.337   0.068   0.884
 4968TIP3    H114910   3.370   0.156   0.904
 4968TIP3    H214911   3.248   0.067   0.920
 4969TIP3   OH214912   2.325   1.102   4.637
 4969TIP3    H114913   2.378   1.023   4.645
 4969TIP3    H214914   2.331   1.127   4.545
 4970TIP3   OH214915   1.945   2.430   3.562
 4970TIP3    H114916   2.002   2.364   3.523
 4970TIP3    H214917   2.001   2.478   3.622
 4971TIP3   OH214918   5.648   5.208   1.222
 4971TIP3    H114919   5.593   5.222   1.144
 4971TIP3    H214920   5.690   5.293   1.237
 4972TIP3   OH214921   2.129   1.732   0.384
 4972TIP3    H114922   2.199   1.782   0.425
 4972TIP3    H214923   2.061   1.726   0.452
 4973TIP3   OH214924   3.091   2.588   3.974
 4973TIP3    H114925   3.108   2.526   3.903
 4973TIP3    H214926   3.151   2.661   3.956
 4974TIP3   OH214927   1.883   2.765   3.087
 4974TIP3    H114928   1.926   2.683   3.110
 4974TIP3    H214929   1.955   2.824   3.065
 4975TIP3   OH214930   0.205   1.391   0.833
 4975TIP3    H114931   0.114   1.420   0.833
 4975TIP3    H214932   0.228   1.386   0.740
 4976TIP3   OH214933   3.811   2.712   1.982
 4976TIP3    H114934   3.806   2.646   1.912
 4976TIP3    H214935   3.729   2.702   2.030
 4977TIP3   OH214936   2.684   0.739   0.118
 4977TIP3    H114937   2.694   0.741   0.022
 4977TIP3    H214938   2.727   0.657   0.144
 4978TIP3   OH214939   5.799   0.133   2.317
 4978TIP3    H114940   5.863   0.095   2.378
 4978TIP3    H214941   5.840   0.213   2.286
 4979TIP3   OH214942   1.001   3.429   1.833
 4979TIP3    H114943   0.913   3.412   1.800
 4979TIP3    H214944   0.989   3.476   1.915
 4980TIP3   OH214945   4.304   5.929   3.054
 4980TIP3    H114946   4.262   6.010   3.082
 4980TIP3    H214947   4.337   5.949   2.966
 4981TIP3   OH214948   2.781   5.747   1.777
 4981TIP3    H114949   2.809   5.666   1.735
 4981TIP3    H214950   2.765   5.807   1.704
 4982TIP3   OH214951   4.618   4.831   4.972
 4982TIP3    H114952   4.692   4.771   4.970
 4982TIP3    H214953   4.645   4.900   5.033
 4983TIP3   OH214954   0.839   2.801   1.712
 4983TIP3    H114955   0.776   2.729   1.721
 4983TIP3    H214956   0.878   2.787   1.626
 4984TIP3   OH214957   1.129   2.904   2.578
 4984TIP3    H114958   1.096   2.993   2.585
 4984TIP3    H214959   1.054   2.849   2.600
 4985TIP3   OH214960   1.418   4.471   2.582
 4985TIP3    H114961   1.422   4.513   2.496
 4985TIP3    H214962   1.347   4.516   2.628
 4986TIP3   OH214963   2.542   3.622   0.159
 4986TIP3    H114964   2.517   3.648   0.070
 4986TIP3    H214965   2.560   3.528   0.153
 4987TIP3   OH214966   1.204   0.034   1.309
 4987TIP3    H114967   1.122   0.072   1.278
 4987TIP3    H214968   1.272   0.083   1.262
 4988TIP3   OH214969   1.416   1.406   1.899
 4988TIP3    H114970   1.445   1.356   1.975
 4988TIP3    H214971   1.326   1.377   1.884
 4989TIP3   OH214972   0.584   1.340   0.251
 4989TIP3    H114973   0.525   1.415   0.247
 4989TIP3    H214974   0.552   1.289   0.326
 4990TIP3   OH214975   3.283   1.890   2.210
 4990TIP3    H114976   3.221   1.912   2.281
 4990TIP3    H214977   3.232   1.901   2.130
 4991TIP3   OH214978   4.316   4.142   4.630
 4991TIP3    H114979   4.318   4.066   4.572
 4991TIP3    H214980   4.262   4.114   4.704
 4992TIP3   OH214981   5.719   3.506   3.721
 4992TIP3    H114982   5.694   3.590   3.759
 4992TIP3    H214983   5.790   3.527   3.661
 4993TIP3   OH214984   0.542   1.084   3.987
 4993TIP3    H114985   0.457   1.121   3.964
 4993TIP3    H214986   0.594   1.160   4.014
 4994TIP3   OH214987   5.299   0.839   3.464
 4994TIP3    H114988   5.257   0.834   3.549
 4994TIP3    H214989   5.234   0.804   3.403
 4995TIP3   OH214990   3.890   5.676   3.002
 4995TIP3    H114991   3.827   5.611   2.971
 4995TIP3    H214992   3.866   5.692   3.093
 4996TIP3   OH214993   3.061   4.412   2.242
 4996TIP3    H114994   3.154   4.412   2.221
 4996TIP3    H214995   3.054   4.355   2.319
 4997TIP3   OH214996   3.989   1.105   1.000
 4997TIP3    H114997   3.924   1.037   0.980
 4997TIP3    H214998   3.994   1.106   1.095
 4998TIP3   OH214999   2.871   0.511   1.021
 4998TIP3    H115000   2.885   0.485   0.930
 4998TIP3    H215001   2.834   0.433   1.063
 4999TIP3   OH215002   2.826   3.905   3.987
 4999TIP3    H115003   2.859   3.923   4.075
 4999TIP3    H215004   2.736   3.938   3.989
 5000TIP3   OH215005   3.666   0.858   0.752
 5000TIP3    H115006   3.695   0.852   0.661
 5000TIP3    H215007   3.741   0.828   0.804
 5001TIP3   OH215008   1.265   3.176   4.736
 5001TIP3    H115009   1.184   3.209   4.776
 5001TIP3    H215010   1.310   3.131   4.807
 5002TIP3   OH215011   0.380   1.072   3.664
 5002TIP3    H115012   0.347   1.054   3.576
 5002TIP3    H215013   0.373   1.167   3.674
 5003TIP3   OH215014   5.348   5.255   4.031
 5003TIP3    H115015   5.334   5.222   3.942
 5003TIP3    H215016   5.269   5.304   4.050
 5004TIP3   OH215017   4.824   2.990   4.986
 5004TIP3    H115018   4.791   3.030   4.905
 5004TIP3    H215019   4.846   3.065   5.041
 5005TIP3   OH215020   1.417   4.819   4.850
 5005TIP3    H115021   1.360   4.856   4.783
 5005TIP3    H215022   1.359   4.767   4.905
 5006TIP3   OH215023   2.993   5.420   5.054
 5006TIP3    H115024   2.977   5.339   5.101
 5006TIP3    H215025   2.963   5.403   4.965
 5007TIP3   OH215026   3.056   5.360   3.549
 5007TIP3    H115027   3.104   5.279   3.537
 5007TIP3    H215028   3.090   5.398   3.630
 5008TIP3   OH215029   5.518   4.646   2.744
 5008TIP3    H115030   5.440   4.645   2.800
 5008TIP3    H215031   5.587   4.611   2.800
 5009TIP3   OH215032   0.091   1.396   1.950
 5009TIP3    H115033   0.029   1.382   2.021
 5009TIP3    H215034   0.156   1.327   1.960
 5010TIP3   OH215035   2.583   0.196   0.168
 5010TIP3    H115036   2.542   0.278   0.196
 5010TIP3    H215037   2.510   0.144   0.133
 5011TIP3   OH215038   3.111   3.617   2.857
 5011TIP3    H115039   3.197   3.625   2.814
 5011TIP3    H215040   3.091   3.524   2.853
 5012TIP3   OH215041   1.159   4.495   2.168
 5012TIP3    H115042   1.251   4.511   2.147
 5012TIP3    H215043   1.118   4.581   2.163
 5013TIP3   OH215044   4.031   4.307   4.549
 5013TIP3    H115045   4.059   4.327   4.638
 5013TIP3    H215046   4.102   4.255   4.512
 5014TIP3   OH215047   5.018   2.135   3.554
 5014TIP3    H115048   4.958   2.166   3.485
 5014TIP3    H215049   5.066   2.063   3.513
 5015TIP3   OH215050   3.643   5.080   0.712
 5015TIP3    H115051   3.709   5.150   0.715
 5015TIP3    H215052   3.586   5.098   0.787
 5016TIP3   OH215053   1.595   3.406   4.127
 5016TIP3    H115054   1.628   3.442   4.045
 5016TIP3    H215055   1.529   3.342   4.099
 5017TIP3   OH215056   0.997   3.703   4.085
 5017TIP3    H115057   1.060   3.653   4.136
 5017TIP3    H215058   0.931   3.731   4.148
 5018TIP3   OH215059   5.514   3.536   2.731
 5018TIP3    H115060   5.525   3.512   2.823
 5018TIP3    H215061   5.536   3.629   2.727
 5019TIP3   OH215062   0.623   3.278   0.269
 5019TIP3    H115063   0.530   3.296   0.251
 5019TIP3    H215064   0.669   3.350   0.227
 5020TIP3   OH215065   4.093   5.922   4.515
 5020TIP3    H115066   4.035   5.907   4.441
 5020TIP3    H215067   4.109   6.016   4.515
 5021TIP3   OH215068   3.625   1.775   2.907
 5021TIP3    H115069   3.593   1.822   2.830
 5021TIP3    H215070   3.695   1.830   2.941
 5022TIP3   OH215071   5.630   4.343   4.244
 5022TIP3    H115072   5.708   4.392   4.270
 5022TIP3    H215073   5.632   4.344   4.148
 5023TIP3   OH215074   2.863   5.602   2.985
 5023TIP3    H115075   2.846   5.684   2.939
 5023TIP3    H215076   2.825   5.615   3.072
 5024TIP3   OH215077   2.197   3.287   0.878
 5024TIP3    H115078   2.202   3.313   0.786
 5024TIP3    H215079   2.116   3.326   0.910
 5025TIP3   OH215080   6.288   0.873   0.862
 5025TIP3    H115081   6.199   0.875   0.898
 5025TIP3    H215082   6.339   0.930   0.919
 5026TIP3   OH215083   5.348   5.035   3.334
 5026TIP3    H115084   5.270   5.028   3.389
 5026TIP3    H215085   5.316   5.070   3.251
 5027TIP3   OH215086   1.661   1.183   4.620
 5027TIP3    H115087   1.628   1.192   4.531
 5027TIP3    H215088   1.663   1.273   4.653
 5028TIP3   OH215089   0.029   4.754   4.815
 5028TIP3    H115090   0.032   4.676   4.760
 5028TIP3    H215091  -0.022   4.729   4.891
 5029TIP3   OH215092   3.499   5.012   1.293
 5029TIP3    H115093   3.465   4.973   1.212
 5029TIP3    H215094   3.507   4.938   1.353
 5030TIP3   OH215095   4.397   5.814   4.523
 5030TIP3    H115096   4.376   5.906   4.507
 5030TIP3    H215097   4.357   5.768   4.449
 5031TIP3   OH215098   4.006   2.509   1.701
 5031TIP3    H115099   3.925   2.556   1.720
 5031TIP3    H215100   3.981   2.416   1.702
 5032TIP3   OH215101   3.662   3.146   1.048
 5032TIP3    H115102   3.646   3.211   0.980
 5032TIP3    H215103   3.656   3.195   1.130
 5033TIP3   OH215104   4.857   1.418   2.278
 5033TIP3    H115105   4.835   1.480   2.209
 5033TIP3    H215106   4.789   1.351   2.273
 5034TIP3   OH215107   1.483   5.908   3.373
 5034TIP3    H115108   1.480   5.892   3.467
 5034TIP3    H215109   1.550   5.976   3.362
 5035TIP3   OH215110   1.060   5.416   1.086
 5035TIP3    H115111   1.120   5.377   1.023
 5035TIP3    H215112   1.071   5.363   1.165
 5036TIP3   OH215113   0.126   2.225   4.784
 5036TIP3    H115114   0.057   2.209   4.848
 5036TIP3    H215115   0.093   2.188   4.703
 5037TIP3   OH215116   3.631   5.129   1.626
 5037TIP3    H115117   3.607   5.082   1.706
 5037TIP3    H215118   3.557   5.116   1.568
 5038TIP3   OH215119   6.015   2.033   2.350
 5038TIP3    H115120   5.941   1.982   2.383
 5038TIP3    H215121   5.976   2.095   2.289
 5039TIP3   OH215122   3.268   1.591   4.788
 5039TIP3    H115123   3.324   1.557   4.859
 5039TIP3    H215124   3.290   1.684   4.784
 5040TIP3   OH215125   1.384   3.987   3.715
 5040TIP3    H115126   1.395   4.049   3.787
 5040TIP3    H215127   1.369   3.903   3.758
 5041TIP3   OH215128   3.861   3.342   1.844
 5041TIP3    H115129   3.809   3.287   1.785
 5041TIP3    H215130   3.820   3.428   1.838
 5042TIP3   OH215131   4.574   4.904   1.794
 5042TIP3    H115132   4.637   4.977   1.793
 5042TIP3    H215133   4.495   4.941   1.755
 5043TIP3   OH215134   5.343   5.426   1.455
 5043TIP3    H115135   5.322   5.478   1.378
 5043TIP3    H215136   5.325   5.483   1.529
 5044TIP3   OH215137   0.152   5.534   1.317
 5044TIP3    H115138   0.158   5.597   1.246
 5044TIP3    H215139   0.219   5.563   1.380
 5045TIP3   OH215140   4.090   1.774   4.980
 5045TIP3    H115141   4.117   1.725   5.057
 5045TIP3    H215142   4.033   1.714   4.932
 5046TIP3   OH215143   0.822   0.226   4.799
 5046TIP3    H115144   0.854   0.300   4.748
 5046TIP3    H215145   0.901   0.190   4.840
 5047TIP3   OH215146   1.403   4.622   0.862
 5047TIP3    H115147   1.389   4.582   0.947
 5047TIP3    H215148   1.351   4.703   0.864
 5048TIP3   OH215149   1.173   0.200   5.153
 5048TIP3    H115150   1.140   0.136   5.216
 5048TIP3    H215151   1.206   0.272   5.206
 5049TIP3   OH215152   3.450   0.896   0.420
 5049TIP3    H115153   3.443   0.826   0.355
 5049TIP3    H215154   3.378   0.879   0.481
 5050TIP3   OH215155   1.580   4.642   3.699
 5050TIP3    H115156   1.486   4.624   3.686
 5050TIP3    H215157   1.582   4.715   3.761
 5051TIP3   OH215158   2.950   1.754   0.368
 5051TIP3    H115159   2.951   1.701   0.448
 5051TIP3    H215160   2.858   1.766   0.348
 5052TIP3   OH215161   4.050   0.512   3.162
 5052TIP3    H115162   4.050   0.471   3.249
 5052TIP3    H215163   3.959   0.541   3.150
 5053TIP3   OH215164   3.931   5.148   0.685
 5053TIP3    H115165   3.957   5.234   0.653
 5053TIP3    H215166   3.967   5.145   0.774
 5054TIP3   OH215167   4.924   5.837   0.252
 5054TIP3    H115168   5.014   5.827   0.224
 5054TIP3    H215169   4.894   5.748   0.271
 5055TIP3   OH215170   1.463   2.860   2.024
 5055TIP3    H115171   1.471   2.814   1.941
 5055TIP3    H215172   1.531   2.821   2.080
 5056TIP3   OH215173   2.971   0.870   0.603
 5056TIP3    H115174   2.915   0.945   0.581
 5056TIP3    H215175   2.910   0.799   0.620
 5057TIP3   OH215176   1.966   2.851   0.097
 5057TIP3    H115177   2.061   2.854   0.085
 5057TIP3    H215178   1.947   2.926   0.153
 5058TIP3   OH215179   2.387   1.284   1.659
 5058TIP3    H115180   2.356   1.278   1.749
 5058TIP3    H215181   2.341   1.214   1.613
 5059TIP3   OH215182   4.469   3.464   3.637
 5059TIP3    H115183   4.553   3.477   3.681
 5059TIP3    H215184   4.428   3.392   3.685
 5060TIP3   OH215185   5.514   3.673   1.298
 5060TIP3    H115186   5.427   3.710   1.312
 5060TIP3    H215187   5.569   3.748   1.275
 5061TIP3   OH215188   2.923   1.902   5.025
 5061TIP3    H115189   2.992   1.841   5.052
 5061TIP3    H215190   2.917   1.965   5.097
 5062TIP3   OH215191   5.945   2.318   5.097
 5062TIP3    H115192   6.026   2.364   5.073
 5062TIP3    H215193   5.955   2.231   5.058
 5063TIP3   OH215194   3.110   0.574   4.018
 5063TIP3    H115195   3.046   0.641   3.996
 5063TIP3    H215196   3.115   0.520   3.939
 5064TIP3   OH215197   5.095   4.197   4.720
 5064TIP3    H115198   5.116   4.135   4.650
 5064TIP3    H215199   5.139   4.162   4.797
 5065TIP3   OH215200   5.238   3.502   4.521
 5065TIP3    H115201   5.223   3.412   4.551
 5065TIP3    H215202   5.162   3.522   4.467
 5066TIP3   OH215203   5.934   5.753   1.199
 5066TIP3    H115204   5.902   5.737   1.288
 5066TIP3    H215205   5.861   5.795   1.154
 5067TIP3   OH215206   1.739   3.997   4.425
 5067TIP3    H115207   1.788   4.069   4.465
 5067TIP3    H215208   1.707   3.946   4.499
 5068TIP3   OH215209   5.167   2.190   4.261
 5068TIP3    H115210   5.106   2.225   4.196
 5068TIP3    H215211   5.225   2.263   4.281
 5069TIP3   OH215212   4.398   1.715   4.139
 5069TIP3    H115213   4.478   1.766   4.124
 5069TIP3    H215214   4.335   1.749   4.076
 5070TIP3   OH215215   5.802   3.806   4.404
 5070TIP3    H115216   5.803   3.901   4.392
 5070TIP3    H215217   5.890   3.778   4.377
 5071TIP3   OH215218   3.208   0.873   2.016
 5071TIP3    H115219   3.168   0.959   2.026
 5071TIP3    H215220   3.136   0.812   2.027
 5072TIP3   OH215221   1.484   3.109   1.455
 5072TIP3    H115222   1.530   3.029   1.430
 5072TIP3    H215223   1.425   3.128   1.382
 5073TIP3   OH215224   5.764   1.427   2.273
 5073TIP3    H115225   5.783   1.501   2.216
 5073TIP3    H215226   5.828   1.436   2.345
 5074TIP3   OH215227   3.745   0.503   4.260
 5074TIP3    H115228   3.761   0.553   4.340
 5074TIP3    H215229   3.797   0.424   4.269
 5075TIP3   OH215230   3.457   4.879   1.559
 5075TIP3    H115231   3.402   4.833   1.496
 5075TIP3    H215232   3.472   4.816   1.629
 5076TIP3   OH215233   1.866   5.518   1.104
 5076TIP3    H115234   1.916   5.590   1.141
 5076TIP3    H215235   1.859   5.539   1.011
 5077TIP3   OH215236   5.024   2.884   3.325
 5077TIP3    H115237   5.005   2.946   3.396
 5077TIP3    H215238   4.947   2.827   3.322
 5078TIP3   OH215239   1.347   1.426   2.637
 5078TIP3    H115240   1.408   1.494   2.609
 5078TIP3    H215241   1.399   1.367   2.691
 5079TIP3   OH215242   4.604   5.595   3.062
 5079TIP3    H115243   4.623   5.507   3.030
 5079TIP3    H215244   4.626   5.592   3.155
 5080TIP3   OH215245   3.721   5.092   4.408
 5080TIP3    H115246   3.638   5.140   4.415
 5080TIP3    H215247   3.702   5.020   4.348
 5081TIP3   OH215248   4.732   0.724   2.706
 5081TIP3    H115249   4.781   0.801   2.678
 5081TIP3    H215250   4.769   0.702   2.791
 5082TIP3   OH215251   5.053   0.108   1.480
 5082TIP3    H115252   5.087   0.192   1.511
 5082TIP3    H215253   5.131   0.054   1.467
 5083TIP3   OH215254   1.406   2.408   0.448
 5083TIP3    H115255   1.497   2.390   0.471
 5083TIP3    H215256   1.404   2.502   0.432
 5084TIP3   OH215257   1.209   5.048   3.492
 5084TIP3    H115258   1.148   4.982   3.459
 5084TIP3    H215259   1.290   5.001   3.507
 5085TIP3   OH215260   6.132   1.372   2.039
 5085TIP3    H115261   6.075   1.330   2.104
 5085TIP3    H215262   6.082   1.366   1.957
 5086TIP3   OH215263   2.761   2.908   5.137
 5086TIP3    H115264   2.770   2.930   5.230
 5086TIP3    H215265   2.721   2.821   5.137
 5087TIP3   OH215266   1.421   4.140   2.446
 5087TIP3    H115267   1.376   4.194   2.381
 5087TIP3    H215268   1.368   4.061   2.452
 5088TIP3   OH215269   4.341   3.670   1.709
 5088TIP3    H115270   4.262   3.681   1.657
 5088TIP3    H215271   4.333   3.583   1.748
 5089TIP3   OH215272   3.965   4.613   0.238
 5089TIP3    H115273   3.959   4.522   0.268
 5089TIP3    H215274   3.885   4.654   0.270
 5090TIP3   OH215275   0.241   4.268   3.535
 5090TIP3    H115276   0.264   4.355   3.504
 5090TIP3    H215277   0.318   4.214   3.515
 5091TIP3   OH215278   1.780   3.026   5.065
 5091TIP3    H115279   1.708   2.964   5.075
 5091TIP3    H215280   1.857   2.978   5.097
 5092TIP3   OH215281   1.700   0.853   3.302
 5092TIP3    H115282   1.765   0.786   3.323
 5092TIP3    H215283   1.752   0.925   3.267
 5093TIP3   OH215284   5.340   3.137   4.293
 5093TIP3    H115285   5.410   3.081   4.327
 5093TIP3    H215286   5.260   3.096   4.325
 5094TIP3   OH215287   3.851   3.441   3.696
 5094TIP3    H115288   3.856   3.515   3.635
 5094TIP3    H215289   3.765   3.449   3.736
 5095TIP3   OH215290   2.804   3.797   2.432
 5095TIP3    H115291   2.795   3.710   2.394
 5095TIP3    H215292   2.769   3.856   2.365
 5096TIP3   OH215293   2.518   0.751   2.887
 5096TIP3    H115294   2.585   0.698   2.844
 5096TIP3    H215295   2.493   0.701   2.965
 5097TIP3   OH215296   2.338   5.279   3.281
 5097TIP3    H115297   2.367   5.361   3.240
 5097TIP3    H215298   2.317   5.221   3.207
 5098TIP3   OH215299   4.958   2.747   0.903
 5098TIP3    H115300   4.891   2.816   0.903
 5098TIP3    H215301   5.002   2.755   0.987
 5099TIP3   OH215302   2.601   0.383   1.740
 5099TIP3    H115303   2.592   0.321   1.668
 5099TIP3    H215304   2.646   0.334   1.809
 5100TIP3   OH215305   0.905   5.075   3.288
 5100TIP3    H115306   0.820   5.087   3.330
 5100TIP3    H215307   0.949   5.009   3.342
 5101TIP3   OH215308   1.334   3.465   1.530
 5101TIP3    H115309   1.277   3.417   1.591
 5101TIP3    H215310   1.279   3.535   1.496
 5102TIP3   OH215311   3.575   5.467   1.569
 5102TIP3    H115312   3.664   5.493   1.545
 5102TIP3    H215313   3.564   5.381   1.528
 5103TIP3   OH215314   0.186   0.803   0.301
 5103TIP3    H115315   0.234   0.759   0.371
 5103TIP3    H215316   0.240   0.788   0.223
 5104TIP3   OH215317   4.046   2.104   1.907
 5104TIP3    H115318   4.102   2.174   1.876
 5104TIP3    H215319   3.979   2.148   1.960
 5105TIP3   OH215320   2.411   2.750   2.412
 5105TIP3    H115321   2.317   2.756   2.427
 5105TIP3    H215322   2.434   2.661   2.440
 5106TIP3   OH215323   0.279   5.050   2.639
 5106TIP3    H115324   0.360   5.045   2.689
 5106TIP3    H215325   0.229   5.121   2.679
 5107TIP3   OH215326   3.903   1.283   4.068
 5107TIP3    H115327   3.835   1.334   4.113
 5107TIP3    H215328   3.862   1.197   4.053
 5108TIP3   OH215329   4.555   1.043   4.441
 5108TIP3    H115330   4.526   0.963   4.398
 5108TIP3    H215331   4.512   1.113   4.392
 5109TIP3   OH215332   4.061   3.780   2.920
 5109TIP3    H115333   4.130   3.725   2.959
 5109TIP3    H215334   4.079   3.868   2.953
 5110TIP3   OH215335   0.740   0.801   2.370
 5110TIP3    H115336   0.750   0.827   2.278
 5110TIP3    H215337   0.754   0.706   2.369
 5111TIP3   OH215338   3.581   3.920   0.944
 5111TIP3    H115339   3.507   3.972   0.974
 5111TIP3    H215340   3.657   3.961   0.985
 5112TIP3   OH215341   0.294   2.719   2.358
 5112TIP3    H115342   0.369   2.779   2.367
 5112TIP3    H215343   0.331   2.632   2.373
 5113TIP3   OH215344   3.146   4.855   5.050
 5113TIP3    H115345   3.094   4.851   5.130
 5113TIP3    H215346   3.182   4.944   5.049
 5114TIP3   OH215347   3.997   1.884   0.929
 5114TIP3    H115348   4.010   1.804   0.878
 5114TIP3    H215349   3.933   1.860   0.996
 5115TIP3   OH215350   5.388   5.817   0.020
 5115TIP3    H115351   5.417   5.865   0.097
 5115TIP3    H215352   5.408   5.875  -0.054
 5116TIP3   OH215353   3.249   2.250   5.017
 5116TIP3    H115354   3.306   2.318   4.981
 5116TIP3    H215355   3.199   2.294   5.085
 5117TIP3   OH215356   3.718   5.919   3.049
 5117TIP3    H115357   3.792   5.972   3.077
 5117TIP3    H215358   3.659   5.917   3.125
 5118TIP3   OH215359   0.707   2.250   0.771
 5118TIP3    H115360   0.673   2.166   0.803
 5118TIP3    H215361   0.782   2.268   0.827
 5119TIP3   OH215362   4.343   0.546   1.043
 5119TIP3    H115363   4.259   0.502   1.025
 5119TIP3    H215364   4.386   0.488   1.106
 5120TIP3   OH215365   1.287   1.254   4.117
 5120TIP3    H115366   1.254   1.181   4.168
 5120TIP3    H215367   1.276   1.331   4.173
 5121TIP3   OH215368   0.376   3.136   0.506
 5121TIP3    H115369   0.325   3.155   0.427
 5121TIP3    H215370   0.418   3.219   0.528
 5122TIP3   OH215371   5.203   2.276   3.720
 5122TIP3    H115372   5.256   2.347   3.683
 5122TIP3    H215373   5.157   2.239   3.645
 5123TIP3   OH215374   3.412   3.630   0.531
 5123TIP3    H115375   3.437   3.587   0.449
 5123TIP3    H215376   3.404   3.723   0.508
 5124TIP3   OH215377   4.962   2.319   5.011
 5124TIP3    H115378   4.973   2.262   4.935
 5124TIP3    H215379   4.967   2.260   5.086
 5125TIP3   OH215380   1.090   5.166   5.102
 5125TIP3    H115381   1.049   5.253   5.112
 5125TIP3    H215382   1.044   5.127   5.027
 5126TIP3   OH215383   2.876   2.583   2.949
 5126TIP3    H115384   2.848   2.522   3.017
 5126TIP3    H215385   2.966   2.559   2.930
 5127TIP3   OH215386   6.220   4.523   3.756
 5127TIP3    H115387   6.228   4.460   3.827
 5127TIP3    H215388   6.230   4.608   3.798
 5128TIP3   OH215389   3.039   0.555   3.546
 5128TIP3    H115390   3.120   0.517   3.513
 5128TIP3    H215391   2.996   0.483   3.594
 5129TIP3   OH215392   1.464   1.634   3.194
 5129TIP3    H115393   1.462   1.538   3.194
 5129TIP3    H215394   1.542   1.656   3.246
 5130TIP3   OH215395   0.075   2.290   1.910
 5130TIP3    H115396   0.078   2.377   1.871
 5130TIP3    H215397   0.003   2.293   1.972
 5131TIP3   OH215398   0.734   5.336   0.704
 5131TIP3    H115399   0.822   5.316   0.735
 5131TIP3    H215400   0.735   5.430   0.686
 5132TIP3   OH215401   1.446   0.656   0.311
 5132TIP3    H115402   1.466   0.718   0.241
 5132TIP3    H215403   1.484   0.574   0.281
 5133TIP3   OH215404   3.192   2.510   0.836
 5133TIP3    H115405   3.270   2.508   0.891
 5133TIP3    H215406   3.224   2.540   0.751
 5134TIP3   OH215407   3.974   5.046   2.619
 5134TIP3    H115408   3.912   5.073   2.551
 5134TIP3    H215409   3.935   5.075   2.701
 5135TIP3   OH215410   3.223   0.476   2.909
 5135TIP3    H115411   3.280   0.477   2.832
 5135TIP3    H215412   3.248   0.398   2.958
 5136TIP3   OH215413   2.789   1.335   4.380
 5136TIP3    H115414   2.824   1.326   4.468
 5136TIP3    H215415   2.816   1.255   4.334
 5137TIP3   OH215416   1.674  -0.009   4.542
 5137TIP3    H115417   1.691   0.046   4.466
 5137TIP3    H215418   1.660   0.053   4.614
 5138TIP3   OH215419   3.828   0.998   4.030
 5138TIP3    H115420   3.812   0.908   4.057
 5138TIP3    H215421   3.920   0.999   4.002
 5139TIP3   OH215422   0.625   0.867   4.215
 5139TIP3    H115423   0.662   0.955   4.224
 5139TIP3    H215424   0.626   0.832   4.303
 5140TIP3   OH215425   5.106   0.306   1.245
 5140TIP3    H115426   5.099   0.360   1.324
 5140TIP3    H215427   5.026   0.254   1.244
 5141TIP3   OH215428   3.942   2.394   0.193
 5141TIP3    H115429   3.973   2.470   0.144
 5141TIP3    H215430   4.001   2.323   0.168
 5142TIP3   OH215431   2.958   0.833   1.638
 5142TIP3    H115432   2.902   0.830   1.561
 5142TIP3    H215433   3.045   0.809   1.606
 5143TIP3   OH215434   0.603   1.008   3.191
 5143TIP3    H115435   0.661   1.064   3.242
 5143TIP3    H215436   0.521   1.007   3.241
 5144TIP3   OH215437   3.496   0.721   1.469
 5144TIP3    H115438   3.568   0.784   1.468
 5144TIP3    H215439   3.520   0.656   1.403
 5145TIP3   OH215440   4.687   5.006   2.928
 5145TIP3    H115441   4.635   4.930   2.905
 5145TIP3    H215442   4.661   5.028   3.018
 5146TIP3   OH215443   6.285   1.426   0.484
 5146TIP3    H115444   6.243   1.454   0.565
 5146TIP3    H215445   6.329   1.344   0.506
 5147TIP3   OH215446   1.139   4.403   0.279
 5147TIP3    H115447   1.133   4.325   0.333
 5147TIP3    H215448   1.050   4.439   0.279
 5148TIP3   OH215449   3.505   1.879   2.662
 5148TIP3    H115450   3.523   1.891   2.569
 5148TIP3    H215451   3.409   1.871   2.666
 5149TIP3   OH215452   5.656   4.946   2.496
 5149TIP3    H115453   5.678   5.010   2.564
 5149TIP3    H215454   5.646   4.999   2.416
 5150TIP3   OH215455   6.010   3.115   2.193
 5150TIP3    H115456   5.981   3.136   2.104
 5150TIP3    H215457   6.065   3.189   2.218
 5151TIP3   OH215458   2.625   1.000   0.082
 5151TIP3    H115459   2.629   0.907   0.108
 5151TIP3    H215460   2.688   1.043   0.140
 5152TIP3   OH215461   5.699   5.924   2.061
 5152TIP3    H115462   5.720   5.937   1.969
 5152TIP3    H215463   5.727   6.006   2.104
 5153TIP3   OH215464   4.323   1.643   1.509
 5153TIP3    H115465   4.320   1.548   1.522
 5153TIP3    H215466   4.313   1.680   1.596
 5154TIP3   OH215467   2.635   0.924   0.380
 5154TIP3    H115468   2.729   0.915   0.396
 5154TIP3    H215469   2.598   0.841   0.410
 5155TIP3   OH215470   3.563   4.487   4.043
 5155TIP3    H115471   3.521   4.568   4.015
 5155TIP3    H215472   3.656   4.505   4.038
 5156TIP3   OH215473   2.670   2.542   0.873
 5156TIP3    H115474   2.631   2.496   0.799
 5156TIP3    H215475   2.758   2.563   0.845
 5157TIP3   OH215476   0.640   1.773   1.733
 5157TIP3    H115477   0.557   1.732   1.759
 5157TIP3    H215478   0.628   1.793   1.640
 5158TIP3   OH215479   0.913   3.251   5.100
 5158TIP3    H115480   0.906   3.165   5.143
 5158TIP3    H215481   0.922   3.231   5.007
 5159TIP3   OH215482   1.409   1.377   3.201
 5159TIP3    H115483   1.450   1.308   3.148
 5159TIP3    H215484   1.315   1.370   3.181
 5160TIP3   OH215485   6.264   3.805   4.788
 5160TIP3    H115486   6.317   3.742   4.837
 5160TIP3    H215487   6.184   3.815   4.840
 5161TIP3   OH215488   6.085   0.602   3.377
 5161TIP3    H115489   6.158   0.544   3.356
 5161TIP3    H215490   6.070   0.590   3.471
 5162TIP3   OH215491   4.569   0.424   3.270
 5162TIP3    H115492   4.569   0.348   3.211
 5162TIP3    H215493   4.634   0.483   3.233
 5163TIP3   OH215494   4.271   4.945   2.964
 5163TIP3    H115495   4.263   4.955   2.869
 5163TIP3    H215496   4.282   4.850   2.977
 5164TIP3   OH215497   6.354   2.536   3.921
 5164TIP3    H115498   6.271   2.577   3.945
 5164TIP3    H215499   6.373   2.570   3.834
 5165TIP3   OH215500   4.704   4.800   4.613
 5165TIP3    H115501   4.731   4.725   4.666
 5165TIP3    H215502   4.676   4.761   4.530
 5166TIP3   OH215503   3.192   4.396   5.042
 5166TIP3    H115504   3.170   4.482   5.005
 5166TIP3    H215505   3.113   4.343   5.026
 5167TIP3   OH215506   1.332   3.176   0.505
 5167TIP3    H115507   1.374   3.262   0.499
 5167TIP3    H215508   1.283   3.167   0.424
 5168TIP3   OH215509   6.293   2.358   2.176
 5168TIP3    H115510   6.251   2.329   2.257
 5168TIP3    H215511   6.317   2.449   2.192
 5169TIP3   OH215512   2.515   4.164   4.850
 5169TIP3    H115513   2.483   4.241   4.804
 5169TIP3    H215514   2.610   4.169   4.842
 5170TIP3   OH215515   0.478   3.662   5.050
 5170TIP3    H115516   0.526   3.713   4.985
 5170TIP3    H215517   0.456   3.580   5.005
 5171TIP3   OH215518   2.163   1.962   3.340
 5171TIP3    H115519   2.216   2.022   3.287
 5171TIP3    H215520   2.209   1.957   3.424
 5172TIP3   OH215521   1.366   0.755   0.668
 5172TIP3    H115522   1.444   0.784   0.622
 5172TIP3    H215523   1.395   0.736   0.757
 5173TIP3   OH215524   5.917   2.327   1.096
 5173TIP3    H115525   5.917   2.353   1.188
 5173TIP3    H215526   5.831   2.287   1.082
 5174TIP3   OH215527   0.978   1.068   3.211
 5174TIP3    H115528   1.021   0.986   3.184
 5174TIP3    H215529   1.043   1.113   3.265
 5175TIP3   OH215530   3.429   4.565   0.396
 5175TIP3    H115531   3.348   4.564   0.344
 5175TIP3    H215532   3.412   4.629   0.465
 5176TIP3   OH215533   5.619   4.942   1.651
 5176TIP3    H115534   5.542   4.990   1.682
 5176TIP3    H215535   5.617   4.860   1.700
 5177TIP3   OH215536   5.984   0.658   4.361
 5177TIP3    H115537   5.943   0.598   4.298
 5177TIP3    H215538   5.972   0.615   4.446
 5178TIP3   OH215539   2.713   1.125   2.430
 5178TIP3    H115540   2.629   1.118   2.386
 5178TIP3    H215541   2.763   1.050   2.399
 5179TIP3   OH215542   4.753   5.098   0.619
 5179TIP3    H115543   4.728   5.051   0.699
 5179TIP3    H215544   4.695   5.064   0.552
 5180TIP3   OH215545   4.535   4.019   1.186
 5180TIP3    H115546   4.483   3.971   1.250
 5180TIP3    H215547   4.545   3.958   1.113
 5181TIP3   OH215548   1.677   3.780   0.393
 5181TIP3    H115549   1.636   3.864   0.371
 5181TIP3    H215550   1.605   3.717   0.390
 5182TIP3   OH215551   2.651   4.214   3.902
 5182TIP3    H115552   2.671   4.302   3.935
 5182TIP3    H215553   2.708   4.203   3.827
 5183TIP3   OH215554   3.713   4.177   3.815
 5183TIP3    H115555   3.763   4.155   3.893
 5183TIP3    H215556   3.676   4.094   3.785
 5184TIP3   OH215557   0.316   4.790   0.373
 5184TIP3    H115558   0.337   4.883   0.383
 5184TIP3    H215559   0.335   4.752   0.459
 5185TIP3   OH215560   3.018   2.998   2.020
 5185TIP3    H115561   3.091   2.948   2.057
 5185TIP3    H215562   2.972   3.033   2.097
 5186TIP3   OH215563   2.111   0.088   2.990
 5186TIP3    H115564   2.044   0.053   2.931
 5186TIP3    H215565   2.065   0.102   3.072
 5187TIP3   OH215566   5.763   4.105   2.110
 5187TIP3    H115567   5.706   4.028   2.115
 5187TIP3    H215568   5.749   4.138   2.021
 5188TIP3   OH215569   1.220   0.533   2.484
 5188TIP3    H115570   1.267   0.615   2.495
 5188TIP3    H215571   1.133   0.549   2.522
 5189TIP3   OH215572   4.960   2.933   4.348
 5189TIP3    H115573   4.990   3.015   4.310
 5189TIP3    H215574   4.897   2.959   4.415
 5190TIP3   OH215575   4.056   3.310   3.521
 5190TIP3    H115576   4.096   3.227   3.546
 5190TIP3    H215577   4.012   3.291   3.438
 5191TIP3   OH215578   5.978   0.410   4.020
 5191TIP3    H115579   6.060   0.459   4.025
 5191TIP3    H215580   5.998   0.326   4.062
 5192TIP3   OH215581   3.938   1.907   0.601
 5192TIP3    H115582   3.989   1.836   0.640
 5192TIP3    H215583   3.888   1.943   0.674
 5193TIP3   OH215584   4.595   4.767   3.702
 5193TIP3    H115585   4.564   4.790   3.615
 5193TIP3    H215586   4.536   4.814   3.762
 5194TIP3   OH215587   4.880   4.695   3.877
 5194TIP3    H115588   4.855   4.617   3.827
 5194TIP3    H215589   4.937   4.744   3.818
 5195TIP3   OH215590   6.262   1.627   1.207
 5195TIP3    H115591   6.258   1.649   1.114
 5195TIP3    H215592   6.233   1.707   1.251
 5196TIP3   OH215593   3.896   2.933   2.214
 5196TIP3    H115594   3.851   3.012   2.185
 5196TIP3    H215595   3.850   2.862   2.170
 5197TIP3   OH215596   1.325   4.162   5.045
 5197TIP3    H115597   1.316   4.099   5.117
 5197TIP3    H215598   1.386   4.228   5.078
 5198TIP3   OH215599   0.119   2.293   2.796
 5198TIP3    H115600   0.196   2.348   2.808
 5198TIP3    H215601   0.091   2.312   2.706
 5199TIP3   OH215602   1.072   0.502   0.858
 5199TIP3    H115603   1.071   0.584   0.809
 5199TIP3    H215604   1.017   0.443   0.808
 5200TIP3   OH215605   1.271   1.285   2.214
 5200TIP3    H115606   1.312   1.371   2.225
 5200TIP3    H215607   1.252   1.279   2.120
 5201TIP3   OH215608   1.737   3.744   3.262
 5201TIP3    H115609   1.646   3.732   3.232
 5201TIP3    H215610   1.781   3.663   3.235
 5202TIP3   OH215611   2.176   4.916   2.012
 5202TIP3    H115612   2.208   4.988   2.068
 5202TIP3    H215613   2.213   4.837   2.052
 5203TIP3   OH215614   4.031   0.707   4.211
 5203TIP3    H115615   3.990   0.658   4.139
 5203TIP3    H215616   4.068   0.640   4.268
 5204TIP3   OH215617   0.151   0.396   4.424
 5204TIP3    H115618   0.120   0.450   4.351
 5204TIP3    H215619   0.246   0.393   4.412
 5205TIP3   OH215620   5.021   0.023   0.711
 5205TIP3    H115621   4.999  -0.070   0.698
 5205TIP3    H215622   4.995   0.065   0.629
 5206TIP3   OH215623   3.803   1.597   2.774
 5206TIP3    H115624   3.717   1.613   2.812
 5206TIP3    H215625   3.851   1.548   2.840
 5207TIP3   OH215626   1.644   3.594   2.968
 5207TIP3    H115627   1.568   3.536   2.956
 5207TIP3    H215628   1.614   3.660   3.030
 5208TIP3   OH215629   5.881   1.051   3.028
 5208TIP3    H115630   5.820   0.997   3.078
 5208TIP3    H215631   5.887   1.133   3.077
 5209TIP3   OH215632   0.398   4.229   0.584
 5209TIP3    H115633   0.461   4.302   0.589
 5209TIP3    H215634   0.363   4.221   0.673
 5210TIP3   OH215635   0.454   3.670   4.330
 5210TIP3    H115636   0.504   3.622   4.263
 5210TIP3    H215637   0.515   3.736   4.362
 5211TIP3   OH215638   2.395   4.390   5.143
 5211TIP3    H115639   2.364   4.376   5.232
 5211TIP3    H215640   2.345   4.329   5.090
 5212TIP3   OH215641   0.693   4.238   2.314
 5212TIP3    H115642   0.741   4.320   2.298
 5212TIP3    H215643   0.622   4.238   2.250
 5213TIP3   OH215644   4.576   0.390   4.417
 5213TIP3    H115645   4.497   0.414   4.369
 5213TIP3    H215646   4.544   0.366   4.504
 5214TIP3   OH215647   2.350   4.175   2.354
 5214TIP3    H115648   2.256   4.192   2.362
 5214TIP3    H215649   2.360   4.135   2.268
 5215TIP3   OH215650   2.620   0.925   2.655
 5215TIP3    H115651   2.689   0.929   2.722
 5215TIP3    H215652   2.644   0.992   2.591
 5216TIP3   OH215653   1.361   4.025   0.294
 5216TIP3    H115654   1.446   4.063   0.318
 5216TIP3    H215655   1.361   4.026   0.198
 5217TIP3   OH215656   1.739   1.605   0.159
 5217TIP3    H115657   1.773   1.660   0.229
 5217TIP3    H215658   1.694   1.666   0.100
 5218TIP3   OH215659   5.011   5.526   1.750
 5218TIP3    H115660   5.085   5.467   1.751
 5218TIP3    H215661   4.990   5.538   1.657
 5219TIP3   OH215662   3.258   5.437   2.518
 5219TIP3    H115663   3.300   5.517   2.487
 5219TIP3    H215664   3.236   5.454   2.609
 5220TIP3   OH215665   5.390   4.226   3.313
 5220TIP3    H115666   5.425   4.304   3.271
 5220TIP3    H215667   5.468   4.172   3.332
 5221TIP3   OH215668   1.242   0.153   2.416
 5221TIP3    H115669   1.284   0.214   2.356
 5221TIP3    H215670   1.154   0.140   2.379
 5222TIP3   OH215671   0.877   4.948   4.666
 5222TIP3    H115672   0.787   4.950   4.631
 5222TIP3    H215673   0.931   4.932   4.589
 5223TIP3   OH215674   0.951   2.708   4.882
 5223TIP3    H115675   0.939   2.740   4.793
 5223TIP3    H215676   0.881   2.645   4.896
 5224TIP3   OH215677   1.509   2.859   5.097
 5224TIP3    H115678   1.554   2.810   5.166
 5224TIP3    H215679   1.424   2.883   5.136
 5225TIP3   OH215680   4.807   3.040   4.578
 5225TIP3    H115681   4.827   3.120   4.626
 5225TIP3    H215682   4.744   3.068   4.511
 5226TIP3   OH215683   5.452   2.530   4.092
 5226TIP3    H115684   5.515   2.541   4.022
 5226TIP3    H215685   5.441   2.618   4.130
 5227TIP3   OH215686   0.340   1.971   0.295
 5227TIP3    H115687   0.343   1.995   0.388
 5227TIP3    H215688   0.393   2.037   0.252
 5228TIP3   OH215689   4.115   2.357   0.981
 5228TIP3    H115690   4.050   2.428   0.977
 5228TIP3    H215691   4.184   2.385   0.921
 5229TIP3   OH215692   5.798   5.126   0.967
 5229TIP3    H115693   5.708   5.150   0.946
 5229TIP3    H215694   5.790   5.043   1.014
 5230TIP3   OH215695   2.479   4.189   4.577
 5230TIP3    H115696   2.540   4.124   4.611
 5230TIP3    H215697   2.528   4.234   4.509
 5231TIP3   OH215698   0.296   0.711   2.637
 5231TIP3    H115699   0.205   0.700   2.663
 5231TIP3    H215700   0.340   0.634   2.673
 5232TIP3   OH215701   0.580   5.404   3.934
 5232TIP3    H115702   0.661   5.364   3.964
 5232TIP3    H215703   0.600   5.498   3.927
 5233TIP3   OH215704   0.349   1.898   4.713
 5233TIP3    H115705   0.354   1.901   4.618
 5233TIP3    H215706   0.427   1.944   4.743
 5234TIP3   OH215707   2.538   2.051   3.564
 5234TIP3    H115708   2.509   2.130   3.518
 5234TIP3    H215709   2.617   2.079   3.612
 5235TIP3   OH215710   5.062   5.682   0.802
 5235TIP3    H115711   5.101   5.770   0.798
 5235TIP3    H215712   5.004   5.685   0.878
 5236TIP3   OH215713   0.069   5.981   4.287
 5236TIP3    H115714  -0.011   6.021   4.322
 5236TIP3    H215715   0.043   5.890   4.269
 5237TIP3   OH215716   4.393   5.015   4.397
 5237TIP3    H115717   4.327   5.007   4.466
 5237TIP3    H215718   4.343   5.007   4.316
 5238TIP3   OH215719   4.238   2.814   2.949
 5238TIP3    H115720   4.323   2.853   2.925
 5238TIP3    H215721   4.222   2.748   2.881
 5239TIP3   OH215722   2.095   4.147   1.555
 5239TIP3    H115723   2.094   4.140   1.459
 5239TIP3    H215724   2.154   4.077   1.583
 5240TIP3   OH215725   2.626   0.271   0.756
 5240TIP3    H115726   2.598   0.187   0.719
 5240TIP3    H215727   2.550   0.328   0.744
 5241TIP3   OH215728   0.471   2.750   3.160
 5241TIP3    H115729   0.500   2.810   3.228
 5241TIP3    H215730   0.377   2.765   3.153
 5242TIP3   OH215731   4.628   0.586   0.111
 5242TIP3    H115732   4.636   0.616   0.020
 5242TIP3    H215733   4.616   0.491   0.104
 5243TIP3   OH215734   3.384   5.191   3.264
 5243TIP3    H115735   3.391   5.232   3.177
 5243TIP3    H215736   3.291   5.172   3.274
 5244TIP3   OH215737   3.608   3.326   3.037
 5244TIP3    H115738   3.685   3.334   3.093
 5244TIP3    H215739   3.583   3.234   3.044
 5245TIP3   OH215740   1.385   1.548   2.253
 5245TIP3    H115741   1.412   1.615   2.315
 5245TIP3    H215742   1.401   1.586   2.167
 5246TIP3   OH215743   0.653   3.824   4.040
 5246TIP3    H115744   0.708   3.874   4.100
 5246TIP3    H215745   0.563   3.846   4.065
 5247TIP3   OH215746   5.302   2.039   4.943
 5247TIP3    H115747   5.329   1.949   4.926
 5247TIP3    H215748   5.242   2.060   4.871
 5248TIP3   OH215749   2.551   4.704   4.048
 5248TIP3    H115750   2.562   4.610   4.057
 5248TIP3    H215751   2.557   4.721   3.954
 5249TIP3   OH215752   1.067   2.847   1.030
 5249TIP3    H115753   1.038   2.914   1.092
 5249TIP3    H215754   1.160   2.834   1.050
 5250TIP3   OH215755   5.274   3.414   4.825
 5250TIP3    H115756   5.212   3.369   4.883
 5250TIP3    H215757   5.331   3.344   4.792
 5251TIP3   OH215758   0.388   0.619   3.141
 5251TIP3    H115759   0.438   0.663   3.072
 5251TIP3    H215760   0.301   0.609   3.104
 5252TIP3   OH215761   4.755   2.474   2.537
 5252TIP3    H115762   4.752   2.379   2.522
 5252TIP3    H215763   4.717   2.512   2.457
 5253TIP3   OH215764   3.613   1.151   1.637
 5253TIP3    H115765   3.535   1.206   1.650
 5253TIP3    H215766   3.582   1.078   1.584
 5254TIP3   OH215767   0.502   5.945   4.696
 5254TIP3    H115768   0.428   5.966   4.640
 5254TIP3    H215769   0.566   6.014   4.678
 5255TIP3   OH215770   1.619   0.625   4.372
 5255TIP3    H115771   1.611   0.718   4.393
 5255TIP3    H215772   1.618   0.621   4.277
 5256TIP3   OH215773   0.306   0.446   0.438
 5256TIP3    H115774   0.235   0.510   0.443
 5256TIP3    H215775   0.287   0.383   0.508
 5257TIP3   OH215776   5.354   1.355   5.158
 5257TIP3    H115777   5.400   1.274   5.181
 5257TIP3    H215778   5.329   1.394   5.241
 5258TIP3   OH215779   3.004   2.422   1.996
 5258TIP3    H115780   3.097   2.418   1.973
 5258TIP3    H215781   3.004   2.427   2.091
 5259TIP3   OH215782   5.749   0.478   2.730
 5259TIP3    H115783   5.763   0.407   2.667
 5259TIP3    H215784   5.837   0.499   2.762
 5260TIP3   OH215785   3.044  -0.015   2.527
 5260TIP3    H115786   3.033   0.028   2.442
 5260TIP3    H215787   2.997  -0.098   2.519
 5261TIP3   OH215788   3.917  -0.041   2.592
 5261TIP3    H115789   4.000  -0.061   2.636
 5261TIP3    H215790   3.902   0.051   2.610
 5262TIP3   OH215791   5.126   2.863   4.962
 5262TIP3    H115792   5.106   2.823   4.877
 5262TIP3    H215793   5.065   2.937   4.968
 5263TIP3   OH215794   2.281   1.239   1.911
 5263TIP3    H115795   2.200   1.290   1.919
 5263TIP3    H215796   2.253   1.148   1.919
 5264TIP3   OH215797   1.284   3.860   3.956
 5264TIP3    H115798   1.358   3.807   3.925
 5264TIP3    H215799   1.279   3.842   4.049
 5265TIP3   OH215800   3.975   4.681   1.505
 5265TIP3    H115801   4.063   4.680   1.541
 5265TIP3    H215802   3.964   4.769   1.468
 5266TIP3   OH215803   0.579   4.619   2.222
 5266TIP3    H115804   0.506   4.577   2.177
 5266TIP3    H215805   0.597   4.698   2.171
 5267TIP3   OH215806   2.413   2.597   2.804
 5267TIP3    H115807   2.467   2.672   2.781
 5267TIP3    H215808   2.471   2.539   2.852
 5268TIP3   OH215809   1.063   0.217   3.162
 5268TIP3    H115810   0.991   0.235   3.101
 5268TIP3    H215811   1.033   0.252   3.246
 5269TIP3   OH215812   2.434   0.580   1.807
 5269TIP3    H115813   2.494   0.512   1.777
 5269TIP3    H215814   2.354   0.534   1.832
 5270TIP3   OH215815   2.235   5.423   0.187
 5270TIP3    H115816   2.323   5.440   0.222
 5270TIP3    H215817   2.218   5.331   0.210
 5271TIP3   OH215818   0.755   2.880   3.897
 5271TIP3    H115819   0.715   2.913   3.978
 5271TIP3    H215820   0.775   2.788   3.916
 5272TIP3   OH215821   4.174   2.079   0.919
 5272TIP3    H115822   4.096   2.024   0.925
 5272TIP3    H215823   4.145   2.165   0.949
 5273TIP3   OH215824   6.044   1.412   3.463
 5273TIP3    H115825   6.029   1.495   3.417
 5273TIP3    H215826   5.958   1.369   3.463
 5274TIP3   OH215827   3.868   5.424   1.397
 5274TIP3    H115828   3.941   5.479   1.367
 5274TIP3    H215829   3.847   5.369   1.321
 5275TIP3   OH215830   4.052   2.758   0.377
 5275TIP3    H115831   4.011   2.672   0.373
 5275TIP3    H215832   3.983   2.819   0.351
 5276TIP3   OH215833   3.087   3.405   3.540
 5276TIP3    H115834   3.119   3.343   3.474
 5276TIP3    H215835   2.994   3.385   3.548
 5277TIP3   OH215836   2.954   1.632   3.997
 5277TIP3    H115837   3.046   1.621   4.024
 5277TIP3    H215838   2.947   1.583   3.915
 5278TIP3   OH215839   0.995   4.719   2.166
 5278TIP3    H115840   1.014   4.807   2.135
 5278TIP3    H215841   0.942   4.732   2.245
 5279TIP3   OH215842   1.992   5.130   1.608
 5279TIP3    H115843   2.023   5.129   1.698
 5279TIP3    H215844   2.022   5.214   1.573
 5280TIP3   OH215845   5.541   3.516   0.565
 5280TIP3    H115846   5.619   3.498   0.617
 5280TIP3    H215847   5.573   3.568   0.491
 5281TIP3   OH215848   0.237   4.448   1.190
 5281TIP3    H115849   0.305   4.392   1.155
 5281TIP3    H215850   0.182   4.470   1.115
 5282TIP3   OH215851   6.139   1.071   3.555
 5282TIP3    H115852   6.228   1.063   3.519
 5282TIP3    H215853   6.085   1.092   3.479
 5283TIP3   OH215854   4.261   3.479   0.761
 5283TIP3    H115855   4.274   3.387   0.740
 5283TIP3    H215856   4.181   3.481   0.814
 5284TIP3   OH215857   3.106   2.137   4.106
 5284TIP3    H115858   3.090   2.053   4.149
 5284TIP3    H215859   3.025   2.186   4.119
 5285TIP3   OH215860   1.239   4.328   4.111
 5285TIP3    H115861   1.208   4.244   4.144
 5285TIP3    H215862   1.227   4.323   4.017
 5286TIP3   OH215863   3.358   3.867   2.179
 5286TIP3    H115864   3.349   3.771   2.183
 5286TIP3    H215865   3.281   3.900   2.224
 5287TIP3   OH215866   3.720   4.037   2.017
 5287TIP3    H115867   3.800   4.084   2.041
 5287TIP3    H215868   3.751   3.963   1.965
 5288TIP3   OH215869   2.654   3.941   4.642
 5288TIP3    H115870   2.726   4.004   4.635
 5288TIP3    H215871   2.654   3.914   4.734
 5289TIP3   OH215872   1.523   0.323   1.714
 5289TIP3    H115873   1.489   0.389   1.654
 5289TIP3    H215874   1.448   0.298   1.768
 5290TIP3   OH215875   1.883   5.252   2.421
 5290TIP3    H115876   1.877   5.238   2.327
 5290TIP3    H215877   1.792   5.255   2.451
 5291TIP3   OH215878   0.093   0.907   1.766
 5291TIP3    H115879   0.118   0.936   1.678
 5291TIP3    H215880   0.058   0.819   1.753
 5292TIP3   OH215881   5.540   1.424   3.418
 5292TIP3    H115882   5.482   1.357   3.456
 5292TIP3    H215883   5.502   1.507   3.448
 5293TIP3   OH215884   3.537   0.866   4.268
 5293TIP3    H115885   3.612   0.883   4.211
 5293TIP3    H215886   3.495   0.951   4.278
 5294TIP3   OH215887   5.876   5.530   5.190
 5294TIP3    H115888   5.970   5.538   5.207
 5294TIP3    H215889   5.866   5.556   5.098
 5295TIP3   OH215890   2.222   3.909   1.229
 5295TIP3    H115891   2.187   3.820   1.224
 5295TIP3    H215892   2.147   3.964   1.247
 5296TIP3   OH215893   2.218   6.039   4.212
 5296TIP3    H115894   2.298   5.989   4.225
 5296TIP3    H215895   2.149   5.984   4.249
 5297TIP3   OH215896   4.738   2.177   4.542
 5297TIP3    H115897   4.679   2.242   4.580
 5297TIP3    H215898   4.825   2.216   4.549
 5298TIP3   OH215899   3.099   0.205   1.726
 5298TIP3    H115900   3.030   0.228   1.663
 5298TIP3    H215901   3.126   0.117   1.700
 5299TIP3   OH215902   2.087   0.499   4.008
 5299TIP3    H115903   2.121   0.585   3.981
 5299TIP3    H215904   2.018   0.520   4.071
 5300TIP3   OH215905   6.202   4.118   4.710
 5300TIP3    H115906   6.278   4.158   4.753
 5300TIP3    H215907   6.177   4.046   4.768
 5301TIP3   OH215908   4.505   5.406   2.360
 5301TIP3    H115909   4.572   5.340   2.377
 5301TIP3    H215910   4.552   5.479   2.319
 5302TIP3   OH215911   2.351   3.588   2.673
 5302TIP3    H115912   2.317   3.520   2.731
 5302TIP3    H215913   2.436   3.555   2.644
 5303TIP3   OH215914   4.105   5.357   4.400
 5303TIP3    H115915   4.110   5.414   4.476
 5303TIP3    H215916   4.086   5.270   4.437
 5304TIP3   OH215917   3.302   0.268   1.903
 5304TIP3    H115918   3.302   0.173   1.892
 5304TIP3    H215919   3.250   0.301   1.830
 5305TIP3   OH215920   6.301   4.655   0.040
 5305TIP3    H115921   6.340   4.703   0.113
 5305TIP3    H215922   6.227   4.608   0.079
 5306TIP3   OH215923   3.720   3.139   1.730
 5306TIP3    H115924   3.668   3.079   1.785
 5306TIP3    H215925   3.679   3.133   1.644
 5307TIP3   OH215926   5.567   3.814   0.646
 5307TIP3    H115927   5.523   3.734   0.673
 5307TIP3    H215928   5.659   3.801   0.671
 5308TIP3   OH215929   3.889   5.811   1.166
 5308TIP3    H115930   3.831   5.827   1.242
 5308TIP3    H215931   3.949   5.743   1.196
 5309TIP3   OH215932   0.391   2.676   4.913
 5309TIP3    H115933   0.387   2.739   4.840
 5309TIP3    H215934   0.328   2.608   4.889
 5310TIP3   OH215935   3.076   1.113   0.153
 5310TIP3    H115936   3.045   1.022   0.155
 5310TIP3    H215937   3.157   1.112   0.203
 5311TIP3   OH215938   0.082   5.403   5.079
 5311TIP3    H115939   0.012   5.367   5.134
 5311TIP3    H215940   0.095   5.492   5.112
 5312TIP3   OH215941   5.850   3.012   4.104
 5312TIP3    H115942   5.795   3.015   4.027
 5312TIP3    H215943   5.800   3.058   4.172
 5313TIP3   OH215944   0.590   0.447   2.457
 5313TIP3    H115945   0.656   0.468   2.391
 5313TIP3    H215946   0.559   0.359   2.433
 5314TIP3   OH215947   2.709   4.411   4.687
 5314TIP3    H115948   2.683   4.458   4.767
 5314TIP3    H215949   2.662   4.456   4.617
 5315TIP3   OH215950   0.790   0.064   1.367
 5315TIP3    H115951   0.857   0.033   1.428
 5315TIP3    H215952   0.811   0.020   1.284
 5316TIP3   OH215953   5.133   0.857   3.674
 5316TIP3    H115954   5.148   0.946   3.708
 5316TIP3    H215955   5.088   0.812   3.746
 5317TIP3   OH215956   5.311   0.228   5.213
 5317TIP3    H115957   5.337   0.307   5.165
 5317TIP3    H215958   5.280   0.168   5.145
 5318TIP3   OH215959   2.375   0.986   2.872
 5318TIP3    H115960   2.455   1.037   2.861
 5318TIP3    H215961   2.406   0.896   2.886
 5319TIP3   OH215962   2.710   5.859   3.035
 5319TIP3    H115963   2.707   5.837   3.128
 5319TIP3    H215964   2.619   5.873   3.010
 5320TIP3   OH215965   3.135   5.137   3.226
 5320TIP3    H115966   3.054   5.092   3.249
 5320TIP3    H215967   3.108   5.204   3.164
 5321TIP3   OH215968   3.817   1.398   2.311
 5321TIP3    H115969   3.829   1.384   2.405
 5321TIP3    H215970   3.766   1.322   2.282
 5322TIP3   OH215971   3.078   3.298   2.050
 5322TIP3    H115972   3.165   3.335   2.069
 5322TIP3    H215973   3.072   3.299   1.954
 5323TIP3   OH215974   6.217   4.928   5.001
 5323TIP3    H115975   6.175   4.906   4.918
 5323TIP3    H215976   6.226   4.844   5.045
 5324TIP3   OH215977   2.751   5.934   4.811
 5324TIP3    H115978   2.813   5.863   4.829
 5324TIP3    H215979   2.781   6.007   4.866
 5325TIP3   OH215980   3.306   0.396   0.641
 5325TIP3    H115981   3.344   0.481   0.662
 5325TIP3    H215982   3.348   0.371   0.559
 5326TIP3   OH215983   3.710   4.558   4.655
 5326TIP3    H115984   3.726   4.514   4.739
 5326TIP3    H215985   3.684   4.487   4.596
 5327TIP3   OH215986   4.922   4.374   3.997
 5327TIP3    H115987   4.881   4.299   3.955
 5327TIP3    H215988   4.860   4.403   4.064
 5328TIP3   OH215989   5.046   2.994   0.658
 5328TIP3    H115990   4.980   2.990   0.588
 5328TIP3    H215991   4.995   3.008   0.738
 5329TIP3   OH215992   0.177   2.208   0.393
 5329TIP3    H115993   0.110   2.257   0.346
 5329TIP3    H215994   0.252   2.266   0.397
 5330TIP3   OH215995   1.705   0.726   4.096
 5330TIP3    H115996   1.679   0.638   4.070
 5330TIP3    H215997   1.662   0.784   4.033
 5331TIP3   OH215998   1.606   2.644   2.608
 5331TIP3    H115999   1.536   2.645   2.542
 5331TIP3    H216000   1.590   2.722   2.662
 5332TIP3   OH216001   2.007   5.820   4.201
 5332TIP3    H116002   1.927   5.805   4.152
 5332TIP3    H216003   2.063   5.745   4.181
 5333TIP3   OH216004   1.817   1.812   3.630
 5333TIP3    H116005   1.722   1.814   3.647
 5333TIP3    H216006   1.824   1.789   3.537
 5334TIP3   OH216007   2.665   1.084   3.964
 5334TIP3    H116008   2.674   1.073   4.058
 5334TIP3    H216009   2.754   1.070   3.930
 5335TIP3   OH216010   6.302   0.132   1.353
 5335TIP3    H116011   6.286   0.075   1.277
 5335TIP3    H216012   6.219   0.175   1.368
 5336TIP3   OH216013   0.812   2.331   4.634
 5336TIP3    H116014   0.872   2.294   4.699
 5336TIP3    H216015   0.747   2.262   4.620
 5337TIP3   OH216016   2.258   2.267   1.700
 5337TIP3    H116017   2.214   2.182   1.696
 5337TIP3    H216018   2.211   2.322   1.638
 5338TIP3   OH216019   0.837   1.661   1.385
 5338TIP3    H116020   0.770   1.729   1.392
 5338TIP3    H216021   0.845   1.626   1.473
 5339TIP3   OH216022   0.383   0.936   0.903
 5339TIP3    H116023   0.401   0.985   0.983
 5339TIP3    H216024   0.360   1.002   0.839
 5340TIP3   OH216025   1.075   1.374   0.460
 5340TIP3    H116026   1.107   1.372   0.370
 5340TIP3    H216027   0.992   1.423   0.455
 5341TIP3   OH216028   5.830   1.169   0.405
 5341TIP3    H116029   5.900   1.234   0.413
 5341TIP3    H216030   5.843   1.131   0.317
 5342TIP3   OH216031   4.891   4.774   2.605
 5342TIP3    H116032   4.846   4.852   2.638
 5342TIP3    H216033   4.843   4.751   2.525
 5343TIP3   OH216034   4.723   5.014   0.336
 5343TIP3    H116035   4.802   4.970   0.306
 5343TIP3    H216036   4.654   4.983   0.278
 5344TIP3   OH216037   4.090   3.821   1.621
 5344TIP3    H116038   4.095   3.882   1.547
 5344TIP3    H216039   4.034   3.750   1.590
 5345TIP3   OH216040   1.316   1.115   2.979
 5345TIP3    H116041   1.286   1.045   2.921
 5345TIP3    H216042   1.236   1.148   3.020
 5346TIP3   OH216043   2.002   4.621   1.713
 5346TIP3    H116044   1.916   4.617   1.671
 5346TIP3    H216045   2.047   4.693   1.669
 5347TIP3   OH216046   0.170   4.478   5.046
 5347TIP3    H116047   0.108   4.533   4.996
 5347TIP3    H216048   0.175   4.520   5.131
 5348TIP3   OH216049   5.871   4.996   3.187
 5348TIP3    H116050   5.894   4.964   3.274
 5348TIP3    H216051   5.815   5.072   3.203
 5349TIP3   OH216052   0.049   3.030   2.967
 5349TIP3    H116053  -0.005   3.083   2.908
 5349TIP3    H216054   0.128   3.082   2.979
 5350TIP3   OH216055   5.675   4.510   4.577
 5350TIP3    H116056   5.654   4.439   4.517
 5350TIP3    H216057   5.615   4.580   4.553
 5351TIP3   OH216058   2.741   1.137   4.768
 5351TIP3    H116059   2.691   1.152   4.848
 5351TIP3    H216060   2.778   1.223   4.748
 5352TIP3   OH216061   3.118   1.147   4.514
 5352TIP3    H116062   3.139   1.172   4.424
 5352TIP3    H216063   3.113   1.230   4.561
 5353TIP3   OH216064   2.535   1.304   4.200
 5353TIP3    H116065   2.569   1.390   4.173
 5353TIP3    H216066   2.608   1.244   4.185
 5354TIP3   OH216067   2.804   5.158   4.175
 5354TIP3    H116068   2.881   5.123   4.221
 5354TIP3    H216069   2.733   5.152   4.239
 5355TIP3   OH216070   1.861   5.140   2.977
 5355TIP3    H116071   1.803   5.181   3.041
 5355TIP3    H216072   1.949   5.167   3.003
 5356TIP3   OH216073   0.442   5.205   3.560
 5356TIP3    H116074   0.452   5.298   3.577
 5356TIP3    H216075   0.491   5.161   3.630
 5357TIP3   OH216076   2.346   3.667   0.975
 5357TIP3    H116077   2.297   3.656   0.893
 5357TIP3    H216078   2.287   3.634   1.042
 5358TIP3   OH216079   3.527   4.424   4.876
 5358TIP3    H116080   3.468   4.358   4.840
 5358TIP3    H216081   3.477   4.506   4.873
 5359TIP3   OH216082   4.759   0.687   1.505
 5359TIP3    H116083   4.737   0.650   1.590
 5359TIP3    H216084   4.750   0.781   1.517
 5360TIP3   OH216085   5.361   2.946   1.372
 5360TIP3    H116086   5.453   2.947   1.346
 5360TIP3    H216087   5.350   3.026   1.424
 5361TIP3   OH216088   5.077   4.454   0.154
 5361TIP3    H116089   5.092   4.529   0.211
 5361TIP3    H216090   5.000   4.477   0.103
 5362TIP3   OH216091   1.682   3.008   0.031
 5362TIP3    H116092   1.747   2.973  -0.030
 5362TIP3    H216093   1.724   3.085   0.069
 5363TIP3   OH216094   1.178   5.397   3.731
 5363TIP3    H116095   1.209   5.348   3.655
 5363TIP3    H216096   1.166   5.487   3.699
 5364TIP3   OH216097   6.281   3.198   3.533
 5364TIP3    H116098   6.185   3.204   3.534
 5364TIP3    H216099   6.302   3.144   3.609
 5365TIP3   OH216100   2.073   5.945   4.510
 5365TIP3    H116101   2.018   5.898   4.573
 5365TIP3    H216102   2.162   5.914   4.529
 5366TIP3   OH216103   3.705   0.946   2.242
 5366TIP3    H116104   3.705   0.864   2.292
 5366TIP3    H216105   3.798   0.968   2.234
 5367TIP3   OH216106   0.878   2.101   2.813
 5367TIP3    H116107   0.940   2.039   2.775
 5367TIP3    H216108   0.852   2.157   2.740
 5368TIP3   OH216109   0.898   4.625   1.547
 5368TIP3    H116110   0.907   4.562   1.619
 5368TIP3    H216111   0.961   4.694   1.567
 5369TIP3   OH216112   0.265   4.359   0.400
 5369TIP3    H116113   0.208   4.283   0.386
 5369TIP3    H216114   0.306   4.342   0.485
 5370TIP3   OH216115   2.889   1.051   2.862
 5370TIP3    H116116   2.880   0.966   2.820
 5370TIP3    H216117   2.854   1.039   2.950
 5371TIP3   OH216118   4.549   2.672   4.115
 5371TIP3    H116119   4.519   2.757   4.148
 5371TIP3    H216120   4.468   2.623   4.101
 5372TIP3   OH216121   0.112   1.385   1.540
 5372TIP3    H116122   0.106   1.439   1.618
 5372TIP3    H216123   0.172   1.314   1.564
 5373TIP3   OH216124   5.515   1.000   3.395
 5373TIP3    H116125   5.438   0.949   3.421
 5373TIP3    H216126   5.478   1.079   3.355
 5374TIP3   OH216127   5.154   0.472   0.089
 5374TIP3    H116128   5.163   0.396   0.031
 5374TIP3    H216129   5.240   0.515   0.085
 5375TIP3   OH216130   0.375   0.968   3.405
 5375TIP3    H116131   0.323   0.888   3.399
 5375TIP3    H216132   0.329   1.032   3.351
 5376TIP3   OH216133   0.433   3.237   4.134
 5376TIP3    H116134   0.358   3.278   4.091
 5376TIP3    H216135   0.399   3.210   4.219
 5377TIP3   OH216136   0.363   5.566   0.335
 5377TIP3    H116137   0.271   5.585   0.352
 5377TIP3    H216138   0.363   5.518   0.252
 5378TIP3   OH216139   1.582   5.056   4.804
 5378TIP3    H116140   1.533   4.996   4.860
 5378TIP3    H216141   1.588   5.137   4.854
 5379TIP3   OH216142   4.462   2.076   3.404
 5379TIP3    H116143   4.524   2.003   3.407
 5379TIP3    H216144   4.453   2.096   3.310
 5380TIP3   OH216145   4.395   0.864   2.706
 5380TIP3    H116146   4.475   0.870   2.758
 5380TIP3    H216147   4.327   0.900   2.763
 5381TIP3   OH216148   2.375   0.036   4.893
 5381TIP3    H116149   2.397   0.116   4.845
 5381TIP3    H216150   2.459   0.002   4.924
 5382TIP3   OH216151   0.215   2.449   1.074
 5382TIP3    H116152   0.287   2.451   1.137
 5382TIP3    H216153   0.219   2.361   1.036
 5383TIP3   OH216154   5.916   5.257   3.404
 5383TIP3    H116155   5.879   5.188   3.459
 5383TIP3    H216156   5.845   5.282   3.345
 5384TIP3   OH216157   1.459   4.637   2.336
 5384TIP3    H116158   1.538   4.637   2.282
 5384TIP3    H216159   1.403   4.703   2.297
 5385TIP3   OH216160   3.682  -0.061   2.441
 5385TIP3    H116161   3.762  -0.059   2.493
 5385TIP3    H216162   3.613  -0.078   2.505
 5386TIP3   OH216163   4.673   3.792   3.910
 5386TIP3    H116164   4.646   3.810   3.820
 5386TIP3    H216165   4.644   3.868   3.960
 5387TIP3   OH216166   3.699   0.921   1.783
 5387TIP3    H116167   3.669   1.011   1.771
 5387TIP3    H216168   3.720   0.890   1.695
 5388TIP3   OH216169   0.709   4.496   1.391
 5388TIP3    H116170   0.775   4.552   1.433
 5388TIP3    H216171   0.636   4.495   1.454
 5389TIP3   OH216172   5.606   3.363   5.226
 5389TIP3    H116173   5.651   3.394   5.304
 5389TIP3    H216174   5.672   3.368   5.157
 5390TIP3   OH216175   4.651   4.910   1.148
 5390TIP3    H116176   4.698   4.828   1.131
 5390TIP3    H216177   4.691   4.944   1.228
 5391TIP3   OH216178   2.090   2.451   4.961
 5391TIP3    H116179   2.136   2.506   4.897
 5391TIP3    H216180   2.105   2.362   4.932
 5392TIP3   OH216181   2.712   4.563   3.647
 5392TIP3    H116182   2.765   4.484   3.644
 5392TIP3    H216183   2.764   4.625   3.699
 5393TIP3   OH216184   3.411   4.047   1.196
 5393TIP3    H116185   3.479   4.115   1.197
 5393TIP3    H216186   3.367   4.055   1.280
 5394TIP3   OH216187   5.316   0.577   1.241
 5394TIP3    H116188   5.357   0.497   1.208
 5394TIP3    H216189   5.340   0.579   1.334
 5395TIP3   OH216190   3.729   5.350   0.826
 5395TIP3    H116191   3.671   5.290   0.873
 5395TIP3    H216192   3.700   5.437   0.854
 5396TIP3   OH216193   0.707   1.236   1.061
 5396TIP3    H116194   0.758   1.193   0.992
 5396TIP3    H216195   0.651   1.298   1.015
 5397TIP3   OH216196   3.720   2.957   2.898
 5397TIP3    H116197   3.790   3.022   2.893
 5397TIP3    H216198   3.661   2.989   2.965
 5398TIP3   OH216199   3.282   2.188   3.607
 5398TIP3    H116200   3.322   2.154   3.688
 5398TIP3    H216201   3.357   2.208   3.551
 5399TIP3   OH216202   3.951   3.693   1.420
 5399TIP3    H116203   3.919   3.613   1.463
 5399TIP3    H216204   3.873   3.746   1.406
 5400TIP3   OH216205   0.682   0.001   1.002
 5400TIP3    H116206   0.761  -0.020   0.952
 5400TIP3    H216207   0.698   0.090   1.034
 5401TIP3   OH216208   4.074   2.984   4.719
 5401TIP3    H116209   4.140   2.916   4.703
 5401TIP3    H216210   4.103   3.028   4.799
 5402TIP3   OH216211   5.324   2.058   3.087
 5402TIP3    H116212   5.265   2.110   3.141
 5402TIP3    H216213   5.324   2.102   3.002
 5403TIP3   OH216214   2.831   5.818   2.784
 5403TIP3    H116215   2.804   5.869   2.707
 5403TIP3    H216216   2.795   5.866   2.859
 5404TIP3   OH216217   5.550   1.486   3.168
 5404TIP3    H116218   5.625   1.538   3.139
 5404TIP3    H216219   5.573   1.458   3.257
 5405TIP3   OH216220   5.379   3.978   0.769
 5405TIP3    H116221   5.353   3.903   0.823
 5405TIP3    H216222   5.455   3.948   0.720
 5406TIP3   OH216223   1.997   4.332   1.791
 5406TIP3    H116224   2.054   4.272   1.743
 5406TIP3    H216225   2.011   4.417   1.749
 5407TIP3   OH216226   4.984   5.266   2.323
 5407TIP3    H116227   5.044   5.192   2.331
 5407TIP3    H216228   4.941   5.252   2.238
 5408TIP3   OH216229   3.708   2.459   1.470
 5408TIP3    H116230   3.762   2.436   1.545
 5408TIP3    H216231   3.702   2.554   1.473
 5409TIP3   OH216232   3.773   3.835   1.606
 5409TIP3    H116233   3.808   3.894   1.672
 5409TIP3    H216234   3.723   3.892   1.547
 5410TIP3   OH216235   4.512   3.882   1.603
 5410TIP3    H116236   4.465   3.810   1.644
 5410TIP3    H216237   4.515   3.860   1.510
 5411TIP3   OH216238   5.202   5.458   0.924
 5411TIP3    H116239   5.151   5.377   0.916
 5411TIP3    H216240   5.164   5.517   0.858
 5412TIP3   OH216241   4.941   2.005   5.012
 5412TIP3    H116242   4.956   2.056   5.091
 5412TIP3    H216243   4.876   2.055   4.963
 5413TIP3   OH216244   2.312   5.339   2.102
 5413TIP3    H116245   2.278   5.404   2.041
 5413TIP3    H216246   2.382   5.383   2.149
 5414TIP3   OH216247   5.611   0.211   3.286
 5414TIP3    H116248   5.632   0.153   3.212
 5414TIP3    H216249   5.572   0.288   3.246
 5415TIP3   OH216250   1.265   4.138   0.633
 5415TIP3    H116251   1.218   4.087   0.567
 5415TIP3    H216252   1.353   4.148   0.598
 5416TIP3   OH216253   4.583   1.200   4.732
 5416TIP3    H116254   4.658   1.140   4.733
 5416TIP3    H216255   4.602   1.260   4.660
 5417TIP3   OH216256   4.944   3.715   4.308
 5417TIP3    H116257   5.014   3.752   4.254
 5417TIP3    H216258   4.863   3.740   4.263
 5418TIP3   OH216259   4.510   0.105   0.314
 5418TIP3    H116260   4.468   0.052   0.382
 5418TIP3    H216261   4.603   0.082   0.321
 5419TIP3   OH216262   0.360   2.894   4.759
 5419TIP3    H116263   0.267   2.873   4.751
 5419TIP3    H216264   0.365   2.956   4.831
 5420TIP3   OH216265   5.162   1.834   0.147
 5420TIP3    H116266   5.198   1.770   0.209
 5420TIP3    H216267   5.106   1.889   0.201
 5421TIP3   OH216268   0.042   1.806   1.660
 5421TIP3    H116269   0.053   1.874   1.727
 5421TIP3    H216270   0.079   1.728   1.700
 5422TIP3   OH216271   0.177   5.114   3.497
 5422TIP3    H116272   0.145   5.158   3.418
 5422TIP3    H216273   0.271   5.135   3.500
 5423TIP3   OH216274   2.653   3.448   2.843
 5423TIP3    H116275   2.700   3.531   2.836
 5423TIP3    H216276   2.620   3.432   2.755
 5424TIP3   OH216277   6.256   3.844   5.147
 5424TIP3    H116278   6.352   3.844   5.151
 5424TIP3    H216279   6.230   3.927   5.185
 5425TIP3   OH216280   5.595   1.077   0.322
 5425TIP3    H116281   5.665   1.125   0.366
 5425TIP3    H216282   5.620   0.985   0.330
 5426TIP3   OH216283   0.180   3.814   1.474
 5426TIP3    H116284   0.149   3.771   1.554
 5426TIP3    H216285   0.107   3.868   1.446
 5427TIP3   OH216286   5.949   5.373   4.608
 5427TIP3    H116287   5.920   5.455   4.568
 5427TIP3    H216288   6.038   5.391   4.638
 5428TIP3   OH216289   2.833   2.933   4.696
 5428TIP3    H116290   2.906   2.911   4.639
 5428TIP3    H216291   2.806   2.849   4.734
 5429TIP3   OH216292   1.919   0.727   2.837
 5429TIP3    H116293   1.963   0.732   2.922
 5429TIP3    H216294   1.826   0.737   2.858
 5430TIP3   OH216295   5.502   4.076   4.041
 5430TIP3    H116296   5.575   4.138   4.046
 5430TIP3    H216297   5.424   4.129   4.054
 5431TIP3   OH216298   0.476   2.022   3.999
 5431TIP3    H116299   0.522   1.969   3.935
 5431TIP3    H216300   0.476   2.110   3.962
 5432TIP3   OH216301   1.762   4.311   3.873
 5432TIP3    H116302   1.716   4.252   3.814
 5432TIP3    H216303   1.732   4.285   3.960
 5433TIP3   OH216304   4.321   5.628   2.023
 5433TIP3    H116305   4.295   5.623   2.115
 5433TIP3    H216306   4.288   5.547   1.984
 5434TIP3   OH216307   5.823   1.214   2.006
 5434TIP3    H116308   5.886   1.248   1.942
 5434TIP3    H216309   5.864   1.230   2.090
 5435TIP3   OH216310   0.967   1.369   1.611
 5435TIP3    H116311   0.990   1.399   1.699
 5435TIP3    H216312   0.876   1.397   1.600
 5436TIP3   OH216313   4.516   3.748   0.492
 5436TIP3    H116314   4.600   3.748   0.539
 5436TIP3    H216315   4.452   3.773   0.559
 5437TIP3   OH216316   3.635   3.122   0.104
 5437TIP3    H116317   3.579   3.196   0.082
 5437TIP3    H216318   3.701   3.120   0.035
 5438TIP3   OH216319   0.194   0.052   3.816
 5438TIP3    H116320   0.130   0.020   3.753
 5438TIP3    H216321   0.170   0.144   3.830
 5439TIP3   OH216322   1.351   0.229   1.953
 5439TIP3    H116323   1.295   0.288   2.003
 5439TIP3    H216324   1.294   0.188   1.889
 5440TIP3   OH216325   0.898   3.143   4.487
 5440TIP3    H116326   0.969   3.156   4.423
 5440TIP3    H216327   0.874   3.231   4.514
 5441TIP3   OH216328   2.441   5.003   3.828
 5441TIP3    H116329   2.455   4.913   3.858
 5441TIP3    H216330   2.352   5.003   3.793
 5442TIP3   OH216331   3.994   3.501   4.515
 5442TIP3    H116332   4.037   3.451   4.446
 5442TIP3    H216333   4.029   3.589   4.506
 5443TIP3   OH216334   5.423   3.034   3.639
 5443TIP3    H116335   5.355   3.034   3.705
 5443TIP3    H216336   5.475   3.112   3.658
 5444TIP3   OH216337   5.645   1.400   1.846
 5444TIP3    H116338   5.672   1.321   1.894
 5444TIP3    H216339   5.594   1.367   1.772
 5445TIP3   OH216340   3.647   3.837   0.544
 5445TIP3    H116341   3.690   3.919   0.571
 5445TIP3    H216342   3.610   3.857   0.458
 5446TIP3   OH216343   3.367   3.070   1.304
 5446TIP3    H116344   3.341   3.120   1.228
 5446TIP3    H216345   3.353   3.129   1.378
 5447TIP3   OH216346   1.227   4.979   4.659
 5447TIP3    H116347   1.160   4.979   4.591
 5447TIP3    H216348   1.247   5.072   4.673
 5448TIP3   OH216349   2.236   0.946   2.292
 5448TIP3    H116350   2.190   0.946   2.376
 5448TIP3    H216351   2.266   0.855   2.282
 5449TIP3   OH216352   2.886   4.392   4.343
 5449TIP3    H116353   2.967   4.371   4.389
 5449TIP3    H216354   2.901   4.363   4.254
 5450TIP3   OH216355   5.556   3.702   4.424
 5450TIP3    H116356   5.635   3.755   4.420
 5450TIP3    H216357   5.501   3.735   4.353
 5451TIP3   OH216358   1.773   5.499   3.766
 5451TIP3    H116359   1.734   5.451   3.693
 5451TIP3    H216360   1.858   5.459   3.780
 5452TIP3   OH216361   2.873   0.780   4.785
 5452TIP3    H116362   2.891   0.822   4.701
 5452TIP3    H216363   2.901   0.843   4.851
 5453TIP3   OH216364   3.031   4.425   0.555
 5453TIP3    H116365   3.071   4.385   0.478
 5453TIP3    H216366   3.104   4.467   0.601
 5454TIP3   OH216367   1.323   3.905   4.238
 5454TIP3    H116368   1.377   3.826   4.231
 5454TIP3    H216369   1.384   3.977   4.223
 5455TIP3   OH216370   3.232   2.362   1.665
 5455TIP3    H116371   3.148   2.328   1.636
 5455TIP3    H216372   3.296   2.323   1.606
 5456TIP3   OH216373   0.214   3.404   4.089
 5456TIP3    H116374   0.155   3.387   4.016
 5456TIP3    H216375   0.162   3.387   4.167
 5457TIP3   OH216376   6.022   4.223   2.627
 5457TIP3    H116377   6.116   4.236   2.628
 5457TIP3    H216378   6.010   4.131   2.604
 5458TIP3   OH216379   2.077   5.760   2.098
 5458TIP3    H116380   2.129   5.690   2.059
 5458TIP3    H216381   1.991   5.753   2.055
 5459TIP3   OH216382   0.360   3.994   0.212
 5459TIP3    H116383   0.407   4.078   0.209
 5459TIP3    H216384   0.359   3.971   0.305
 5460TIP3   OH216385   0.295   1.818   3.747
 5460TIP3    H116386   0.251   1.902   3.739
 5460TIP3    H216387   0.325   1.798   3.659
 5461TIP3   OH216388   0.724   0.802   4.504
 5461TIP3    H116389   0.786   0.736   4.476
 5461TIP3    H216390   0.691   0.771   4.588
 5462TIP3   OH216391   4.682   3.803   2.076
 5462TIP3    H116392   4.664   3.882   2.025
 5462TIP3    H216393   4.620   3.806   2.149
 5463TIP3   OH216394   1.963   4.296   4.223
 5463TIP3    H116395   1.894   4.359   4.245
 5463TIP3    H216396   2.044   4.337   4.254
 5464TIP3   OH216397   2.698   5.530   3.194
 5464TIP3    H116398   2.651   5.464   3.143
 5464TIP3    H216399   2.715   5.487   3.278
 5465TIP3   OH216400   4.861   4.693   4.357
 5465TIP3    H116401   4.828   4.743   4.282
 5465TIP3    H216402   4.907   4.619   4.319
 5466TIP3   OH216403   0.049   2.025   1.830
 5466TIP3    H116404   0.064   2.108   1.876
 5466TIP3    H216405   0.081   1.959   1.891
 5467TIP3   OH216406   3.324   4.391   2.173
 5467TIP3    H116407   3.342   4.298   2.156
 5467TIP3    H216408   3.371   4.438   2.104
 5468TIP3   OH216409   2.995   2.364   0.069
 5468TIP3    H116410   3.082   2.324   0.073
 5468TIP3    H216411   2.945   2.306   0.011
 5469TIP3   OH216412   4.870   2.792   5.203
 5469TIP3    H116413   4.854   2.860   5.138
 5469TIP3    H216414   4.865   2.710   5.153
 5470TIP3   OH216415   2.681   2.390   2.650
 5470TIP3    H116416   2.752   2.429   2.599
 5470TIP3    H216417   2.619   2.359   2.585
 5471TIP3   OH216418   3.959   0.610   2.588
 5471TIP3    H116419   4.033   0.656   2.547
 5471TIP3    H216420   3.901   0.680   2.618
 5472TIP3   OH216421   2.933   4.194   1.705
 5472TIP3    H116422   2.970   4.208   1.793
 5472TIP3    H216423   2.983   4.252   1.649
 5473TIP3   OH216424   3.734   5.680   4.394
 5473TIP3    H116425   3.768   5.642   4.474
 5473TIP3    H216426   3.645   5.706   4.415
 5474TIP3   OH216427   3.040   5.163   4.328
 5474TIP3    H116428   3.082   5.106   4.392
 5474TIP3    H216429   3.004   5.235   4.380
 5475TIP3   OH216430   0.297   1.329   3.713
 5475TIP3    H116431   0.246   1.392   3.662
 5475TIP3    H216432   0.232   1.289   3.772
 5476TIP3   OH216433   4.234   1.708   2.140
 5476TIP3    H116434   4.173   1.665   2.200
 5476TIP3    H216435   4.311   1.726   2.194
 5477TIP3   OH216436   0.591   5.029   4.536
 5477TIP3    H116437   0.621   5.117   4.561
 5477TIP3    H216438   0.565   4.988   4.619
 5478TIP3   OH216439   5.476   2.427   3.659
 5478TIP3    H116440   5.528   2.415   3.579
 5478TIP3    H216441   5.405   2.486   3.631
 5479TIP3   OH216442   5.089   0.749   3.094
 5479TIP3    H116443   5.053   0.821   3.146
 5479TIP3    H216444   5.184   0.763   3.097
 5480TIP3   OH216445   5.704   2.604   1.245
 5480TIP3    H116446   5.760   2.678   1.223
 5480TIP3    H216447   5.660   2.582   1.163
 5481TIP3   OH216448   2.093   1.460   2.758
 5481TIP3    H116449   1.999   1.473   2.750
 5481TIP3    H216450   2.128   1.486   2.672
 5482TIP3   OH216451   0.476   3.369   3.115
 5482TIP3    H116452   0.503   3.460   3.103
 5482TIP3    H216453   0.558   3.321   3.130
 5483TIP3   OH216454   5.220   1.199   1.984
 5483TIP3    H116455   5.202   1.292   1.970
 5483TIP3    H216456   5.209   1.185   2.078
 5484TIP3   OH216457   1.546   4.553   3.000
 5484TIP3    H116458   1.465   4.569   2.951
 5484TIP3    H216459   1.537   4.604   3.080
 5485TIP3   OH216460   3.503   2.016   0.449
 5485TIP3    H116461   3.578   2.036   0.505
 5485TIP3    H216462   3.427   2.029   0.506
 5486TIP3   OH216463   5.556   2.688   3.348
 5486TIP3    H116464   5.585   2.607   3.390
 5486TIP3    H216465   5.470   2.705   3.386
 5487TIP3   OH216466   3.117   1.063   3.156
 5487TIP3    H116467   3.152   1.100   3.075
 5487TIP3    H216468   3.109   0.969   3.139
 5488TIP3   OH216469   3.235   2.806   3.865
 5488TIP3    H116470   3.293   2.800   3.941
 5488TIP3    H216471   3.197   2.894   3.871
 5489TIP3   OH216472   0.757   1.212   3.341
 5489TIP3    H116473   0.733   1.282   3.280
 5489TIP3    H216474   0.831   1.168   3.299
 5490TIP3   OH216475   3.300   0.638   0.990
 5490TIP3    H116476   3.213   0.659   0.956
 5490TIP3    H216477   3.310   0.544   0.976
 5491TIP3   OH216478   1.274   0.604   4.323
 5491TIP3    H116479   1.254   0.691   4.358
 5491TIP3    H216480   1.245   0.543   4.390
 5492TIP3   OH216481   0.738   4.410   5.125
 5492TIP3    H116482   0.766   4.418   5.034
 5492TIP3    H216483   0.791   4.339   5.161
 5493TIP3   OH216484   1.744   0.618   3.736
 5493TIP3    H116485   1.681   0.588   3.801
 5493TIP3    H216486   1.777   0.538   3.695
 5494TIP3   OH216487   4.667   3.465   0.310
 5494TIP3    H116488   4.750   3.511   0.320
 5494TIP3    H216489   4.614   3.496   0.383
 5495TIP3   OH216490   6.177   3.542   0.459
 5495TIP3    H116491   6.128   3.481   0.514
 5495TIP3    H216492   6.127   3.624   0.464
 5496TIP3   OH216493   2.329   1.982   2.402
 5496TIP3    H116494   2.363   1.921   2.336
 5496TIP3    H216495   2.241   2.003   2.372
 5497TIP3   OH216496   4.672   3.648   4.352
 5497TIP3    H116497   4.630   3.734   4.350
 5497TIP3    H216498   4.677   3.625   4.444
 5498TIP3   OH216499   6.239   3.828   1.032
 5498TIP3    H116500   6.212   3.786   1.113
 5498TIP3    H216501   6.174   3.897   1.018
 5499TIP3   OH216502   3.787   0.536   3.507
 5499TIP3    H116503   3.876   0.565   3.488
 5499TIP3    H216504   3.737   0.617   3.517
 5500TIP3   OH216505   4.343   2.948   0.748
 5500TIP3    H116506   4.404   2.878   0.727
 5500TIP3    H216507   4.274   2.939   0.682
 5501TIP3   OH216508   5.150   4.613   4.861
 5501TIP3    H116509   5.117   4.624   4.771
 5501TIP3    H216510   5.148   4.701   4.898
 5502TIP3   OH216511   5.279   1.532   4.477
 5502TIP3    H116512   5.321   1.615   4.501
 5502TIP3    H216513   5.210   1.521   4.542
 5503TIP3   OH216514   5.803   2.453   4.162
 5503TIP3    H116515   5.891   2.489   4.172
 5503TIP3    H216516   5.780   2.472   4.071
 5504TIP3   OH216517   3.331   4.894   3.190
 5504TIP3    H116518   3.300   4.972   3.236
 5504TIP3    H216519   3.277   4.888   3.112
 5505TIP3   OH216520   5.579   5.726   3.805
 5505TIP3    H116521   5.516   5.796   3.827
 5505TIP3    H216522   5.651   5.772   3.762
 5506TIP3   OH216523   5.780   3.031   3.126
 5506TIP3    H116524   5.737   2.948   3.143
 5506TIP3    H216525   5.714   3.097   3.144
 5507TIP3   OH216526   1.920   1.181   0.020
 5507TIP3    H116527   1.875   1.186  -0.064
 5507TIP3    H216528   1.869   1.236   0.079
 5508TIP3   OH216529   5.987   5.098   2.320
 5508TIP3    H116530   6.050   5.052   2.264
 5508TIP3    H216531   6.039   5.130   2.394
 5509TIP3   OH216532   6.112   4.512   0.738
 5509TIP3    H116533   6.162   4.450   0.684
 5509TIP3    H216534   6.054   4.556   0.676
 5510TIP3   OH216535   5.830   1.316   2.569
 5510TIP3    H116536   5.828   1.312   2.665
 5510TIP3    H216537   5.835   1.224   2.542
 5511TIP3   OH216538   1.056   1.881   1.633
 5511TIP3    H116539   1.008   1.800   1.617
 5511TIP3    H216540   1.039   1.902   1.725
 5512TIP3   OH216541   0.503   0.339   1.000
 5512TIP3    H116542   0.556   0.290   1.063
 5512TIP3    H216543   0.545   0.425   0.995
 5513TIP3   OH216544   0.311   2.009   0.575
 5513TIP3    H116545   0.251   1.972   0.640
 5513TIP3    H216546   0.259   2.077   0.532
 5514TIP3   OH216547   4.591   5.987   5.187
 5514TIP3    H116548   4.624   5.912   5.236
 5514TIP3    H216549   4.667   6.020   5.140
 5515TIP3   OH216550   2.844   1.703   3.474
 5515TIP3    H116551   2.759   1.721   3.514
 5515TIP3    H216552   2.843   1.609   3.457
 5516TIP3   OH216553   1.788   0.116   2.567
 5516TIP3    H116554   1.736   0.068   2.503
 5516TIP3    H216555   1.762   0.208   2.556
 5517TIP3   OH216556   4.402   3.113   2.326
 5517TIP3    H116557   4.447   3.184   2.280
 5517TIP3    H216558   4.408   3.137   2.418
 5518TIP3   OH216559   5.871   3.993   2.360
 5518TIP3    H116560   5.951   4.043   2.346
 5518TIP3    H216561   5.826   3.995   2.275
 5519TIP3   OH216562   2.290   1.500   0.531
 5519TIP3    H116563   2.364   1.477   0.475
 5519TIP3    H216564   2.327   1.505   0.619
 5520TIP3   OH216565   1.302   5.918   4.037
 5520TIP3    H116566   1.384   5.869   4.048
 5520TIP3    H216567   1.276   5.942   4.126
 5521TIP3   OH216568   0.741   3.349   2.339
 5521TIP3    H116569   0.828   3.372   2.370
 5521TIP3    H216570   0.693   3.432   2.337
 5522TIP3   OH216571   5.953   2.543   2.485
 5522TIP3    H116572   5.878   2.603   2.493
 5522TIP3    H216573   6.026   2.600   2.461
 5523TIP3   OH216574  -0.017   3.065   0.741
 5523TIP3    H116575  -0.105   3.030   0.756
 5523TIP3    H216576   0.010   3.028   0.657
 5524TIP3   OH216577   2.805   2.516   1.809
 5524TIP3    H116578   2.791   2.601   1.852
 5524TIP3    H216579   2.871   2.473   1.862
 5525TIP3   OH216580   3.449   1.131   4.170
 5525TIP3    H116581   3.538   1.131   4.135
 5525TIP3    H216582   3.409   1.210   4.133
 5526TIP3   OH216583   0.287   2.053   2.856
 5526TIP3    H116584   0.244   2.120   2.803
 5526TIP3    H216585   0.380   2.066   2.839
 5527TIP3   OH216586   0.150   2.669   0.876
 5527TIP3    H116587   0.194   2.587   0.901
 5527TIP3    H216588   0.061   2.660   0.910
 5528TIP3   OH216589   6.279   4.802   4.405
 5528TIP3    H116590   6.363   4.837   4.432
 5528TIP3    H216591   6.236   4.874   4.359
 5529TIP3   OH216592   1.813   1.034   2.301
 5529TIP3    H116593   1.835   0.991   2.384
 5529TIP3    H216594   1.844   1.124   2.312
 5530TIP3   OH216595   2.829   2.454   3.239
 5530TIP3    H116596   2.743   2.496   3.235
 5530TIP3    H216597   2.816   2.380   3.298
 5531TIP3   OH216598   0.879   0.836   4.815
 5531TIP3    H116599   0.873   0.931   4.820
 5531TIP3    H216600   0.790   0.807   4.794
 5532TIP3   OH216601   2.884   4.709   0.043
 5532TIP3    H116602   2.802   4.696  -0.005
 5532TIP3    H216603   2.890   4.803   0.056
 5533TIP3   OH216604   6.238   0.191   4.441
 5533TIP3    H116605   6.192   0.273   4.423
 5533TIP3    H216606   6.328   0.208   4.412
 5534TIP3   OH216607   1.385   2.435   2.123
 5534TIP3    H116608   1.370   2.489   2.045
 5534TIP3    H216609   1.310   2.376   2.128
 5535TIP3   OH216610   0.963   3.932   1.603
 5535TIP3    H116611   0.988   3.977   1.683
 5535TIP3    H216612   0.876   3.897   1.620
 5536TIP3   OH216613   6.151   1.694   2.752
 5536TIP3    H116614   6.089   1.753   2.708
 5536TIP3    H216615   6.134   1.608   2.715
 5537TIP3   OH216616   0.013   2.850   4.377
 5537TIP3    H116617  -0.041   2.914   4.329
 5537TIP3    H216618   0.042   2.898   4.455
 5538TIP3   OH216619   3.872   1.209   4.583
 5538TIP3    H116620   3.807   1.154   4.540
 5538TIP3    H216621   3.918   1.252   4.511
 5539TIP3   OH216622   4.241   4.110   3.977
 5539TIP3    H116623   4.302   4.122   3.904
 5539TIP3    H216624   4.236   4.015   3.988
 5540TIP3   OH216625   2.493   4.009  -0.055
 5540TIP3    H116626   2.562   3.988   0.007
 5540TIP3    H216627   2.422   4.046  -0.001
 5541TIP3   OH216628   1.280   0.321   0.852
 5541TIP3    H116629   1.357   0.348   0.802
 5541TIP3    H216630   1.217   0.392   0.841
 5542TIP3   OH216631   2.949   0.778   3.959
 5542TIP3    H116632   2.893   0.811   3.889
 5542TIP3    H216633   3.008   0.850   3.979
 5543TIP3   OH216634   5.478   1.715   0.480
 5543TIP3    H116635   5.539   1.643   0.494
 5543TIP3    H216636   5.458   1.711   0.386
 5544TIP3   OH216637   1.957   1.767   3.345
 5544TIP3    H116638   2.005   1.848   3.365
 5544TIP3    H216639   1.989   1.704   3.409
 5545TIP3   OH216640   5.024   4.654   1.419
 5545TIP3    H116641   5.065   4.569   1.403
 5545TIP3    H216642   5.071   4.690   1.494
 5546TIP3   OH216643   1.406   3.563   2.267
 5546TIP3    H116644   1.359   3.491   2.225
 5546TIP3    H216645   1.407   3.540   2.360
 5547TIP3   OH216646   4.899   1.589   1.399
 5547TIP3    H116647   4.851   1.533   1.338
 5547TIP3    H216648   4.857   1.573   1.484
 5548TIP3   OH216649   2.644   4.911   4.897
 5548TIP3    H116650   2.637   4.870   4.811
 5548TIP3    H216651   2.619   5.002   4.883
 5549TIP3   OH216652   0.464   3.131   3.749
 5549TIP3    H116653   0.534   3.160   3.807
 5549TIP3    H216654   0.384   3.144   3.799
 5550TIP3   OH216655   2.193   2.996   4.511
 5550TIP3    H116656   2.263   2.942   4.475
 5550TIP3    H216657   2.118   2.980   4.453
 5551TIP3   OH216658   2.081   0.477   4.582
 5551TIP3    H116659   1.998   0.522   4.568
 5551TIP3    H216660   2.098   0.432   4.500
 5552TIP3   OH216661   3.684   4.604   3.691
 5552TIP3    H116662   3.778   4.587   3.690
 5552TIP3    H216663   3.645   4.521   3.716
 5553TIP3   OH216664   3.316   2.240   2.500
 5553TIP3    H116665   3.372   2.163   2.515
 5553TIP3    H216666   3.248   2.233   2.568
 5554TIP3   OH216667   4.215   0.562   3.736
 5554TIP3    H116668   4.271   0.486   3.721
 5554TIP3    H216669   4.129   0.535   3.705
 5555TIP3   OH216670   1.496   5.567   3.551
 5555TIP3    H116671   1.498   5.474   3.576
 5555TIP3    H216672   1.510   5.566   3.456
 5556TIP3   OH216673   3.607   2.667   2.202
 5556TIP3    H116674   3.533   2.651   2.145
 5556TIP3    H216675   3.586   2.749   2.247
 5557TIP3   OH216676   0.545   4.802   1.829
 5557TIP3    H116677   0.511   4.891   1.826
 5557TIP3    H216678   0.600   4.800   1.908
 5558TIP3   OH216679   4.212   5.016   2.711
 5558TIP3    H116680   4.282   5.007   2.646
 5558TIP3    H216681   4.134   5.036   2.659
 5559TIP3   OH216682   0.475   4.331   1.069
 5559TIP3    H116683   0.559   4.376   1.071
 5559TIP3    H216684   0.478   4.270   1.142
 5560TIP3   OH216685   3.335   3.247   1.091
 5560TIP3    H116686   3.348   3.221   1.000
 5560TIP3    H216687   3.294   3.333   1.086
 5561TIP3   OH216688   0.071   3.846   4.120
 5561TIP3    H116689   0.140   3.791   4.156
 5561TIP3    H216690  -0.002   3.785   4.105
 5562TIP3   OH216691   2.860   3.191   2.227
 5562TIP3    H116692   2.946   3.219   2.196
 5562TIP3    H216693   2.841   3.250   2.301
 5563TIP3   OH216694   1.886   4.373   2.530
 5563TIP3    H116695   1.959   4.389   2.470
 5563TIP3    H216696   1.875   4.278   2.530
 5564TIP3   OH216697   5.076   2.688   4.001
 5564TIP3    H116698   5.129   2.609   4.016
 5564TIP3    H216699   5.021   2.696   4.079
 5565TIP3   OH216700   2.494   1.835   1.735
 5565TIP3    H116701   2.437   1.825   1.660
 5565TIP3    H216702   2.570   1.883   1.701
 5566TIP3   OH216703   3.697   0.499   5.105
 5566TIP3    H116704   3.749   0.516   5.184
 5566TIP3    H216705   3.699   0.581   5.057
 5567TIP3   OH216706   4.426   3.255   0.193
 5567TIP3    H116707   4.490   3.312   0.236
 5567TIP3    H216708   4.412   3.295   0.107
 5568TIP3   OH216709   2.275   1.222   3.154
 5568TIP3    H116710   2.223   1.148   3.123
 5568TIP3    H216711   2.211   1.280   3.196
 5569TIP3   OH216712   3.946   1.805   0.170
 5569TIP3    H116713   3.875   1.828   0.230
 5569TIP3    H216714   3.950   1.709   0.173
 5570TIP3   OH216715   0.373   3.138   1.577
 5570TIP3    H116716   0.390   3.068   1.514
 5570TIP3    H216717   0.324   3.204   1.527
 5571TIP3   OH216718   2.483   2.942   3.470
 5571TIP3    H116719   2.443   2.856   3.481
 5571TIP3    H216720   2.558   2.926   3.411
 5572TIP3   OH216721   5.253   3.853   1.016
 5572TIP3    H116722   5.241   3.780   1.077
 5572TIP3    H216723   5.243   3.932   1.070
 5573TIP3   OH216724   5.441   0.842   4.539
 5573TIP3    H116725   5.463   0.927   4.577
 5573TIP3    H216726   5.456   0.853   4.445
 5574TIP3   OH216727   6.214   4.298   5.137
 5574TIP3    H116728   6.163   4.239   5.192
 5574TIP3    H216729   6.157   4.374   5.125
 5575TIP3   OH216730   5.412   5.883   2.027
 5575TIP3    H116731   5.464   5.808   1.998
 5575TIP3    H216732   5.475   5.942   2.067
 5576TIP3   OH216733   1.442   3.128   0.175
 5576TIP3    H116734   1.415   3.038   0.160
 5576TIP3    H216735   1.474   3.129   0.266
 5577TIP3   OH216736   0.443   1.999   2.124
 5577TIP3    H116737   0.474   2.084   2.154
 5577TIP3    H216738   0.460   1.998   2.030
 5578TIP3   OH216739   5.538   1.496   2.714
 5578TIP3    H116740   5.604   1.565   2.719
 5578TIP3    H216741   5.586   1.419   2.683
 5579TIP3   OH216742   1.903   1.107   3.191
 5579TIP3    H116743   1.982   1.073   3.148
 5579TIP3    H216744   1.890   1.194   3.153
 5580TIP3   OH216745   0.425   6.014   2.364
 5580TIP3    H116746   0.411   5.919   2.363
 5580TIP3    H216747   0.342   6.051   2.336
 5581TIP3   OH216748   5.706   3.787   2.425
 5581TIP3    H116749   5.687   3.787   2.331
 5581TIP3    H216750   5.790   3.832   2.432
 5582TIP3   OH216751   1.555   3.995   2.847
 5582TIP3    H116752   1.646   4.015   2.825
 5582TIP3    H216753   1.513   4.080   2.855
 5583TIP3   OH216754   2.219   5.613   1.028
 5583TIP3    H116755   2.263   5.577   1.106
 5583TIP3    H216756   2.194   5.536   0.977
 5584TIP3   OH216757   1.127   0.337   4.096
 5584TIP3    H116758   1.184   0.264   4.122
 5584TIP3    H216759   1.181   0.389   4.036
 5585TIP3   OH216760   1.816   3.424   2.323
 5585TIP3    H116761   1.736   3.400   2.370
 5585TIP3    H216762   1.787   3.443   2.234
 5586TIP3   OH216763   5.382   3.862   4.242
 5586TIP3    H116764   5.287   3.874   4.240
 5586TIP3    H216765   5.415   3.940   4.286
 5587TIP3   OH216766   2.193   4.188   4.040
 5587TIP3    H116767   2.249   4.201   3.963
 5587TIP3    H216768   2.105   4.177   4.003
 5588TIP3   OH216769   6.106   3.308   1.588
 5588TIP3    H116770   6.180   3.252   1.613
 5588TIP3    H216771   6.030   3.267   1.630
 5589TIP3   OH216772   5.950   5.017   1.902
 5589TIP3    H116773   6.012   5.018   1.975
 5589TIP3    H216774   5.942   4.925   1.878
 5590TIP3   OH216775   1.276   1.049   2.347
 5590TIP3    H116776   1.233   1.024   2.429
 5590TIP3    H216777   1.281   1.145   2.350
 5591TIP3   OH216778   5.051   1.628   1.825
 5591TIP3    H116779   5.138   1.661   1.804
 5591TIP3    H216780   5.062   1.581   1.907
 5592TIP3   OH216781   3.828   1.261   1.350
 5592TIP3    H116782   3.810   1.181   1.301
 5592TIP3    H216783   3.911   1.293   1.313
 5593TIP3   OH216784   2.067   5.603   2.714
 5593TIP3    H116785   2.096   5.513   2.727
 5593TIP3    H216786   1.975   5.603   2.740
 5594TIP3   OH216787   5.670   1.659   4.085
 5594TIP3    H116788   5.736   1.656   4.155
 5594TIP3    H216789   5.586   1.654   4.131
 5595TIP3   OH216790   5.207   3.337   0.091
 5595TIP3    H116791   5.281   3.333   0.153
 5595TIP3    H216792   5.228   3.410   0.034
 5596TIP3   OH216793   4.622   1.933   0.224
 5596TIP3    H116794   4.656   2.021   0.207
 5596TIP3    H216795   4.636   1.886   0.142
 5597TIP3   OH216796   5.325   3.333   0.585
 5597TIP3    H116797   5.378   3.404   0.622
 5597TIP3    H216798   5.236   3.352   0.614
 5598TIP3   OH216799   3.887   5.916   4.347
 5598TIP3    H116800   3.823   5.847   4.364
 5598TIP3    H216801   3.884   5.929   4.253
 5599TIP3   OH216802   4.994   3.295   0.510
 5599TIP3    H116803   5.023   3.263   0.424
 5599TIP3    H216804   4.923   3.356   0.490
 5600TIP3   OH216805   0.408   4.667   3.989
 5600TIP3    H116806   0.344   4.642   3.923
 5600TIP3    H216807   0.362   4.728   4.047
 5601TIP3   OH216808   0.552   1.797   1.432
 5601TIP3    H116809   0.524   1.707   1.418
 5601TIP3    H216810   0.471   1.848   1.434
 5602TIP3   OH216811   2.493   3.244   2.962
 5602TIP3    H116812   2.542   3.323   2.942
 5602TIP3    H216813   2.406   3.275   2.986
 5603TIP3   OH216814   5.880   3.725   1.176
 5603TIP3    H116815   5.829   3.802   1.203
 5603TIP3    H216816   5.868   3.662   1.247
 5604TIP3   OH216817   4.848   0.057   1.693
 5604TIP3    H116818   4.912   0.061   1.623
 5604TIP3    H216819   4.811   0.145   1.697
 5605TIP3   OH216820   6.323   2.782   2.949
 5605TIP3    H116821   6.355   2.873   2.947
 5605TIP3    H216822   6.247   2.785   3.008
 5606TIP3   OH216823   2.390   2.170   4.129
 5606TIP3    H116824   2.341   2.147   4.050
 5606TIP3    H216825   2.381   2.092   4.185
 5607TIP3   OH216826   3.817   5.427   0.216
 5607TIP3    H116827   3.772   5.431   0.300
 5607TIP3    H216828   3.909   5.411   0.238
 5608TIP3   OH216829   4.201   0.910   4.866
 5608TIP3    H116830   4.173   0.994   4.904
 5608TIP3    H216831   4.275   0.933   4.810
 5609TIP3   OH216832   0.560   0.682   2.884
 5609TIP3    H116833   0.615   0.743   2.834
 5609TIP3    H216834   0.535   0.615   2.821
 5610TIP3   OH216835   2.408   2.146   1.407
 5610TIP3    H116836   2.413   2.075   1.343
 5610TIP3    H216837   2.327   2.192   1.385
 5611TIP3   OH216838   0.351   1.497   2.225
 5611TIP3    H116839   0.301   1.451   2.293
 5611TIP3    H216840   0.394   1.569   2.272
 5612TIP3   OH216841   0.550   3.627   2.917
 5612TIP3    H116842   0.487   3.575   2.866
 5612TIP3    H216843   0.630   3.576   2.916
 5613TIP3   OH216844   1.733   1.898   5.115
 5613TIP3    H116845   1.638   1.895   5.119
 5613TIP3    H216846   1.762   1.906   5.205
 5614TIP3   OH216847   3.212   4.642   0.275
 5614TIP3    H116848   3.179   4.612   0.190
 5614TIP3    H216849   3.197   4.736   0.275
 5615TIP3   OH216850   3.174   1.235   2.126
 5615TIP3    H116851   3.204   1.295   2.195
 5615TIP3    H216852   3.251   1.180   2.108
 5616TIP3   OH216853   0.574   4.252   1.947
 5616TIP3    H116854   0.554   4.248   1.854
 5616TIP3    H216855   0.643   4.318   1.955
 5617TIP3   OH216856   2.854   1.075   4.477
 5617TIP3    H116857   2.779   1.089   4.535
 5617TIP3    H216858   2.930   1.104   4.528
 5618TIP3   OH216859   3.079   2.863   3.222
 5618TIP3    H116860   2.989   2.830   3.224
 5618TIP3    H216861   3.119   2.828   3.302
 5619TIP3   OH216862   5.467   3.902   2.489
 5619TIP3    H116863   5.547   3.850   2.483
 5619TIP3    H216864   5.420   3.885   2.407
 5620TIP3   OH216865   0.397   5.648   5.189
 5620TIP3    H116866   0.408   5.738   5.160
 5620TIP3    H216867   0.442   5.595   5.123
 5621TIP3   OH216868   0.856   3.657   4.606
 5621TIP3    H116869   0.822   3.746   4.618
 5621TIP3    H216870   0.948   3.669   4.585
 5622TIP3   OH216871   4.914   2.506   1.056
 5622TIP3    H116872   4.842   2.453   1.023
 5622TIP3    H216873   4.923   2.577   0.992
 5623TIP3   OH216874   5.793   3.129   3.745
 5623TIP3    H116875   5.848   3.206   3.763
 5623TIP3    H216876   5.738   3.156   3.671
 5624TIP3   OH216877   4.545   5.336   3.047
 5624TIP3    H116878   4.522   5.251   3.084
 5624TIP3    H216879   4.460   5.376   3.025
 5625TIP3   OH216880   1.404   5.526   0.633
 5625TIP3    H116881   1.453   5.461   0.683
 5625TIP3    H216882   1.458   5.543   0.556
 5626TIP3   OH216883   0.076   0.602   4.147
 5626TIP3    H116884   0.155   0.633   4.103
 5626TIP3    H216885   0.084   0.507   4.146
 5627TIP3   OH216886   4.885   5.271   2.024
 5627TIP3    H116887   4.838   5.354   2.030
 5627TIP3    H216888   4.975   5.296   2.001
 5628TIP3   OH216889   3.290   3.522   1.087
 5628TIP3    H116890   3.228   3.542   1.017
 5628TIP3    H216891   3.339   3.604   1.099
 5629TIP3   OH216892   4.080   5.610   2.459
 5629TIP3    H116893   4.149   5.675   2.450
 5629TIP3    H216894   4.056   5.614   2.552
 5630TIP3   OH216895   3.170   1.336   1.376
 5630TIP3    H116896   3.106   1.401   1.349
 5630TIP3    H216897   3.137   1.303   1.460
 5631TIP3   OH216898   1.589   1.940   1.654
 5631TIP3    H116899   1.612   2.013   1.711
 5631TIP3    H216900   1.517   1.974   1.600
 5632TIP3   OH216901   5.148   5.281   3.413
 5632TIP3    H116902   5.109   5.196   3.434
 5632TIP3    H216903   5.148   5.283   3.317
 5633TIP3   OH216904   2.289   1.809   4.947
 5633TIP3    H116905   2.219   1.854   4.996
 5633TIP3    H216906   2.247   1.782   4.865
 5634TIP3   OH216907   4.342   0.542   3.330
 5634TIP3    H116908   4.431   0.504   3.327
 5634TIP3    H216909   4.307   0.524   3.243
 5635TIP3   OH216910   3.538   1.565   2.647
 5635TIP3    H116911   3.448   1.584   2.619
 5635TIP3    H216912   3.574   1.650   2.671
 5636TIP3   OH216913   5.892   3.015   1.546
 5636TIP3    H116914   5.941   3.007   1.464
 5636TIP3    H216915   5.931   2.949   1.603
 5637TIP3   OH216916   4.193   3.627   4.267
 5637TIP3    H116917   4.208   3.618   4.361
 5637TIP3    H216918   4.132   3.700   4.259
 5638TIP3   OH216919   0.051  -0.048   1.799
 5638TIP3    H116920   0.070   0.033   1.752
 5638TIP3    H216921   0.136  -0.091   1.808
 5639TIP3   OH216922   2.700   5.910   1.978
 5639TIP3    H116923   2.714   5.853   1.902
 5639TIP3    H216924   2.682   5.996   1.941
 5640TIP3   OH216925   3.219   4.910   2.919
 5640TIP3    H116926   3.167   4.958   2.855
 5640TIP3    H216927   3.242   4.828   2.875
 5641TIP3   OH216928   3.734   1.819   3.473
 5641TIP3    H116929   3.733   1.907   3.510
 5641TIP3    H216930   3.694   1.829   3.386
 5642TIP3   OH216931   0.585   0.655   5.013
 5642TIP3    H116932   0.622   0.694   5.092
 5642TIP3    H216933   0.490   0.657   5.028
 5643TIP3   OH216934   2.341   1.731   3.185
 5643TIP3    H116935   2.394   1.655   3.165
 5643TIP3    H216936   2.319   1.721   3.278
 5644TIP3   OH216937   5.792   1.307   2.831
 5644TIP3    H116938   5.786   1.377   2.897
 5644TIP3    H216939   5.763   1.228   2.877
 5645TIP3   OH216940   0.411   0.379   4.343
 5645TIP3    H116941   0.407   0.380   4.247
 5645TIP3    H216942   0.478   0.314   4.363
 5646TIP3   OH216943   2.967   1.361   0.645
 5646TIP3    H116944   2.908   1.412   0.699
 5646TIP3    H216945   3.001   1.423   0.580
 5647TIP3   OH216946   2.068   5.596   0.049
 5647TIP3    H116947   2.152   5.637   0.029
 5647TIP3    H216948   2.082   5.551   0.132
 5648TIP3   OH216949   5.013   1.702   3.809
 5648TIP3    H116950   5.038   1.747   3.728
 5648TIP3    H216951   4.919   1.717   3.816
 5649TIP3   OH216952   4.854   5.289   1.088
 5649TIP3    H116953   4.926   5.294   1.151
 5649TIP3    H216954   4.807   5.372   1.099
 5650TIP3   OH216955   1.639   1.887   1.943
 5650TIP3    H116956   1.648   1.792   1.929
 5650TIP3    H216957   1.630   1.924   1.855
 5651TIP3   OH216958   0.567   4.527   3.344
 5651TIP3    H116959   0.487   4.510   3.393
 5651TIP3    H216960   0.539   4.579   3.269
 5652TIP3   OH216961   2.441   1.827   2.636
 5652TIP3    H116962   2.354   1.812   2.674
 5652TIP3    H216963   2.423   1.852   2.545
 5653TIP3   OH216964   5.855   2.400   2.693
 5653TIP3    H116965   5.845   2.472   2.755
 5653TIP3    H216966   5.895   2.439   2.616
 5654TIP3   OH216967   4.450   0.554   1.529
 5654TIP3    H116968   4.474   0.641   1.496
 5654TIP3    H216969   4.389   0.520   1.464
 5655TIP3   OH216970   4.645   1.012   0.377
 5655TIP3    H116971   4.719   0.952   0.365
 5655TIP3    H216972   4.597   0.977   0.452
 5656TIP3   OH216973   2.794   4.045   1.551
 5656TIP3    H116974   2.859   4.079   1.612
 5656TIP3    H216975   2.747   4.122   1.520
 5657TIP3   OH216976   4.283   1.820   4.663
 5657TIP3    H116977   4.315   1.842   4.575
 5657TIP3    H216978   4.257   1.728   4.657
 5658TIP3   OH216979   0.689   2.961   1.433
 5658TIP3    H116980   0.616   2.899   1.432
 5658TIP3    H216981   0.677   3.011   1.514
 5659TIP3   OH216982   0.185   2.888   2.164
 5659TIP3    H116983   0.203   2.979   2.191
 5659TIP3    H216984   0.208   2.836   2.241
 5660TIP3   OH216985   3.844   5.562   4.009
 5660TIP3    H116986   3.851   5.595   4.099
 5660TIP3    H216987   3.752   5.574   3.986
 5661TIP3   OH216988   5.169   3.247   1.277
 5661TIP3    H116989   5.141   3.223   1.365
 5661TIP3    H216990   5.120   3.189   1.219
 5662TIP3   OH216991   2.732   5.842   1.187
 5662TIP3    H116992   2.795   5.785   1.230
 5662TIP3    H216993   2.655   5.786   1.174
 5663TIP3   OH216994   1.022   0.351   3.392
 5663TIP3    H116995   1.108   0.372   3.428
 5663TIP3    H216996   0.982   0.436   3.374
 5664TIP3   OH216997   4.398   4.993   2.525
 5664TIP3    H116998   4.406   4.908   2.481
 5664TIP3    H216999   4.418   5.057   2.457
 5665TIP3   OH217000   0.432   1.177   0.408
 5665TIP3    H117001   0.371   1.222   0.351
 5665TIP3    H217002   0.454   1.096   0.361
 5666TIP3   OH217003   3.408   5.491   2.214
 5666TIP3    H117004   3.459   5.449   2.283
 5666TIP3    H217005   3.471   5.546   2.168
 5667TIP3   OH217006   3.191   6.005   1.470
 5667TIP3    H117007   3.217   6.069   1.403
 5667TIP3    H217008   3.243   5.927   1.449
 5668TIP3   OH217009   6.062   3.400   2.845
 5668TIP3    H117010   6.136   3.371   2.897
 5668TIP3    H217011   6.100   3.431   2.763
 5669TIP3   OH217012   0.701   1.441   1.540
 5669TIP3    H117013   0.678   1.369   1.481
 5669TIP3    H217014   0.631   1.443   1.604
 5670TIP3   OH217015   2.480   2.182   0.537
 5670TIP3    H117016   2.531   2.111   0.498
 5670TIP3    H217017   2.433   2.140   0.610
 5671TIP3   OH217018   0.447   3.462   1.754
 5671TIP3    H117019   0.437   3.528   1.686
 5671TIP3    H217020   0.525   3.413   1.729
 5672TIP3   OH217021   5.147   4.662   0.906
 5672TIP3    H117022   5.093   4.599   0.954
 5672TIP3    H217023   5.235   4.651   0.942
 5673TIP3   OH217024   4.142   3.306   2.168
 5673TIP3    H117025   4.193   3.378   2.204
 5673TIP3    H217026   4.057   3.313   2.211
 5674TIP3   OH217027   1.003   0.520   2.624
 5674TIP3    H117028   0.975   0.610   2.634
 5674TIP3    H217029   0.995   0.482   2.711
 5675TIP3   OH217030   4.940   2.212   0.036
 5675TIP3    H117031   4.993   2.159   0.096
 5675TIP3    H217032   4.851   2.208   0.072
 5676TIP3   OH217033   3.444   4.911   2.547
 5676TIP3    H117034   3.467   4.865   2.627
 5676TIP3    H217035   3.427   5.001   2.575
 5677TIP3   OH217036   3.784   4.328   2.267
 5677TIP3    H117037   3.818   4.417   2.271
 5677TIP3    H217038   3.732   4.318   2.346
 5678TIP3   OH217039   0.293   3.363   1.428
 5678TIP3    H117040   0.292   3.456   1.404
 5678TIP3    H217041   0.204   3.332   1.411
 5679TIP3   OH217042   5.764   2.865   2.788
 5679TIP3    H117043   5.776   2.772   2.807
 5679TIP3    H217044   5.669   2.878   2.792
 5680TIP3   OH217045   1.582   2.014   0.310
 5680TIP3    H117046   1.550   2.048   0.394
 5680TIP3    H217047   1.659   2.066   0.291
 5681TIP3   OH217048   3.106   0.718   0.800
 5681TIP3    H117049   3.123   0.649   0.736
 5681TIP3    H217050   3.048   0.780   0.754
 5682TIP3   OH217051   5.231   5.722   1.480
 5682TIP3    H117052   5.236   5.703   1.573
 5682TIP3    H217053   5.147   5.687   1.452
 5683TIP3   OH217054   2.919   0.308   3.643
 5683TIP3    H117055   2.976   0.292   3.718
 5683TIP3    H217056   2.836   0.266   3.667
 5684TIP3   OH217057   5.835   0.937   0.181
 5684TIP3    H117058   5.819   0.899   0.094
 5684TIP3    H217059   5.784   0.882   0.241
 5685TIP3   OH217060   1.151   3.783   2.041
 5685TIP3    H117061   1.101   3.782   1.959
 5685TIP3    H217062   1.150   3.875   2.068
 5686TIP3   OH217063   2.931   3.080   0.470
 5686TIP3    H117064   3.010   3.125   0.440
 5686TIP3    H217065   2.960   2.989   0.482
 5687TIP3   OH217066   0.620   0.034   3.168
 5687TIP3    H117067   0.619  -0.048   3.118
 5687TIP3    H217068   0.649   0.008   3.256
 5688TIP3   OH217069   2.187   0.261  -0.011
 5688TIP3    H117070   2.109   0.278   0.042
 5688TIP3    H217071   2.245   0.211   0.046
 5689TIP3   OH217072   0.250   1.379   0.569
 5689TIP3    H117073   0.212   1.457   0.527
 5689TIP3    H217074   0.344   1.397   0.572
 5690TIP3   OH217075   2.373   3.867   4.612
 5690TIP3    H117076   2.304   3.921   4.651
 5690TIP3    H217077   2.427   3.928   4.562
 5691TIP3   OH217078   0.679   5.191   0.066
 5691TIP3    H117079   0.751   5.189   0.129
 5691TIP3    H217080   0.612   5.134   0.104
 5692TIP3   OH217081   1.100   0.810   4.646
 5692TIP3    H117082   1.115   0.717   4.634
 5692TIP3    H217083   1.007   0.817   4.667
 5693TIP3   OH217084   1.797   2.748   2.427
 5693TIP3    H117085   1.779   2.714   2.515
 5693TIP3    H217086   1.850   2.681   2.386
 5694TIP3   OH217087   1.681   2.411   0.848
 5694TIP3    H117088   1.694   2.439   0.938
 5694TIP3    H217089   1.601   2.358   0.850
 5695TIP3   OH217090   4.384   1.073   3.104
 5695TIP3    H117091   4.332   1.048   3.180
 5695TIP3    H217092   4.332   1.046   3.028
 5696TIP3   OH217093   5.471   5.855   0.776
 5696TIP3    H117094   5.550   5.905   0.794
 5696TIP3    H217095   5.494   5.798   0.703
 5697TIP3   OH217096   6.039   0.348   2.244
 5697TIP3    H117097   6.119   0.399   2.233
 5697TIP3    H217098   5.972   0.395   2.194
 5698TIP3   OH217099   2.627   5.371   1.106
 5698TIP3    H117100   2.663   5.320   1.033
 5698TIP3    H217101   2.651   5.322   1.184
 5699TIP3   OH217102   3.666   3.705   0.771
 5699TIP3    H117103   3.622   3.768   0.829
 5699TIP3    H217104   3.673   3.750   0.687
 5700TIP3   OH217105   2.909   2.719   3.383
 5700TIP3    H117106   2.881   2.634   3.348
 5700TIP3    H217107   2.832   2.752   3.430
 5701TIP3   OH217108   3.744   4.012   5.125
 5701TIP3    H117109   3.724   4.100   5.156
 5701TIP3    H217110   3.839   4.009   5.118
 5702TIP3   OH217111   0.609   5.022   2.246
 5702TIP3    H117112   0.542   4.954   2.257
 5702TIP3    H217113   0.676   4.999   2.310
 5703TIP3   OH217114   1.743   0.578   0.753
 5703TIP3    H117115   1.757   0.508   0.816
 5703TIP3    H217116   1.688   0.641   0.799
 5704TIP3   OH217117   6.037   3.933   0.048
 5704TIP3    H117118   6.020   3.969  -0.040
 5704TIP3    H217119   6.129   3.953   0.064
 5705TIP3   OH217120   4.596   4.907   0.078
 5705TIP3    H117121   4.555   4.821   0.077
 5705TIP3    H217122   4.690   4.889   0.080
 5706TIP3   OH217123   3.392   2.430   4.861
 5706TIP3    H117124   3.348   2.513   4.881
 5706TIP3    H217125   3.485   2.450   4.866
 5707TIP3   OH217126   5.309   5.276   3.753
 5707TIP3    H117127   5.383   5.331   3.727
 5707TIP3    H217128   5.232   5.328   3.730
 5708TIP3   OH217129   1.624   3.928   2.451
 5708TIP3    H117130   1.562   3.896   2.384
 5708TIP3    H217131   1.665   3.849   2.486
 5709TIP3   OH217132   4.409   4.899   2.114
 5709TIP3    H117133   4.368   4.967   2.169
 5709TIP3    H217134   4.501   4.925   2.111
 5710TIP3   OH217135   1.801   1.120   1.371
 5710TIP3    H117136   1.761   1.055   1.428
 5710TIP3    H217137   1.885   1.141   1.413
 5711TIP3   OH217138   2.104   2.193   3.483
 5711TIP3    H117139   2.057   2.131   3.539
 5711TIP3    H217140   2.060   2.187   3.398
 5712TIP3   OH217141   2.243   4.026   0.088
 5712TIP3    H117142   2.240   3.934   0.117
 5712TIP3    H217143   2.152   4.055   0.091
 5713TIP3   OH217144   3.676   5.847   3.550
 5713TIP3    H117145   3.695   5.756   3.571
 5713TIP3    H217146   3.694   5.895   3.631
 5714TIP3   OH217147   5.570   4.734   1.340
 5714TIP3    H117148   5.605   4.821   1.359
 5714TIP3    H217149   5.476   4.742   1.358
 5715TIP3   OH217150   0.080   4.029   3.627
 5715TIP3    H117151   0.122   4.105   3.588
 5715TIP3    H217152   0.134   4.009   3.703
 5716TIP3   OH217153   2.045   0.575   1.825
 5716TIP3    H117154   1.974   0.514   1.807
 5716TIP3    H217155   2.016   0.658   1.788
 5717TIP3   OH217156   4.786   0.585   3.177
 5717TIP3    H117157   4.862   0.601   3.122
 5717TIP3    H217158   4.756   0.672   3.204
 5718TIP3   OH217159   2.814   4.878   0.366
 5718TIP3    H117160   2.867   4.799   0.379
 5718TIP3    H217161   2.868   4.949   0.401
 5719TIP3   OH217162   3.399   1.315   1.629
 5719TIP3    H117163   3.391   1.393   1.573
 5719TIP3    H217164   3.414   1.349   1.717
 5720TIP3   OH217165   4.863   1.058   0.111
 5720TIP3    H117166   4.859   1.082   0.019
 5720TIP3    H217167   4.778   1.017   0.129
 5721TIP3   OH217168   2.940   3.537   1.562
 5721TIP3    H117169   2.863   3.515   1.615
 5721TIP3    H217170   2.989   3.598   1.616
 5722TIP3   OH217171   3.647   3.689   3.129
 5722TIP3    H117172   3.562   3.658   3.159
 5722TIP3    H217173   3.681   3.741   3.203
 5723TIP3   OH217174   5.441   3.188   1.453
 5723TIP3    H117175   5.532   3.208   1.432
 5723TIP3    H217176   5.392   3.220   1.377
 5724TIP3   OH217177   2.758   4.880   0.906
 5724TIP3    H117178   2.753   4.793   0.866
 5724TIP3    H217179   2.669   4.897   0.937
 5725TIP3   OH217180   0.759   4.487   1.905
 5725TIP3    H117181   0.846   4.509   1.873
 5725TIP3    H217182   0.721   4.571   1.930
 5726TIP3   OH217183   6.210   5.341   3.286
 5726TIP3    H117184   6.207   5.290   3.368
 5726TIP3    H217185   6.197   5.275   3.217
 5727TIP3   OH217186   2.571   0.477   0.968
 5727TIP3    H117187   2.637   0.435   1.024
 5727TIP3    H217188   2.592   0.570   0.970
 5728TIP3   OH217189   0.915   2.759   2.624
 5728TIP3    H117190   0.870   2.705   2.689
 5728TIP3    H217191   0.895   2.717   2.540
 5729TIP3   OH217192   1.745   2.702   1.841
 5729TIP3    H117193   1.816   2.758   1.872
 5729TIP3    H217194   1.784   2.615   1.837
 5730TIP3   OH217195   0.858   0.670   3.554
 5730TIP3    H117196   0.889   0.653   3.465
 5730TIP3    H217197   0.771   0.707   3.542
 5731TIP3   OH217198   5.362   3.713   5.205
 5731TIP3    H117199   5.359   3.707   5.109
 5731TIP3    H217200   5.271   3.706   5.233
 5732TIP3   OH217201   1.363   2.596   2.858
 5732TIP3    H117202   1.328   2.638   2.937
 5732TIP3    H217203   1.301   2.619   2.789
 5733TIP3   OH217204   5.732   4.347   2.430
 5733TIP3    H117205   5.698   4.340   2.341
 5733TIP3    H217206   5.786   4.426   2.429
 5734TIP3   OH217207   4.657   1.222   2.273
 5734TIP3    H117208   4.670   1.204   2.180
 5734TIP3    H217209   4.565   1.247   2.280
 5735TIP3   OH217210   3.380   0.033   1.408
 5735TIP3    H117211   3.455   0.011   1.353
 5735TIP3    H217212   3.341   0.110   1.365
 5736TIP3   OH217213   2.231   4.225   5.007
 5736TIP3    H117214   2.236   4.154   4.943
 5736TIP3    H217215   2.138   4.242   5.016
 5737TIP3   OH217216   0.842   0.181   0.126
 5737TIP3    H117217   0.908   0.250   0.122
 5737TIP3    H217218   0.824   0.171   0.220
 5738TIP3   OH217219   1.168   5.511   2.038
 5738TIP3    H117220   1.101   5.539   1.976
 5738TIP3    H217221   1.223   5.451   1.987
 5739TIP3   OH217222   5.626   3.474   4.595
 5739TIP3    H117223   5.621   3.512   4.683
 5739TIP3    H217224   5.607   3.546   4.536
 5740TIP3   OH217225   5.515   4.168   0.088
 5740TIP3    H117226   5.557   4.216   0.017
 5740TIP3    H217227   5.429   4.143   0.052
 5741TIP3   OH217228   1.793   5.898   1.114
 5741TIP3    H117229   1.851   5.822   1.119
 5741TIP3    H217230   1.827   5.959   1.180
 5742TIP3   OH217231   5.436   5.386   0.807
 5742TIP3    H117232   5.364   5.433   0.848
 5742TIP3    H217233   5.512   5.443   0.822
 5743TIP3   OH217234   5.985   2.830   0.597
 5743TIP3    H117235   5.989   2.826   0.501
 5743TIP3    H217236   6.015   2.744   0.626
 5744TIP3   OH217237   4.883   0.679   5.098
 5744TIP3    H117238   4.824   0.734   5.150
 5744TIP3    H217239   4.840   0.593   5.097
 5745TIP3   OH217240   1.717   0.530   5.026
 5745TIP3    H117241   1.714   0.549   4.932
 5745TIP3    H217242   1.626   0.536   5.054
 5746TIP3   OH217243   5.946   3.776   2.722
 5746TIP3    H117244   5.964   3.689   2.686
 5746TIP3    H217245   6.014   3.789   2.788
 5747TIP3   OH217246   4.158   0.242   4.577
 5747TIP3    H117247   4.204   0.175   4.526
 5747TIP3    H217248   4.188   0.325   4.540
 5748TIP3   OH217249   5.620   5.380   0.177
 5748TIP3    H117250   5.633   5.360   0.269
 5748TIP3    H217251   5.686   5.446   0.157
 5749TIP3   OH217252   5.000   2.680   0.567
 5749TIP3    H117253   5.000   2.765   0.523
 5749TIP3    H217254   4.911   2.670   0.601
 5750TIP3   OH217255   3.812   0.639   4.492
 5750TIP3    H117256   3.812   0.731   4.464
 5750TIP3    H217257   3.871   0.638   4.567
 5751TIP3   OH217258   2.102   5.332   1.463
 5751TIP3    H117259   2.191   5.306   1.438
 5751TIP3    H217260   2.110   5.361   1.554
 5752TIP3   OH217261   3.108   4.248   1.933
 5752TIP3    H117262   3.140   4.202   2.010
 5752TIP3    H217263   3.068   4.328   1.967
 5753TIP3   OH217264   3.304   0.927   2.870
 5753TIP3    H117265   3.378   0.979   2.839
 5753TIP3    H217266   3.331   0.899   2.958
 5754TIP3   OH217267   4.716   1.515   0.382
 5754TIP3    H117268   4.689   1.536   0.471
 5754TIP3    H217269   4.671   1.434   0.361
 5755TIP3   OH217270   1.077   1.564   4.025
 5755TIP3    H117271   1.153   1.580   3.969
 5755TIP3    H217272   1.058   1.471   4.012
 5756TIP3   OH217273   0.120   3.975   1.029
 5756TIP3    H117274   0.059   3.902   1.021
 5756TIP3    H217275   0.137   3.981   1.123
 5757TIP3   OH217276   1.195   2.578   2.645
 5757TIP3    H117277   1.110   2.549   2.678
 5757TIP3    H217278   1.189   2.568   2.550
 5758TIP3   OH217279   5.923   4.105   0.828
 5758TIP3    H117280   5.940   4.127   0.736
 5758TIP3    H217281   5.925   4.189   0.874
 5759TIP3   OH217282   1.165   5.143   2.906
 5759TIP3    H117283   1.169   5.118   2.813
 5759TIP3    H217284   1.248   5.113   2.942
 5760TIP3   OH217285   5.449   3.740   1.946
 5760TIP3    H117286   5.463   3.646   1.959
 5760TIP3    H217287   5.379   3.744   1.881
 5761TIP3   OH217288   0.310   2.045   3.251
 5761TIP3    H117289   0.379   2.110   3.267
 5761TIP3    H217290   0.255   2.049   3.329
 5762TIP3   OH217291   5.694   4.909   1.150
 5762TIP3    H117292   5.685   4.816   1.170
 5762TIP3    H217293   5.634   4.953   1.210
 5763TIP3   OH217294   1.285   4.959   4.153
 5763TIP3    H117295   1.284   5.040   4.203
 5763TIP3    H217296   1.365   4.914   4.181
 5764TIP3   OH217297   0.658   2.692   0.375
 5764TIP3    H117298   0.689   2.752   0.443
 5764TIP3    H217299   0.738   2.663   0.330
 5765TIP3   OH217300   1.854   4.801   2.233
 5765TIP3    H117301   1.852   4.848   2.150
 5765TIP3    H217302   1.810   4.860   2.295
 5766TIP3   OH217303   1.790   3.096   0.867
 5766TIP3    H117304   1.756   3.008   0.850
 5766TIP3    H217305   1.768   3.113   0.958
 5767TIP3   OH217306   0.162   3.216   2.258
 5767TIP3    H117307   0.178   3.250   2.346
 5767TIP3    H217308   0.231   3.256   2.205
 5768TIP3   OH217309   2.049   4.154   2.916
 5768TIP3    H117310   2.103   4.227   2.885
 5768TIP3    H217311   2.111   4.085   2.935
 5769TIP3   OH217312   0.389   5.707   1.323
 5769TIP3    H117313   0.442   5.636   1.360
 5769TIP3    H217314   0.436   5.787   1.344
 5770TIP3   OH217315   5.197   1.802   2.151
 5770TIP3    H117316   5.132   1.751   2.200
 5770TIP3    H217317   5.254   1.736   2.112
 5771TIP3   OH217318   2.079   0.608   2.366
 5771TIP3    H117319   2.129   0.629   2.445
 5771TIP3    H217320   2.133   0.641   2.294
 5772TIP3   OH217321   2.920   5.709   4.887
 5772TIP3    H117322   2.948   5.645   4.952
 5772TIP3    H217323   3.001   5.748   4.854
 5773TIP3   OH217324   6.094   3.122   3.149
 5773TIP3    H117325   6.103   3.099   3.057
 5773TIP3    H217326   6.177   3.095   3.189
 5774TIP3   OH217327   6.155   2.953   1.344
 5774TIP3    H117328   6.235   3.002   1.367
 5774TIP3    H217329   6.187   2.878   1.294
 5775TIP3   OH217330   4.847   2.704   3.759
 5775TIP3    H117331   4.859   2.702   3.854
 5775TIP3    H217332   4.753   2.689   3.746
 5776TIP3   OH217333   2.573   2.855   3.802
 5776TIP3    H117334   2.642   2.879   3.741
 5776TIP3    H217335   2.572   2.760   3.802
 5777TIP3   OH217336   2.998   2.476   2.578
 5777TIP3    H117337   3.014   2.489   2.672
 5777TIP3    H217338   3.002   2.381   2.566
 5778TIP3   OH217339   2.197   0.123   0.252
 5778TIP3    H117340   2.127   0.073   0.293
 5778TIP3    H217341   2.245   0.162   0.325
 5779TIP3   OH217342   1.412   2.637   3.445
 5779TIP3    H117343   1.432   2.588   3.366
 5779TIP3    H217344   1.370   2.717   3.413
 5780TIP3   OH217345   1.125   3.560   4.606
 5780TIP3    H117346   1.180   3.482   4.621
 5780TIP3    H217347   1.150   3.620   4.676
 5781TIP3   OH217348   6.017   5.528   3.547
 5781TIP3    H117349   6.048   5.552   3.460
 5781TIP3    H217350   5.983   5.439   3.537
 5782TIP3   OH217351   3.241   4.668   2.087
 5782TIP3    H117352   3.329   4.643   2.060
 5782TIP3    H217353   3.250   4.695   2.178
 5783TIP3   OH217354   2.111   2.129   4.919
 5783TIP3    H117355   2.181   2.131   4.985
 5783TIP3    H217356   2.146   2.075   4.849
 5784TIP3   OH217357   3.732   4.354   0.488
 5784TIP3    H117358   3.644   4.361   0.526
 5784TIP3    H217359   3.780   4.429   0.523
 5785TIP3   OH217360   2.649   2.461   1.584
 5785TIP3    H117361   2.693   2.497   1.661
 5785TIP3    H217362   2.587   2.398   1.619
 5786TIP3   OH217363   3.069   3.992   4.973
 5786TIP3    H117364   3.039   3.918   5.025
 5786TIP3    H217365   3.123   3.953   4.904
 5787TIP3   OH217366   4.131   3.851   4.017
 5787TIP3    H117367   4.070   3.835   4.089
 5787TIP3    H217368   4.128   3.771   3.964
 5788TIP3   OH217369   1.212   3.824   0.816
 5788TIP3    H117370   1.266   3.900   0.835
 5788TIP3    H217371   1.125   3.847   0.849
 5789TIP3   OH217372   3.898   2.238   3.138
 5789TIP3    H117373   3.975   2.241   3.195
 5789TIP3    H217374   3.864   2.328   3.139
 5790TIP3   OH217375   0.151   1.530   1.324
 5790TIP3    H117376   0.063   1.549   1.291
 5790TIP3    H217377   0.137   1.465   1.394
 5791TIP3   OH217378   3.821   0.177   2.312
 5791TIP3    H117379   3.739   0.129   2.327
 5791TIP3    H217380   3.832   0.230   2.391
 5792TIP3   OH217381   5.954   5.373   0.984
 5792TIP3    H117382   5.969   5.412   0.898
 5792TIP3    H217383   5.891   5.303   0.969
 5793TIP3   OH217384   1.145   5.591   1.377
 5793TIP3    H117385   1.168   5.613   1.468
 5793TIP3    H217386   1.191   5.509   1.360
 5794TIP3   OH217387   5.189   3.104   2.966
 5794TIP3    H117388   5.167   3.197   2.959
 5794TIP3    H217389   5.109   3.063   2.998
 5795TIP3   OH217390   0.647   0.349   4.986
 5795TIP3    H117391   0.722   0.326   4.932
 5795TIP3    H217392   0.685   0.382   5.067
 5796TIP3   OH217393   4.563   4.117   3.319
 5796TIP3    H117394   4.563   4.172   3.397
 5796TIP3    H217395   4.611   4.038   3.346
 5797TIP3   OH217396   5.125   0.035   2.660
 5797TIP3    H117397   5.165  -0.030   2.602
 5797TIP3    H217398   5.199   0.083   2.697
 5798TIP3   OH217399   1.345   1.744   1.722
 5798TIP3    H117400   1.286   1.798   1.670
 5798TIP3    H217401   1.433   1.772   1.697
 5799TIP3   OH217402   3.762   0.002   0.896
 5799TIP3    H117403   3.796  -0.048   0.970
 5799TIP3    H217404   3.829   0.069   0.880
 5800TIP3   OH217405   1.942   3.469   3.537
 5800TIP3    H117406   2.006   3.425   3.592
 5800TIP3    H217407   1.966   3.444   3.448
 5801TIP3   OH217408   3.224   5.159   4.938
 5801TIP3    H117409   3.303   5.126   4.896
 5801TIP3    H217410   3.255   5.194   5.022
 5802TIP3   OH217411   4.411   3.792   1.936
 5802TIP3    H117412   4.391   3.884   1.922
 5802TIP3    H217413   4.409   3.753   1.848
 5803TIP3   OH217414   2.456   4.797   3.317
 5803TIP3    H117415   2.432   4.729   3.254
 5803TIP3    H217416   2.548   4.779   3.338
 5804TIP3   OH217417   5.189   3.507   0.766
 5804TIP3    H117418   5.259   3.570   0.784
 5804TIP3    H217419   5.170   3.467   0.850
 5805TIP3   OH217420   3.150   5.728   0.817
 5805TIP3    H117421   3.144   5.753   0.909
 5805TIP3    H217422   3.152   5.812   0.770
 5806TIP3   OH217423   4.756   1.875   4.590
 5806TIP3    H117424   4.851   1.863   4.599
 5806TIP3    H217425   4.747   1.961   4.548
 5807TIP3   OH217426   3.006   5.591   2.053
 5807TIP3    H117427   2.981   5.679   2.080
 5807TIP3    H217428   3.021   5.544   2.135
 5808TIP3   OH217429   3.357   4.725   0.595
 5808TIP3    H117430   3.323   4.813   0.580
 5808TIP3    H217431   3.289   4.682   0.647
 5809TIP3   OH217432   1.946   1.071   5.025
 5809TIP3    H117433   2.025   1.067   5.080
 5809TIP3    H217434   1.975   1.117   4.946
 5810TIP3   OH217435   4.594   2.258   5.064
 5810TIP3    H117436   4.575   2.179   5.114
 5810TIP3    H217437   4.663   2.231   5.002
 5811TIP3   OH217438   3.533   2.712   3.811
 5811TIP3    H117439   3.476   2.713   3.887
 5811TIP3    H217440   3.509   2.789   3.761
 5812TIP3   OH217441   5.518   4.470   1.776
 5812TIP3    H117442   5.480   4.443   1.692
 5812TIP3    H217443   5.451   4.445   1.841
 5813TIP3   OH217444   0.419   2.530   4.469
 5813TIP3    H117445   0.350   2.596   4.457
 5813TIP3    H217446   0.377   2.461   4.521
 5814TIP3   OH217447   5.740   3.139   1.047
 5814TIP3    H117448   5.686   3.217   1.055
 5814TIP3    H217449   5.828   3.168   1.069
 5815TIP3   OH217450   4.389   0.989   0.242
 5815TIP3    H117451   4.387   0.898   0.211
 5815TIP3    H217452   4.474   0.997   0.285
 5816TIP3   OH217453   3.846   3.943   2.740
 5816TIP3    H117454   3.921   3.906   2.787
 5816TIP3    H217455   3.851   4.037   2.757
 5817TIP3   OH217456   3.577   0.547   4.585
 5817TIP3    H117457   3.522   0.578   4.513
 5817TIP3    H217458   3.664   0.581   4.564
 5818TIP3   OH217459   2.598   2.470   0.291
 5818TIP3    H117460   2.527   2.408   0.272
 5818TIP3    H217461   2.619   2.508   0.205
 5819TIP3   OH217462   2.470   4.575   2.077
 5819TIP3    H117463   2.474   4.626   1.996
 5819TIP3    H217464   2.401   4.617   2.129
 5820TIP3   OH217465   1.680   4.525   0.951
 5820TIP3    H117466   1.643   4.479   0.876
 5820TIP3    H217467   1.761   4.477   0.971
 5821TIP3   OH217468   1.162   2.846   3.580
 5821TIP3    H117469   1.234   2.908   3.582
 5821TIP3    H217470   1.088   2.895   3.545
 5822TIP3   OH217471   4.544   4.161   4.765
 5822TIP3    H117472   4.565   4.252   4.741
 5822TIP3    H217473   4.460   4.144   4.723
 5823TIP3   OH217474   5.607   2.082   0.376
 5823TIP3    H117475   5.524   2.122   0.347
 5823TIP3    H217476   5.673   2.149   0.360
 5824TIP3   OH217477   3.929   0.416   2.776
 5824TIP3    H117478   3.853   0.448   2.825
 5824TIP3    H217479   3.966   0.494   2.735
 5825TIP3   OH217480   1.500   0.495   4.583
 5825TIP3    H117481   1.514   0.408   4.546
 5825TIP3    H217482   1.532   0.555   4.516
 5826TIP3   OH217483   0.160   1.556   1.755
 5826TIP3    H117484   0.136   1.494   1.823
 5826TIP3    H217485   0.249   1.583   1.776
 5827TIP3   OH217486   0.851   1.392   3.118
 5827TIP3    H117487   0.811   1.344   3.045
 5827TIP3    H217488   0.886   1.471   3.078
 5828TIP3   OH217489   4.354   4.431   4.698
 5828TIP3    H117490   4.356   4.335   4.691
 5828TIP3    H217491   4.263   4.452   4.719
 5829TIP3   OH217492   2.651   0.644   3.554
 5829TIP3    H117493   2.705   0.620   3.478
 5829TIP3    H217494   2.578   0.694   3.517
 5830TIP3   OH217495   2.145   0.471   0.321
 5830TIP3    H117496   2.198   0.550   0.334
 5830TIP3    H217497   2.095   0.463   0.402
 5831TIP3   OH217498   5.508   2.957   1.787
 5831TIP3    H117499   5.489   2.878   1.836
 5831TIP3    H217500   5.552   2.927   1.707
 5832TIP3   OH217501   4.855   5.549   2.937
 5832TIP3    H117502   4.831   5.589   2.853
 5832TIP3    H217503   4.933   5.498   2.918
 5833TIP3   OH217504   5.024   3.715   1.851
 5833TIP3    H117505   5.035   3.725   1.946
 5833TIP3    H217506   4.982   3.630   1.840
 5834TIP3   OH217507   0.833   4.536   0.748
 5834TIP3    H117508   0.911   4.578   0.713
 5834TIP3    H217509   0.782   4.608   0.786
 5835TIP3   OH217510   0.439   1.699   3.435
 5835TIP3    H117511   0.506   1.766   3.423
 5835TIP3    H217512   0.482   1.617   3.413
 5836TIP3   OH217513   1.520   1.524   3.670
 5836TIP3    H117514   1.442   1.502   3.620
 5836TIP3    H217515   1.537   1.446   3.723
 5837TIP3   OH217516   1.223   2.306   0.633
 5837TIP3    H117517   1.303   2.330   0.588
 5837TIP3    H217518   1.162   2.378   0.614
 5838TIP3   OH217519   1.287   1.235   3.848
 5838TIP3    H117520   1.376   1.268   3.835
 5838TIP3    H217521   1.268   1.252   3.940
 5839TIP3   OH217522   3.028   3.545   2.195
 5839TIP3    H117523   2.944   3.547   2.240
 5839TIP3    H217524   3.019   3.476   2.129
 5840TIP3   OH217525   2.179   3.256   3.617
 5840TIP3    H117526   2.133   3.180   3.580
 5840TIP3    H217527   2.266   3.223   3.638
 5841TIP3   OH217528   5.134   1.071   5.142
 5841TIP3    H117529   5.053   1.027   5.168
 5841TIP3    H217530   5.180   1.007   5.089
 5842TIP3   OH217531   6.178   4.933   2.568
 5842TIP3    H117532   6.109   4.880   2.526
 5842TIP3    H217533   6.134   5.015   2.589
 5843TIP3   OH217534   4.756   1.573   3.292
 5843TIP3    H117535   4.787   1.580   3.382
 5843TIP3    H217536   4.827   1.609   3.239
 5844TIP3   OH217537   6.103   2.593   0.217
 5844TIP3    H117538   6.190   2.611   0.253
 5844TIP3    H217539   6.099   2.645   0.137
 5845TIP3   OH217540   4.515   0.587   0.394
 5845TIP3    H117541   4.587   0.578   0.332
 5845TIP3    H217542   4.459   0.512   0.377
 5846TIP3   OH217543   1.629   2.541   1.123
 5846TIP3    H117544   1.645   2.453   1.156
 5846TIP3    H217545   1.604   2.591   1.200
 5847TIP3   OH217546   3.507   1.481   0.485
 5847TIP3    H117547   3.429   1.473   0.430
 5847TIP3    H217548   3.477   1.460   0.573
 5848TIP3   OH217549   1.832   0.972   0.435
 5848TIP3    H117550   1.834   0.948   0.342
 5848TIP3    H217551   1.860   1.064   0.436
 5849TIP3   OH217552   3.663   1.538  -0.016
 5849TIP3    H117553   3.627   1.626  -0.027
 5849TIP3    H217554   3.679   1.530   0.078
 5850TIP3   OH217555   5.466   2.526   0.401
 5850TIP3    H117556   5.375   2.522   0.431
 5850TIP3    H217557   5.503   2.601   0.448
 5851TIP3   OH217558   5.456   0.429   3.918
 5851TIP3    H117559   5.514   0.401   3.989
 5851TIP3    H217560   5.469   0.524   3.912
 5852TIP3   OH217561   6.222   5.337   0.747
 5852TIP3    H117562   6.250   5.272   0.812
 5852TIP3    H217563   6.249   5.299   0.663
 5853TIP3   OH217564   0.992   3.444   0.467
 5853TIP3    H117565   1.047   3.428   0.390
 5853TIP3    H217566   1.054   3.458   0.538
 5854TIP3   OH217567   1.893   0.216   2.160
 5854TIP3    H117568   1.860   0.126   2.159
 5854TIP3    H217569   1.913   0.233   2.252
 5855TIP3   OH217570   1.828   5.074   3.359
 5855TIP3    H117571   1.866   5.113   3.438
 5855TIP3    H217572   1.853   4.982   3.363
 5856TIP3   OH217573   3.304   5.628   4.456
 5856TIP3    H117574   3.282   5.633   4.363
 5856TIP3    H217575   3.309   5.720   4.484
 5857TIP3   OH217576   5.669   3.472   2.272
 5857TIP3    H117577   5.617   3.409   2.222
 5857TIP3    H217578   5.642   3.558   2.238
 5858TIP3   OH217579   1.965   0.031   0.712
 5858TIP3    H117580   1.917   0.059   0.790
 5858TIP3    H217581   1.897   0.009   0.648
 5859TIP3   OH217582   1.685   2.354   0.471
 5859TIP3    H117583   1.685   2.373   0.378
 5859TIP3    H217584   1.775   2.371   0.499
 5860TIP3   OH217585   4.300   4.978   0.235
 5860TIP3    H117586   4.376   4.931   0.200
 5860TIP3    H217587   4.318   4.985   0.329
 5861TIP3   OH217588   4.666   5.793   3.782
 5861TIP3    H117589   4.676   5.887   3.774
 5861TIP3    H217590   4.573   5.780   3.801
 5862TIP3   OH217591   4.179   3.526   1.404
 5862TIP3    H117592   4.105   3.585   1.390
 5862TIP3    H217593   4.157   3.479   1.484
 5863TIP3   OH217594   0.253   6.031   0.071
 5863TIP3    H117595   0.181   6.042   0.132
 5863TIP3    H217596   0.245   5.940   0.040
 5864TIP3   OH217597   2.743   2.510   4.155
 5864TIP3    H117598   2.722   2.603   4.164
 5864TIP3    H217599   2.793   2.489   4.234
 5865TIP3   OH217600   4.579   0.243   4.897
 5865TIP3    H117601   4.622   0.213   4.816
 5865TIP3    H217602   4.493   0.274   4.868
 5866TIP3   OH217603   1.792   0.085   0.116
 5866TIP3    H117604   1.831   0.032   0.047
 5866TIP3    H217605   1.861   0.148   0.139
 5867TIP3   OH217606   2.702   3.497   1.790
 5867TIP3    H117607   2.700   3.430   1.859
 5867TIP3    H217608   2.698   3.580   1.838
 5868TIP3   OH217609   1.555   4.621   4.689
 5868TIP3    H117610   1.540   4.692   4.750
 5868TIP3    H217611   1.636   4.645   4.644
 5869TIP3   OH217612   5.984   0.036   2.036
 5869TIP3    H117613   6.021   0.041   1.948
 5869TIP3    H217614   5.890   0.042   2.023
 5870TIP3   OH217615   1.197   0.927   0.895
 5870TIP3    H117616   1.123   0.911   0.953
 5870TIP3    H217617   1.158   0.937   0.808
 5871TIP3   OH217618   1.114   0.489   1.139
 5871TIP3    H117619   1.148   0.498   1.050
 5871TIP3    H217620   1.090   0.578   1.164
 5872TIP3   OH217621   0.590   5.890   3.323
 5872TIP3    H117622   0.517   5.941   3.288
 5872TIP3    H217623   0.648   5.955   3.361
 5873TIP3   OH217624   2.804   3.878   1.256
 5873TIP3    H117625   2.799   3.791   1.297
 5873TIP3    H217626   2.713   3.906   1.249
 5874TIP3   OH217627   0.939   4.308   0.849
 5874TIP3    H117628   0.882   4.383   0.833
 5874TIP3    H217629   1.016   4.324   0.795
 5875TIP3   OH217630   3.400   2.636   2.974
 5875TIP3    H117631   3.306   2.655   2.973
 5875TIP3    H217632   3.405   2.546   3.008
 5876TIP3   OH217633   0.478   4.342   2.997
 5876TIP3    H117634   0.489   4.295   3.080
 5876TIP3    H217635   0.537   4.417   3.003
 5877TIP3   OH217636   6.003   4.469   3.581
 5877TIP3    H117637   5.995   4.563   3.561
 5877TIP3    H217638   6.082   4.462   3.634
 5878TIP3   OH217639   3.352   4.045   3.390
 5878TIP3    H117640   3.310   3.985   3.330
 5878TIP3    H217641   3.318   4.131   3.367
 5879TIP3   OH217642   3.211   5.418   1.554
 5879TIP3    H117643   3.296   5.389   1.589
 5879TIP3    H217644   3.198   5.505   1.592
 5880TIP3   OH217645   1.271   1.898   5.199
 5880TIP3    H117646   1.341   1.962   5.211
 5880TIP3    H217647   1.297   1.850   5.120
 5881TIP3   OH217648   3.068   1.847   3.387
 5881TIP3    H117649   2.994   1.790   3.407
 5881TIP3    H217650   3.046   1.885   3.302
 5882TIP3   OH217651   3.326   1.751   2.932
 5882TIP3    H117652   3.322   1.697   3.011
 5882TIP3    H217653   3.419   1.771   2.921
 5883TIP3   OH217654   1.907   5.064   0.138
 5883TIP3    H117655   1.910   4.976   0.177
 5883TIP3    H217656   1.823   5.068   0.093
 5884TIP3   OH217657   4.747   5.012   4.239
 5884TIP3    H117658   4.772   4.981   4.327
 5884TIP3    H217659   4.730   5.106   4.251
 5885TIP3   OH217660   3.282   2.075   2.985
 5885TIP3    H117661   3.278   2.096   3.078
 5885TIP3    H217662   3.352   2.009   2.978
 5886TIP3   OH217663   1.149   3.243   3.670
 5886TIP3    H117664   1.141   3.220   3.763
 5886TIP3    H217665   1.073   3.200   3.629
 5887TIP3   OH217666   0.489   2.246   1.832
 5887TIP3    H117667   0.408   2.208   1.797
 5887TIP3    H217668   0.463   2.332   1.864
 5888TIP3   OH217669   2.040   1.219   1.498
 5888TIP3    H117670   1.999   1.192   1.580
 5888TIP3    H217671   2.130   1.187   1.504
 5889TIP3   OH217672   5.751   0.460   1.084
 5889TIP3    H117673   5.657   0.480   1.087
 5889TIP3    H217674   5.758   0.392   1.018
 5890TIP3   OH217675   5.169   1.490   1.038
 5890TIP3    H117676   5.238   1.458   1.097
 5890TIP3    H217677   5.215   1.512   0.958
 5891TIP3   OH217678   6.177   3.671   2.188
 5891TIP3    H117679   6.086   3.654   2.164
 5891TIP3    H217680   6.226   3.595   2.156
 5892TIP3   OH217681   2.564   3.717   3.122
 5892TIP3    H117682   2.622   3.646   3.150
 5892TIP3    H217683   2.476   3.683   3.135
 5893TIP3   OH217684   4.919   0.590   0.203
 5893TIP3    H117685   4.828   0.572   0.180
 5893TIP3    H217686   4.970   0.532   0.146
 5894TIP3   OH217687   2.578   4.116   2.700
 5894TIP3    H117688   2.558   4.043   2.642
 5894TIP3    H217689   2.599   4.188   2.640
 5895TIP3   OH217690   2.067   2.798   2.596
 5895TIP3    H117691   2.000   2.838   2.652
 5895TIP3    H217692   2.099   2.870   2.542
 5896TIP3   OH217693   0.267   4.636   2.431
 5896TIP3    H117694   0.211   4.711   2.449
 5896TIP3    H217695   0.228   4.564   2.479
 5897TIP3   OH217696   0.972   3.010   3.458
 5897TIP3    H117697   0.927   3.074   3.513
 5897TIP3    H217698   1.019   3.062   3.393
 5898TIP3   OH217699   2.963   4.666   0.446
 5898TIP3    H117700   3.046   4.651   0.401
 5898TIP3    H217701   2.929   4.578   0.465
 5899TIP3   OH217702   6.331   2.619   3.653
 5899TIP3    H117703   6.264   2.681   3.625
 5899TIP3    H217704   6.328   2.548   3.588
 5900TIP3   OH217705   1.817   4.813   1.271
 5900TIP3    H117706   1.799   4.766   1.352
 5900TIP3    H217707   1.890   4.871   1.292
 5901TIP3   OH217708   1.081   0.438   4.862
 5901TIP3    H117709   1.093   0.503   4.932
 5901TIP3    H217710   1.073   0.355   4.908
 5902TIP3   OH217711   4.184   5.292   2.647
 5902TIP3    H117712   4.122   5.269   2.577
 5902TIP3    H217713   4.190   5.213   2.700
 5903TIP3   OH217714   5.103   4.066   3.366
 5903TIP3    H117715   5.193   4.098   3.374
 5903TIP3    H217716   5.051   4.145   3.348
 5904TIP3   OH217717   4.114   1.780   3.416
 5904TIP3    H117718   4.050   1.850   3.421
 5904TIP3    H217719   4.092   1.722   3.489
 5905TIP3   OH217720   2.976   0.612   0.064
 5905TIP3    H117721   2.934   0.569  -0.011
 5905TIP3    H217722   2.931   0.577   0.140
 5906TIP3   OH217723   4.854   0.660   3.605
 5906TIP3    H117724   4.821   0.670   3.695
 5906TIP3    H217725   4.795   0.597   3.565
 5907TIP3   OH217726   3.893   2.838   0.090
 5907TIP3    H117727   3.810   2.801   0.119
 5907TIP3    H217728   3.896   2.925   0.130
 5908TIP3   OH217729   4.528   1.288   0.634
 5908TIP3    H117730   4.549   1.381   0.641
 5908TIP3    H217731   4.595   1.253   0.575
 5909TIP3   OH217732   5.346   2.498   3.078
 5909TIP3    H117733   5.351   2.568   3.014
 5909TIP3    H217734   5.334   2.543   3.162
 5910TIP3   OH217735   1.012   2.162   1.888
 5910TIP3    H117736   1.003   2.089   1.949
 5910TIP3    H217737   0.978   2.128   1.805
 5911TIP3   OH217738   5.646   0.172   4.722
 5911TIP3    H117739   5.736   0.155   4.752
 5911TIP3    H217740   5.638   0.121   4.641
 5912TIP3   OH217741   1.799   0.419   0.969
 5912TIP3    H117742   1.885   0.416   0.927
 5912TIP3    H217743   1.806   0.360   1.044
 5913TIP3   OH217744   3.149   1.164   2.903
 5913TIP3    H117745   3.062   1.161   2.863
 5913TIP3    H217746   3.197   1.093   2.861
 5914TIP3   OH217747   6.038   4.498   5.014
 5914TIP3    H117748   6.000   4.417   4.978
 5914TIP3    H217749   5.985   4.517   5.091
 5915TIP3   OH217750   5.091   1.263   2.242
 5915TIP3    H117751   5.077   1.170   2.260
 5915TIP3    H217752   5.005   1.303   2.257
 5916TIP3   OH217753   0.574   3.899   1.169
 5916TIP3    H117754   0.655   3.943   1.194
 5916TIP3    H217755   0.521   3.900   1.249
 5917TIP3   OH217756   1.140   3.490   0.702
 5917TIP3    H117757   1.219   3.543   0.686
 5917TIP3    H217758   1.168   3.425   0.766
 5918TIP3   OH217759   2.310   2.589   3.930
 5918TIP3    H117760   2.298   2.650   4.003
 5918TIP3    H217761   2.405   2.588   3.916
 5919TIP3   OH217762   2.446   3.660   1.561
 5919TIP3    H117763   2.488   3.602   1.497
 5919TIP3    H217764   2.356   3.669   1.529
 5920TIP3   OH217765   2.427   2.831   5.126
 5920TIP3    H117766   2.493   2.774   5.088
 5920TIP3    H217767   2.369   2.771   5.175
 5921TIP3   OH217768   0.363   2.923   1.769
 5921TIP3    H117769   0.375   3.014   1.742
 5921TIP3    H217770   0.386   2.872   1.691
 5922TIP3   OH217771   0.233   0.079   4.712
 5922TIP3    H117772   0.163   0.043   4.767
 5922TIP3    H217773   0.300   0.010   4.709
 5923TIP3   OH217774   3.191   3.121   3.152
 5923TIP3    H117775   3.199   3.119   3.056
 5923TIP3    H217776   3.154   3.036   3.174
 5924TIP3   OH217777   2.618   3.073   1.471
 5924TIP3    H117778   2.612   3.090   1.565
 5924TIP3    H217779   2.703   3.030   1.459
 5925TIP3   OH217780   5.638   0.496   1.381
 5925TIP3    H117781   5.565   0.558   1.388
 5925TIP3    H217782   5.684   0.522   1.302
 5926TIP3   OH217783   5.278   2.521   1.770
 5926TIP3    H117784   5.327   2.601   1.788
 5926TIP3    H217785   5.221   2.543   1.697
 5927TIP3   OH217786   4.132   1.400   3.559
 5927TIP3    H117787   4.102   1.356   3.638
 5927TIP3    H217788   4.099   1.489   3.566
 5928TIP3   OH217789   3.286   0.931   4.530
 5928TIP3    H117790   3.228   0.873   4.482
 5928TIP3    H217791   3.229   1.000   4.563
 5929TIP3   OH217792   2.393   1.405   4.985
 5929TIP3    H117793   2.301   1.421   5.009
 5929TIP3    H217794   2.394   1.416   4.890
 5930TIP3   OH217795   2.748   4.502   2.951
 5930TIP3    H117796   2.832   4.499   2.996
 5930TIP3    H217797   2.707   4.418   2.971
 5931TIP3   OH217798   5.956   0.849   2.652
 5931TIP3    H117799   5.887   0.884   2.707
 5931TIP3    H217800   6.027   0.913   2.659
 5932TIP3   OH217801   5.356   5.018   2.686
 5932TIP3    H117802   5.358   4.941   2.629
 5932TIP3    H217803   5.414   4.996   2.759
 5933TIP3   OH217804   0.463   5.981   1.347
 5933TIP3    H117805   0.477   6.058   1.402
 5933TIP3    H217806   0.445   6.016   1.260
 5934TIP3   OH217807   4.722   4.398   5.051
 5934TIP3    H117808   4.784   4.325   5.057
 5934TIP3    H217809   4.695   4.399   4.960
 5935TIP3   OH217810   3.091   3.924   1.772
 5935TIP3    H117811   3.057   4.009   1.743
 5935TIP3    H217812   3.172   3.944   1.818
 5936TIP3   OH217813   0.249   5.759   3.400
 5936TIP3    H117814   0.252   5.729   3.491
 5936TIP3    H217815   0.287   5.687   3.350
 5937TIP3   OH217816   5.846   1.665   3.462
 5937TIP3    H117817   5.773   1.704   3.414
 5937TIP3    H217818   5.815   1.658   3.553
 5938TIP3   OH217819   2.520   1.959   1.975
 5938TIP3    H117820   2.610   1.926   1.971
 5938TIP3    H217821   2.488   1.949   1.885
 5939TIP3   OH217822   4.456   1.153   0.009
 5939TIP3    H117823   4.381   1.211   0.003
 5939TIP3    H217824   4.439   1.099   0.086
 5940TIP3   OH217825   5.222   2.128   1.377
 5940TIP3    H117826   5.133   2.162   1.373
 5940TIP3    H217827   5.276   2.205   1.397
 5941TIP3   OH217828   3.882   2.245   1.603
 5941TIP3    H117829   3.957   2.205   1.558
 5941TIP3    H217830   3.806   2.215   1.553
 5942TIP3   OH217831   3.113   2.433   2.844
 5942TIP3    H117832   3.166   2.353   2.838
 5942TIP3    H217833   3.143   2.476   2.924
 5943TIP3   OH217834   3.167   0.533   0.364
 5943TIP3    H117835   3.238   0.469   0.372
 5943TIP3    H217836   3.091   0.480   0.339
 5944TIP3   OH217837   3.093   0.041   2.028
 5944TIP3    H117838   3.147   0.004   1.959
 5944TIP3    H217839   3.081   0.133   2.003
 5945TIP3   OH217840   1.442   5.309   2.732
 5945TIP3    H117841   1.382   5.336   2.801
 5945TIP3    H217842   1.471   5.390   2.691
 5946TIP3   OH217843   1.743   1.900   2.756
 5946TIP3    H117844   1.665   1.847   2.773
 5946TIP3    H217845   1.802   1.842   2.707
 5947TIP3   OH217846   1.551   1.103   4.076
 5947TIP3    H117847   1.569   1.010   4.059
 5947TIP3    H217848   1.456   1.108   4.085
 5948TIP3   OH217849   2.575   2.574   3.860
 5948TIP3    H117850   2.569   2.533   3.774
 5948TIP3    H217851   2.659   2.544   3.895
 5949TIP3   OH217852   1.269   2.181   4.414
 5949TIP3    H117853   1.214   2.248   4.453
 5949TIP3    H217854   1.353   2.224   4.399
 5950TIP3   OH217855   2.769   3.647   3.884
 5950TIP3    H117856   2.763   3.742   3.898
 5950TIP3    H217857   2.706   3.610   3.946
 5951TIP3   OH217858   0.233   3.238   0.308
 5951TIP3    H117859   0.189   3.169   0.258
 5951TIP3    H217860   0.164   3.302   0.326
 5952TIP3   OH217861   0.517   1.606   0.163
 5952TIP3    H117862   0.592   1.655   0.130
 5952TIP3    H217863   0.444   1.668   0.157
 5953TIP3   OH217864   1.965   2.044   3.660
 5953TIP3    H117865   1.909   2.086   3.725
 5953TIP3    H217866   1.936   1.953   3.659
 5954TIP3   OH217867   4.546   3.099   1.733
 5954TIP3    H117868   4.545   3.179   1.785
 5954TIP3    H217869   4.480   3.113   1.665
 5955TIP3   OH217870   6.255   1.426   0.045
 5955TIP3    H117871   6.212   1.494   0.097
 5955TIP3    H217872   6.345   1.424   0.078
 5956TIP3   OH217873   5.446   5.426   0.493
 5956TIP3    H117874   5.526   5.375   0.482
 5956TIP3    H217875   5.395   5.377   0.559
 5957TIP3   OH217876   3.353   2.062   4.219
 5957TIP3    H117877   3.277   2.096   4.170
 5957TIP3    H217878   3.368   2.127   4.288
 5958TIP3   OH217879   6.268   2.247   4.940
 5958TIP3    H117880   6.261   2.337   4.970
 5958TIP3    H217881   6.292   2.197   5.018
 5959TIP3   OH217882   2.445   5.292   4.623
 5959TIP3    H117883   2.479   5.373   4.661
 5959TIP3    H217884   2.430   5.235   4.699
 5960TIP3   OH217885   3.959   3.092   2.891
 5960TIP3    H117886   3.971   3.185   2.869
 5960TIP3    H217887   4.048   3.056   2.891
 5961TIP3   OH217888   3.798   1.488   0.761
 5961TIP3    H117889   3.760   1.570   0.729
 5961TIP3    H217890   3.765   1.480   0.850
 5962TIP3   OH217891   3.498   2.321   0.535
 5962TIP3    H117892   3.575   2.268   0.552
 5962TIP3    H217893   3.445   2.269   0.474
 5963TIP3   OH217894   6.276   1.642   2.008
 5963TIP3    H117895   6.333   1.571   1.980
 5963TIP3    H217896   6.335   1.711   2.038
 5964TIP3   OH217897   2.897   5.153   5.122
 5964TIP3    H117898   2.816   5.103   5.115
 5964TIP3    H217899   2.966   5.092   5.095
 5965TIP3   OH217900   4.820   4.536   0.431
 5965TIP3    H117901   4.762   4.578   0.495
 5965TIP3    H217902   4.804   4.442   0.442
 5966TIP3   OH217903   5.453   5.521   3.663
 5966TIP3    H117904   5.518   5.495   3.598
 5966TIP3    H217905   5.497   5.584   3.719
 5967TIP3   OH217906   2.808   5.232   0.059
 5967TIP3    H117907   2.717   5.215   0.036
 5967TIP3    H217908   2.840   5.288  -0.011
 5968TIP3   OH217909   4.728   5.434   4.085
 5968TIP3    H117910   4.803   5.393   4.128
 5968TIP3    H217911   4.756   5.523   4.065
 5969TIP3   OH217912   1.146   1.779   1.350
 5969TIP3    H117913   1.164   1.726   1.272
 5969TIP3    H217914   1.053   1.766   1.368
 5970TIP3   OH217915   0.651   0.856   1.355
 5970TIP3    H117916   0.661   0.774   1.403
 5970TIP3    H217917   0.733   0.904   1.372
 5971TIP3   OH217918   3.051   4.158   3.528
 5971TIP3    H117919   3.134   4.185   3.565
 5971TIP3    H217920   3.050   4.063   3.536
 5972TIP3   OH217921   5.024   0.678   1.496
 5972TIP3    H117922   4.935   0.653   1.522
 5972TIP3    H217923   5.024   0.671   1.401
 5973TIP3   OH217924   1.257   1.508   4.707
 5973TIP3    H117925   1.187   1.485   4.646
 5973TIP3    H217926   1.296   1.587   4.671
 5974TIP3   OH217927   2.432   4.066   4.225
 5974TIP3    H117928   2.495   4.130   4.256
 5974TIP3    H217929   2.370   4.117   4.172
 5975TIP3   OH217930   5.076   3.669   0.569
 5975TIP3    H117931   5.117   3.667   0.483
 5975TIP3    H217932   5.112   3.593   0.614
 5976TIP3   OH217933   5.488   2.676   1.894
 5976TIP3    H117934   5.564   2.619   1.884
 5976TIP3    H217935   5.441   2.641   1.970
 5977TIP3   OH217936   0.010   3.513   3.415
 5977TIP3    H117937   0.093   3.470   3.437
 5977TIP3    H217938   0.016   3.529   3.320
 5978TIP3   OH217939   5.384   5.278   3.015
 5978TIP3    H117940   5.429   5.195   3.033
 5978TIP3    H217941   5.450   5.345   3.032
 5979TIP3   OH217942   5.278   2.745   5.151
 5979TIP3    H117943   5.262   2.795   5.071
 5979TIP3    H217944   5.199   2.692   5.162
 5980TIP3   OH217945   0.685   2.018   4.226
 5980TIP3    H117946   0.636   2.083   4.275
 5980TIP3    H217947   0.630   1.999   4.150
 5981TIP3   OH217948   0.376   4.991   0.568
 5981TIP3    H117949   0.465   4.977   0.534
 5981TIP3    H217950   0.348   5.074   0.528
 5982TIP3   OH217951   3.543   2.721   4.545
 5982TIP3    H117952   3.484   2.658   4.586
 5982TIP3    H217953   3.630   2.682   4.553
 5983TIP3   OH217954   1.218   4.679   2.599
 5983TIP3    H117955   1.198   4.750   2.537
 5983TIP3    H217956   1.133   4.650   2.631
 5984TIP3   OH217957   2.351   3.483   4.499
 5984TIP3    H117958   2.283   3.459   4.562
 5984TIP3    H217959   2.424   3.514   4.553
 5985TIP3   OH217960   5.492   2.625   1.454
 5985TIP3    H117961   5.553   2.613   1.381
 5985TIP3    H217962   5.544   2.671   1.520
 5986TIP3   OH217963   3.259   0.394   3.477
 5986TIP3    H117964   3.336   0.398   3.420
 5986TIP3    H217965   3.290   0.352   3.557
 5987TIP3   OH217966   4.223   1.375   3.149
 5987TIP3    H117967   4.205   1.458   3.104
 5987TIP3    H217968   4.275   1.325   3.087
 5988TIP3   OH217969   3.699   3.584   1.592
 5988TIP3    H117970   3.605   3.603   1.587
 5988TIP3    H217971   3.740   3.668   1.614
 5989TIP3   OH217972   6.173   0.450   5.079
 5989TIP3    H117973   6.202   0.395   5.006
 5989TIP3    H217974   6.081   0.470   5.059
 5990TIP3   OH217975   4.149   2.143   0.380
 5990TIP3    H117976   4.108   2.057   0.387
 5990TIP3    H217977   4.161   2.170   0.471
 5991TIP3   OH217978   1.960   0.253   3.148
 5991TIP3    H117979   1.898   0.247   3.220
 5991TIP3    H217980   1.934   0.332   3.101
 5992TIP3   OH217981   0.608   5.240   1.108
 5992TIP3    H117982   0.680   5.283   1.152
 5992TIP3    H217983   0.571   5.181   1.173
 5993TIP3   OH217984   2.892   4.475   0.213
 5993TIP3    H117985   2.799   4.455   0.225
 5993TIP3    H217986   2.893   4.547   0.151
 5994TIP3   OH217987   3.289   0.106   2.686
 5994TIP3    H117988   3.228   0.034   2.673
 5994TIP3    H217989   3.233   0.184   2.693
 5995TIP3   OH217990   1.349   0.284   3.921
 5995TIP3    H117991   1.411   0.229   3.969
 5995TIP3    H217992   1.405   0.339   3.865
 5996TIP3   OH217993   5.205   0.986   2.401
 5996TIP3    H117994   5.256   1.023   2.329
 5996TIP3    H217995   5.234   1.034   2.478
 5997TIP3   OH217996   5.848   3.757   0.141
 5997TIP3    H117997   5.771   3.812   0.124
 5997TIP3    H217998   5.923   3.815   0.127
 5998TIP3   OH217999   1.239   3.776   3.073
 5998TIP3    H118000   1.264   3.862   3.039
 5998TIP3    H218001   1.147   3.787   3.098
 5999TIP3   OH218002   1.160   0.543   4.633
 5999TIP3    H118003   1.111   0.511   4.709
 5999TIP3    H218004   1.249   0.508   4.646
 6000TIP3   OH218005   5.715   5.793   4.167
 6000TIP3    H118006   5.660   5.735   4.220
 6000TIP3    H218007   5.653   5.849   4.121
 6001TIP3   OH218008   5.264   0.884   1.103
 6001TIP3    H118009   5.178   0.926   1.094
 6001TIP3    H218010   5.248   0.807   1.157
 6002TIP3   OH218011   4.227   1.070   4.511
 6002TIP3    H118012   4.264   1.033   4.430
 6002TIP3    H218013   4.159   1.008   4.537
 6003TIP3   OH218014   6.016   0.803   0.957
 6003TIP3    H118015   6.002   0.768   0.869
 6003TIP3    H218016   5.928   0.813   0.993
 6004TIP3   OH218017   3.427   3.268   0.437
 6004TIP3    H118018   3.486   3.205   0.478
 6004TIP3    H218019   3.484   3.338   0.406
 6005TIP3   OH218020   5.227   1.515   2.708
 6005TIP3    H118021   5.321   1.500   2.702
 6005TIP3    H218022   5.193   1.493   2.621
 6006TIP3   OH218023   1.049   2.775   5.155
 6006TIP3    H118024   1.012   2.749   5.070
 6006TIP3    H218025   1.055   2.693   5.204
 6007TIP3   OH218026   2.349   2.514   1.446
 6007TIP3    H118027   2.263   2.528   1.405
 6007TIP3    H218028   2.358   2.586   1.509
 6008TIP3   OH218029   2.116   4.064   0.906
 6008TIP3    H118030   2.067   3.982   0.899
 6008TIP3    H218031   2.077   4.110   0.980
 6009TIP3   OH218032   1.883   2.852   4.600
 6009TIP3    H118033   1.937   2.931   4.594
 6009TIP3    H218034   1.874   2.822   4.509
 6010TIP3   OH218035   0.393   1.677   3.146
 6010TIP3    H118036   0.367   1.708   3.234
 6010TIP3    H218037   0.421   1.757   3.101
 6011TIP3   OH218038   4.054   1.096   1.754
 6011TIP3    H118039   4.131   1.093   1.697
 6011TIP3    H218040   3.996   1.160   1.713
 6012TIP3   OH218041   4.498   2.353   2.915
 6012TIP3    H118042   4.488   2.389   2.827
 6012TIP3    H218043   4.422   2.386   2.964
 6013TIP3   OH218044   2.027   2.019   2.402
 6013TIP3    H118045   1.958   2.041   2.464
 6013TIP3    H218046   1.985   1.958   2.340
 6014TIP3   OH218047   3.078   5.579   1.790
 6014TIP3    H118048   2.994   5.539   1.773
 6014TIP3    H218049   3.067   5.625   1.873
 6015TIP3   OH218050   5.299   2.044   2.161
 6015TIP3    H118051   5.215   2.089   2.171
 6015TIP3    H218052   5.281   1.953   2.184
 6016TIP3   OH218053   2.841   4.997   3.166
 6016TIP3    H118054   2.789   5.045   3.231
 6016TIP3    H218055   2.825   5.043   3.084
 6017TIP3   OH218056   0.199   0.172   5.015
 6017TIP3    H118057   0.230   0.261   4.994
 6017TIP3    H218058   0.274   0.131   5.060
 6018TIP3   OH218059   2.358   5.301   0.784
 6018TIP3    H118060   2.426   5.237   0.804
 6018TIP3    H218061   2.303   5.303   0.863
 6019TIP3   OH218062   4.113   1.236   4.742
 6019TIP3    H118063   4.021   1.229   4.719
 6019TIP3    H218064   4.160   1.205   4.665
 6020TIP3   OH218065   0.259   1.143   3.233
 6020TIP3    H118066   0.310   1.223   3.227
 6020TIP3    H218067   0.214   1.137   3.149
 6021TIP3   OH218068   3.595   5.737   2.863
 6021TIP3    H118069   3.632   5.652   2.886
 6021TIP3    H218070   3.628   5.797   2.930
 6022TIP3   OH218071   3.904   5.315   5.006
 6022TIP3    H118072   3.943   5.227   5.003
 6022TIP3    H218073   3.871   5.323   5.096
 6023TIP3   OH218074   3.535   4.631   0.778
 6023TIP3    H118075   3.483   4.675   0.710
 6023TIP3    H218076   3.604   4.694   0.797
 6024TIP3   OH218077   6.252   1.439   4.482
 6024TIP3    H118078   6.204   1.363   4.451
 6024TIP3    H218079   6.322   1.402   4.536
 6025TIP3   OH218080   2.017   0.721   0.830
 6025TIP3    H118081   1.940   0.738   0.884
 6025TIP3    H218082   2.017   0.626   0.819
 6026TIP3   OH218083   5.999   4.767   0.198
 6026TIP3    H118084   6.024   4.844   0.250
 6026TIP3    H218085   6.055   4.697   0.231
 6027TIP3   OH218086   4.875   2.239   3.309
 6027TIP3    H118087   4.813   2.226   3.237
 6027TIP3    H218088   4.941   2.299   3.273
 6028TIP3   OH218089   0.874   5.103   1.106
 6028TIP3    H118090   0.901   5.179   1.158
 6028TIP3    H218091   0.951   5.046   1.106
 6029TIP3   OH218092   4.828   4.526   0.849
 6029TIP3    H118093   4.874   4.603   0.814
 6029TIP3    H218094   4.827   4.464   0.777
 6030TIP3   OH218095   5.781   1.004   0.898
 6030TIP3    H118096   5.701   0.951   0.888
 6030TIP3    H218097   5.814   1.014   0.809
 6031TIP3   OH218098   6.182   3.038   4.276
 6031TIP3    H118099   6.146   2.958   4.238
 6031TIP3    H218100   6.106   3.095   4.287
 6032TIP3   OH218101   4.528   0.726   0.655
 6032TIP3    H118102   4.500   0.708   0.565
 6032TIP3    H218103   4.525   0.821   0.663
 6033TIP3   OH218104   4.669   0.800   3.366
 6033TIP3    H118105   4.628   0.743   3.431
 6033TIP3    H218106   4.602   0.865   3.345
 6034TIP3   OH218107   3.431   3.940   2.983
 6034TIP3    H118108   3.526   3.949   2.980
 6034TIP3    H218109   3.400   4.028   3.006
 6035TIP3   OH218110   3.986   3.581   0.913
 6035TIP3    H118111   4.034   3.661   0.934
 6035TIP3    H218112   3.976   3.536   0.998
 6036TIP3   OH218113   3.861   5.288   4.643
 6036TIP3    H118114   3.840   5.246   4.726
 6036TIP3    H218115   3.818   5.234   4.577
 6037TIP3   OH218116   1.684   5.133   4.120
 6037TIP3    H118117   1.662   5.094   4.204
 6037TIP3    H218118   1.779   5.139   4.121
 6038TIP3   OH218119   3.480   4.776   4.709
 6038TIP3    H118120   3.567   4.748   4.680
 6038TIP3    H218121   3.473   4.867   4.679
 6039TIP3   OH218122   4.649   1.815   4.109
 6039TIP3    H118123   4.674   1.903   4.081
 6039TIP3    H218124   4.706   1.797   4.184
 6040TIP3   OH218125   5.743   1.827   1.433
 6040TIP3    H118126   5.707   1.773   1.363
 6040TIP3    H218127   5.782   1.764   1.494
 6041TIP3   OH218128   1.633   2.325   5.135
 6041TIP3    H118129   1.582   2.375   5.198
 6041TIP3    H218130   1.721   2.319   5.174
 6042TIP3   OH218131   5.203   2.289   3.192
 6042TIP3    H118132   5.255   2.352   3.142
 6042TIP3    H218133   5.131   2.266   3.133
 6043TIP3   OH218134   4.994   5.339   3.840
 6043TIP3    H118135   4.998   5.244   3.853
 6043TIP3    H218136   4.932   5.349   3.767
 6044TIP3   OH218137   0.975   2.909   1.972
 6044TIP3    H118138   0.944   2.882   1.885
 6044TIP3    H218139   0.907   2.879   2.032
 6045TIP3   OH218140   0.194   5.947   1.423
 6045TIP3    H118141   0.289   5.935   1.422
 6045TIP3    H218142   0.170   5.953   1.330
 6046TIP3   OH218143   2.201   4.420   2.816
 6046TIP3    H118144   2.192   4.449   2.724
 6046TIP3    H218145   2.229   4.499   2.863
 6047TIP3   OH218146   2.135   3.107   4.772
 6047TIP3    H118147   2.148   3.038   4.707
 6047TIP3    H218148   2.204   3.093   4.836
 6048TIP3   OH218149   1.111   2.486   5.005
 6048TIP3    H118150   1.200   2.481   5.040
 6048TIP3    H218151   1.101   2.577   4.977
 6049TIP3   OH218152   5.580   3.642   4.821
 6049TIP3    H118153   5.612   3.725   4.788
 6049TIP3    H218154   5.626   3.629   4.904
 6050TIP3   OH218155   0.706   3.209   3.187
 6050TIP3    H118156   0.679   3.195   3.278
 6050TIP3    H218157   0.797   3.235   3.193
 6051TIP3   OH218158   4.547   2.718   2.561
 6051TIP3    H118159   4.604   2.686   2.491
 6051TIP3    H218160   4.459   2.695   2.532
 6052TIP3   OH218161   2.086   2.636   4.203
 6052TIP3    H118162   2.035   2.634   4.122
 6052TIP3    H218163   2.081   2.546   4.236
 6053TIP3   OH218164   2.796   0.511   0.248
 6053TIP3    H118165   2.863   0.444   0.243
 6053TIP3    H218166   2.767   0.511   0.340
 6054TIP3   OH218167   5.269   1.185   0.931
 6054TIP3    H118168   5.216   1.105   0.930
 6054TIP3    H218169   5.259   1.222   0.844
 6055TIP3   OH218170   1.174   2.867   1.366
 6055TIP3    H118171   1.138   2.948   1.403
 6055TIP3    H218172   1.100   2.807   1.361
 6056TIP3   OH218173   0.735   4.426   2.841
 6056TIP3    H118174   0.821   4.397   2.871
 6056TIP3    H218175   0.712   4.363   2.772
 6057TIP3   OH218176   4.438   4.699   2.477
 6057TIP3    H118177   4.445   4.604   2.488
 6057TIP3    H218178   4.453   4.734   2.565
 6058TIP3   OH218179   2.253   4.408   0.564
 6058TIP3    H118180   2.265   4.350   0.639
 6058TIP3    H218181   2.318   4.380   0.500
 6059TIP3   OH218182   2.684   3.824   3.515
 6059TIP3    H118183   2.594   3.804   3.539
 6059TIP3    H218184   2.715   3.745   3.470
 6060TIP3   OH218185   1.444   3.353   4.925
 6060TIP3    H118186   1.536   3.353   4.900
 6060TIP3    H218187   1.427   3.262   4.952
 6061TIP3   OH218188   4.115   0.918   4.034
 6061TIP3    H118189   4.136   0.871   4.114
 6061TIP3    H218190   4.183   0.985   4.026
 6062TIP3   OH218191   3.188   1.000   4.002
 6062TIP3    H118192   3.195   1.004   4.098
 6062TIP3    H218193   3.276   1.020   3.971
 6063TIP3   OH218194   4.016   0.668   1.370
 6063TIP3    H118195   4.021   0.730   1.443
 6063TIP3    H218196   3.941   0.700   1.318
 6064TIP3   OH218197   4.999   3.659   2.836
 6064TIP3    H118198   4.985   3.745   2.795
 6064TIP3    H218199   5.089   3.636   2.813
 6065TIP3   OH218200   2.727   3.780   4.896
 6065TIP3    H118201   2.796   3.757   4.833
 6065TIP3    H218202   2.774   3.802   4.976
 6066TIP3   OH218203   2.822   1.637   1.831
 6066TIP3    H118204   2.765   1.571   1.791
 6066TIP3    H218205   2.815   1.622   1.925
 6067TIP3   OH218206   4.320   4.067   1.916
 6067TIP3    H118207   4.305   4.080   2.009
 6067TIP3    H218208   4.234   4.077   1.876
 6068TIP3   OH218209   2.697   3.146   4.093
 6068TIP3    H118210   2.787   3.151   4.126
 6068TIP3    H218211   2.672   3.054   4.107
 6069TIP3   OH218212   4.094   2.572   4.552
 6069TIP3    H118213   4.105   2.533   4.639
 6069TIP3    H218214   4.143   2.653   4.555
 6070TIP3   OH218215   4.262   3.163   1.276
 6070TIP3    H118216   4.277   3.072   1.301
 6070TIP3    H218217   4.295   3.169   1.186
 6071TIP3   OH218218   3.304   3.421   2.192
 6071TIP3    H118219   3.383   3.390   2.148
 6071TIP3    H218220   3.295   3.512   2.164
 6072TIP3   OH218221   1.320   5.430   5.077
 6072TIP3    H118222   1.239   5.428   5.026
 6072TIP3    H218223   1.313   5.509   5.131
 6073TIP3   OH218224   1.263   3.930   2.492
 6073TIP3    H118225   1.179   3.886   2.477
 6073TIP3    H218226   1.301   3.885   2.567
 6074TIP3   OH218227   1.970   3.842   0.907
 6074TIP3    H118228   1.936   3.772   0.962
 6074TIP3    H218229   2.010   3.797   0.833
 6075TIP3   OH218230   1.040   1.263   0.746
 6075TIP3    H118231   1.132   1.238   0.759
 6075TIP3    H218232   1.031   1.270   0.651
 6076TIP3   OH218233   0.141   1.947   0.768
 6076TIP3    H118234   0.119   2.029   0.810
 6076TIP3    H218235   0.075   1.885   0.798
 6077TIP3   OH218236   2.094   0.788   0.158
 6077TIP3    H118237   2.118   0.874   0.122
 6077TIP3    H218238   2.074   0.806   0.250
 6078TIP3   OH218239   4.517   0.337   0.182
 6078TIP3    H118240   4.435   0.376   0.213
 6078TIP3    H218241   4.518   0.250   0.220
 6079TIP3   OH218242   0.717   5.886   1.062
 6079TIP3    H118243   0.640   5.935   1.034
 6079TIP3    H218244   0.696   5.795   1.040
 6080TIP3   OH218245   2.265   1.075   1.540
 6080TIP3    H118246   2.298   1.016   1.609
 6080TIP3    H218247   2.295   1.035   1.459
 6081TIP3   OH218248   2.151   1.869   2.669
 6081TIP3    H118249   2.165   1.962   2.652
 6081TIP3    H218250   2.118   1.866   2.759
 6082TIP3   OH218251   1.150   1.353   2.848
 6082TIP3    H118252   1.085   1.412   2.810
 6082TIP3    H218253   1.223   1.356   2.786
 6083TIP3   OH218254   0.260   2.275   3.066
 6083TIP3    H118255   0.271   2.202   3.127
 6083TIP3    H218256   0.307   2.248   2.987
 6084TIP3   OH218257   2.781   1.613   5.155
 6084TIP3    H118258   2.708   1.628   5.095
 6084TIP3    H218259   2.855   1.593   5.098
 6085TIP3   OH218260   3.677   4.616   0.294
 6085TIP3    H118261   3.599   4.604   0.348
 6085TIP3    H218262   3.680   4.539   0.237
 6086TIP3   OH218263   1.570   3.696   4.079
 6086TIP3    H118264   1.566   3.618   4.133
 6086TIP3    H218265   1.649   3.741   4.106
 6087TIP3   OH218266   5.352   1.299   0.655
 6087TIP3    H118267   5.445   1.319   0.670
 6087TIP3    H218268   5.342   1.304   0.560
 6088TIP3   OH218269   1.489   2.296   2.344
 6088TIP3    H118270   1.457   2.343   2.267
 6088TIP3    H218271   1.448   2.341   2.418
 6089TIP3   OH218272   2.194   4.524   0.092
 6089TIP3    H118273   2.248   4.461   0.044
 6089TIP3    H218274   2.126   4.550   0.029
 6090TIP3   OH218275   2.354   5.589   2.265
 6090TIP3    H118276   2.295   5.637   2.323
 6090TIP3    H218277   2.440   5.598   2.306
 6091TIP3   OH218278   1.387   4.421   1.099
 6091TIP3    H118279   1.441   4.389   1.170
 6091TIP3    H218280   1.371   4.345   1.044
 6092TIP3   OH218281   0.280   3.982   0.483
 6092TIP3    H118282   0.201   4.015   0.440
 6092TIP3    H218283   0.274   4.017   0.573
 6093TIP3   OH218284   1.083   0.739   0.709
 6093TIP3    H118285   1.176   0.727   0.692
 6093TIP3    H218286   1.042   0.737   0.623
 6094TIP3   OH218287   5.775   2.123   3.243
 6094TIP3    H118288   5.849   2.148   3.298
 6094TIP3    H218289   5.729   2.205   3.226
 6095TIP3   OH218290   0.847   2.370   5.045
 6095TIP3    H118291   0.804   2.454   5.030
 6095TIP3    H218292   0.940   2.391   5.043
 6096TIP3   OH218293   5.396   2.339   2.150
 6096TIP3    H118294   5.371   2.251   2.120
 6096TIP3    H218295   5.492   2.339   2.145
 6097TIP3   OH218296   3.619   5.683   3.868
 6097TIP3    H118297   3.604   5.777   3.858
 6097TIP3    H218298   3.537   5.649   3.903
 6098TIP3   OH218299   0.318   4.544   2.117
 6098TIP3    H118300   0.251   4.503   2.063
 6098TIP3    H218301   0.327   4.486   2.193
 6099TIP3   OH218302   1.184   3.211   3.963
 6099TIP3    H118303   1.170   3.221   4.058
 6099TIP3    H218304   1.260   3.265   3.945
 6100TIP3   OH218305   4.604   1.955   2.455
 6100TIP3    H118306   4.612   2.007   2.375
 6100TIP3    H218307   4.687   1.969   2.501
 6101TIP3   OH218308   0.459   2.953   4.520
 6101TIP3    H118309   0.422   2.939   4.607
 6101TIP3    H218310   0.494   2.867   4.495
 6102TIP3   OH218311   3.509   4.192   1.988
 6102TIP3    H118312   3.576   4.260   1.981
 6102TIP3    H218313   3.558   4.110   1.984
 6103TIP3   OH218314   2.308   2.731   3.093
 6103TIP3    H118315   2.398   2.756   3.076
 6103TIP3    H218316   2.265   2.732   3.007
 6104TIP3   OH218317   3.671   3.009   4.018
 6104TIP3    H118318   3.692   2.917   4.036
 6104TIP3    H218319   3.666   3.050   4.104
 6105TIP3   OH218320   4.694   0.912   4.120
 6105TIP3    H118321   4.605   0.878   4.108
 6105TIP3    H218322   4.728   0.865   4.196
 6106TIP3   OH218323   0.158   2.803   1.893
 6106TIP3    H118324   0.178   2.823   1.985
 6106TIP3    H218325   0.232   2.839   1.845
 6107TIP3   OH218326   4.202   0.658   2.962
 6107TIP3    H118327   4.191   0.606   2.882
 6107TIP3    H218328   4.158   0.608   3.030
 6108TIP3   OH218329   1.006   0.441   0.126
 6108TIP3    H118330   1.045   0.449   0.213
 6108TIP3    H218331   1.080   0.417   0.070
 6109TIP3   OH218332   1.509   5.492   0.344
 6109TIP3    H118333   1.571   5.557   0.376
 6109TIP3    H218334   1.546   5.464   0.259
 6110TIP3   OH218335   5.597   1.515   0.941
 6110TIP3    H118336   5.503   1.516   0.924
 6110TIP3    H218337   5.603   1.500   1.036
 6111TIP3   OH218338   2.007   2.735   1.615
 6111TIP3    H118339   1.974   2.686   1.540
 6111TIP3    H218340   1.994   2.676   1.689
 6112TIP3   OH218341   0.801   4.286   0.530
 6112TIP3    H118342   0.876   4.279   0.589
 6112TIP3    H218343   0.740   4.345   0.576
 6113TIP3   OH218344   5.780   5.824   2.392
 6113TIP3    H118345   5.811   5.762   2.326
 6113TIP3    H218346   5.778   5.774   2.473
 6114TIP3   OH218347   0.385   2.087   3.618
 6114TIP3    H118348   0.431   2.167   3.645
 6114TIP3    H218349   0.294   2.101   3.643
 6115TIP3   OH218350   0.498   0.221   2.185
 6115TIP3    H118351   0.440   0.159   2.141
 6115TIP3    H218352   0.573   0.231   2.127
 6116TIP3   OH218353   2.795   4.080   4.861
 6116TIP3    H118354   2.890   4.087   4.858
 6116TIP3    H218355   2.776   4.045   4.948
 6117TIP3   OH218356   2.142   2.020   1.605
 6117TIP3    H118357   2.097   2.043   1.524
 6117TIP3    H218358   2.194   1.943   1.582
 6118TIP3   OH218359   5.035   5.307   4.689
 6118TIP3    H118360   5.095   5.381   4.683
 6118TIP3    H218361   5.037   5.267   4.602
 6119TIP3   OH218362   6.262   4.296   0.171
 6119TIP3    H118363   6.189   4.357   0.156
 6119TIP3    H218364   6.316   4.302   0.092
 6120TIP3   OH218365   2.113   5.096   4.870
 6120TIP3    H118366   2.033   5.143   4.891
 6120TIP3    H218367   2.173   5.163   4.837
 6121TIP3   OH218368   2.707   0.972   1.481
 6121TIP3    H118369   2.676   0.906   1.543
 6121TIP3    H218370   2.765   0.924   1.422
 6122TIP3   OH218371   4.969   5.797   4.662
 6122TIP3    H118372   4.995   5.772   4.750
 6122TIP3    H218373   5.050   5.830   4.621
 6123TIP3   OH218374   1.517   1.045   2.264
 6123TIP3    H118375   1.526   0.959   2.224
 6123TIP3    H218376   1.426   1.048   2.295
 6124TIP3   OH218377   3.840   5.577   2.315
 6124TIP3    H118378   3.847   5.488   2.280
 6124TIP3    H218379   3.899   5.578   2.390
 6125TIP3   OH218380   2.223   5.070   1.014
 6125TIP3    H118381   2.166   5.046   0.942
 6125TIP3    H218382   2.202   5.008   1.083
 6126TIP3   OH218383   1.583   1.430   4.727
 6126TIP3    H118384   1.536   1.436   4.810
 6126TIP3    H218385   1.644   1.504   4.729
 6127TIP3   OH218386   5.394   0.840   2.016
 6127TIP3    H118387   5.328   0.812   2.079
 6127TIP3    H218388   5.456   0.892   2.066
 6128TIP3   OH218389   1.078   2.960   4.654
 6128TIP3    H118390   0.992   2.997   4.672
 6128TIP3    H218391   1.138   3.034   4.660
 6129TIP3   OH218392   6.318   3.509   4.172
 6129TIP3    H118393   6.264   3.438   4.138
 6129TIP3    H218394   6.287   3.587   4.126
 6130TIP3   OH218395   5.181   3.179   0.843
 6130TIP3    H118396   5.112   3.235   0.809
 6130TIP3    H218397   5.198   3.117   0.772
 6131TIP3   OH218398   5.694   2.208   2.885
 6131TIP3    H118399   5.758   2.137   2.879
 6131TIP3    H218400   5.707   2.258   2.804
 6132TIP3   OH218401   0.735   1.041   2.723
 6132TIP3    H118402   0.665   0.984   2.694
 6132TIP3    H218403   0.777   0.994   2.794
 6133TIP3   OH218404   3.776   3.984   4.821
 6133TIP3    H118405   3.765   4.036   4.741
 6133TIP3    H218406   3.736   3.899   4.800
 6134TIP3   OH218407   5.482   1.999   5.179
 6134TIP3    H118408   5.436   2.017   5.097
 6134TIP3    H218409   5.574   2.009   5.158
 6135TIP3   OH218410   5.545   2.327   4.862
 6135TIP3    H118411   5.538   2.360   4.772
 6135TIP3    H218412   5.598   2.247   4.854
 6136TIP3   OH218413   5.155   0.315   3.846
 6136TIP3    H118414   5.227   0.378   3.839
 6136TIP3    H218415   5.167   0.256   3.772
 6137TIP3   OH218416   2.245   5.766   0.790
 6137TIP3    H118417   2.316   5.830   0.787
 6137TIP3    H218418   2.236   5.744   0.882
 6138TIP3   OH218419   3.298   5.924   1.824
 6138TIP3    H118420   3.373   5.982   1.839
 6138TIP3    H218421   3.223   5.971   1.861
 6139TIP3   OH218422   4.282   5.417   2.976
 6139TIP3    H118423   4.239   5.427   2.891
 6139TIP3    H218424   4.279   5.505   3.015
 6140TIP3   OH218425   4.757   1.749   4.341
 6140TIP3    H118426   4.838   1.711   4.377
 6140TIP3    H218427   4.732   1.816   4.404
 6141TIP3   OH218428   4.333   0.080   3.704
 6141TIP3    H118429   4.361   0.044   3.789
 6141TIP3    H218430   4.289   0.007   3.661
 6142TIP3   OH218431   5.774   5.638   2.596
 6142TIP3    H118432   5.837   5.580   2.638
 6142TIP3    H218433   5.726   5.581   2.535
 6143TIP3   OH218434   5.294   0.537   0.465
 6143TIP3    H118435   5.300   0.625   0.503
 6143TIP3    H218436   5.368   0.533   0.404
 6144TIP3   OH218437   4.862   2.126   3.779
 6144TIP3    H118438   4.811   2.206   3.790
 6144TIP3    H218439   4.914   2.142   3.700
 6145TIP3   OH218440   1.732   2.134   3.789
 6145TIP3    H118441   1.662   2.119   3.854
 6145TIP3    H218442   1.690   2.115   3.705
 6146TIP3   OH218443   0.840   4.622   3.596
 6146TIP3    H118444   0.812   4.538   3.633
 6146TIP3    H218445   0.770   4.646   3.535
 6147TIP3   OH218446   5.338   2.404   4.328
 6147TIP3    H118447   5.376   2.462   4.263
 6147TIP3    H218448   5.404   2.400   4.398
 6148TIP3   OH218449   4.952   3.778   1.406
 6148TIP3    H118450   4.935   3.775   1.312
 6148TIP3    H218451   4.974   3.870   1.423
 6149TIP3   OH218452   5.847   4.631   4.800
 6149TIP3    H118453   5.917   4.566   4.812
 6149TIP3    H218454   5.786   4.589   4.739
 6150TIP3   OH218455   6.184   5.600   2.227
 6150TIP3    H118456   6.265   5.552   2.211
 6150TIP3    H218457   6.213   5.687   2.256
 6151TIP3   OH218458   2.235   3.354   0.610
 6151TIP3    H118459   2.304   3.303   0.567
 6151TIP3    H218460   2.154   3.316   0.578
 6152TIP3   OH218461   5.244   5.251   0.677
 6152TIP3    H118462   5.183   5.220   0.744
 6152TIP3    H218463   5.308   5.303   0.725
 6153TIP3   OH218464   3.764   2.790   0.356
 6153TIP3    H118465   3.718   2.706   0.352
 6153TIP3    H218466   3.752   2.819   0.447
 6154TIP3   OH218467   2.202   3.584   0.766
 6154TIP3    H118468   2.208   3.519   0.696
 6154TIP3    H218469   2.154   3.657   0.728
 6155TIP3   OH218470   4.162   2.338   2.995
 6155TIP3    H118471   4.106   2.404   2.954
 6155TIP3    H218472   4.207   2.384   3.066
 6156TIP3   OH218473   1.506   0.435   1.323
 6156TIP3    H118474   1.565   0.456   1.396
 6156TIP3    H218475   1.551   0.470   1.246
 6157TIP3   OH218476   4.670   2.679   2.955
 6157TIP3    H118477   4.625   2.596   2.971
 6157TIP3    H218478   4.729   2.660   2.881
 6158TIP3   OH218479   4.425   4.090   5.026
 6158TIP3    H118480   4.398   4.009   4.983
 6158TIP3    H218481   4.450   4.148   4.954
 6159TIP3   OH218482   1.774   4.045   0.487
 6159TIP3    H118483   1.867   4.063   0.476
 6159TIP3    H218484   1.770   3.982   0.559
 6160TIP3   OH218485   3.949   3.627   5.183
 6160TIP3    H118486   4.035   3.584   5.186
 6160TIP3    H218487   3.939   3.653   5.092
 6161TIP3   OH218488   2.277   1.687   3.461
 6161TIP3    H118489   2.274   1.763   3.519
 6161TIP3    H218490   2.194   1.641   3.478
 6162TIP3   OH218491   0.753   0.721   0.432
 6162TIP3    H118492   0.762   0.650   0.496
 6162TIP3    H218493   0.825   0.706   0.370
 6163TIP3   OH218494   0.454   1.745   2.334
 6163TIP3    H118495   0.393   1.751   2.407
 6163TIP3    H218496   0.436   1.823   2.281
 6164TIP3   OH218497   1.849   5.722   3.519
 6164TIP3    H118498   1.826   5.736   3.427
 6164TIP3    H218499   1.767   5.728   3.566
 6165TIP3   OH218500   3.525   1.008   4.923
 6165TIP3    H118501   3.491   0.919   4.916
 6165TIP3    H218502   3.505   1.048   4.839
 6166TIP3   OH218503   2.801   4.176   0.203
 6166TIP3    H118504   2.707   4.178   0.183
 6166TIP3    H218505   2.818   4.086   0.231
 6167TIP3   OH218506   0.964   3.779   0.440
 6167TIP3    H118507   1.011   3.702   0.472
 6167TIP3    H218508   0.895   3.794   0.505
 6168TIP3   OH218509   0.485   1.511   3.874
 6168TIP3    H118510   0.431   1.485   3.800
 6168TIP3    H218511   0.432   1.576   3.921
 6169TIP3   OH218512   4.107   2.028   5.146
 6169TIP3    H118513   4.067   1.950   5.107
 6169TIP3    H218514   4.111   2.008   5.240
 6170TIP3   OH218515   2.316   4.171   2.711
 6170TIP3    H118516   2.307   4.256   2.753
 6170TIP3    H218517   2.410   4.162   2.694
 6171TIP3   OH218518   1.521   2.072   3.942
 6171TIP3    H118519   1.504   2.155   3.988
 6171TIP3    H218520   1.438   2.051   3.900
 6172TIP3   OH218521   5.987   2.404   0.061
 6172TIP3    H118522   6.039   2.459   0.120
 6172TIP3    H218523   5.996   2.316   0.096
 6173TIP3   OH218524   2.461   5.911   4.223
 6173TIP3    H118525   2.496   6.000   4.229
 6173TIP3    H218526   2.486   5.870   4.305
 6174TIP3   OH218527   4.727   4.988   2.665
 6174TIP3    H118528   4.722   5.008   2.759
 6174TIP3    H218529   4.658   4.924   2.650
 6175TIP3   OH218530   4.723   5.478   2.164
 6175TIP3    H118531   4.728   5.541   2.092
 6175TIP3    H218532   4.776   5.516   2.234
 6176TIP3   OH218533   2.156   2.398   4.591
 6176TIP3    H118534   2.152   2.369   4.500
 6176TIP3    H218535   2.068   2.383   4.625
 6177TIP3   OH218536   4.776   1.375   1.237
 6177TIP3    H118537   4.758   1.428   1.160
 6177TIP3    H218538   4.807   1.292   1.203
 6178TIP3   OH218539   0.877   1.498   2.128
 6178TIP3    H118540   0.948   1.562   2.139
 6178TIP3    H218541   0.845   1.482   2.217
 6179TIP3   OH218542   2.780   2.087   2.531
 6179TIP3    H118543   2.756   2.051   2.445
 6179TIP3    H218544   2.698   2.088   2.580
 6180TIP3   OH218545   6.199   2.850   1.802
 6180TIP3    H118546   6.176   2.882   1.714
 6180TIP3    H218547   6.293   2.868   1.810
 6181TIP3   OH218548   0.893   2.261   3.838
 6181TIP3    H118549   0.956   2.271   3.910
 6181TIP3    H218550   0.808   2.282   3.878
 6182TIP3   OH218551   6.062   5.977   0.481
 6182TIP3    H118552   6.017   6.060   0.467
 6182TIP3    H218553   6.003   5.911   0.445
 6183TIP3   OH218554   4.275   2.872   1.341
 6183TIP3    H118555   4.363   2.836   1.347
 6183TIP3    H218556   4.230   2.814   1.279
 6184TIP3   OH218557   4.824   0.491   2.211
 6184TIP3    H118558   4.784   0.445   2.285
 6184TIP3    H218559   4.771   0.465   2.135
 6185TIP3   OH218560   0.080   4.239   4.231
 6185TIP3    H118561   0.081   4.224   4.325
 6185TIP3    H218562   0.102   4.332   4.221
 6186TIP3   OH218563   4.085   3.238   4.965
 6186TIP3    H118564   4.135   3.260   5.043
 6186TIP3    H218565   4.131   3.282   4.894
 6187TIP3   OH218566   4.823   5.505   5.165
 6187TIP3    H118567   4.888   5.575   5.155
 6187TIP3    H218568   4.875   5.425   5.173
 6188TIP3   OH218569   5.668   3.202   4.250
 6188TIP3    H118570   5.604   3.237   4.188
 6188TIP3    H218571   5.632   3.225   4.336
 6189TIP3   OH218572   1.670   3.794   1.796
 6189TIP3    H118573   1.618   3.756   1.726
 6189TIP3    H218574   1.614   3.790   1.873
 6190TIP3   OH218575   4.100   3.487   2.696
 6190TIP3    H118576   4.080   3.545   2.622
 6190TIP3    H218577   4.014   3.458   2.727
 6191TIP3   OH218578   2.891   1.593   0.933
 6191TIP3    H118579   2.956   1.549   0.988
 6191TIP3    H218580   2.855   1.662   0.990
 6192TIP3   OH218581   3.743   2.579   1.753
 6192TIP3    H118582   3.677   2.636   1.713
 6192TIP3    H218583   3.696   2.497   1.771
 6193TIP3   OH218584   1.553   4.134   1.774
 6193TIP3    H118585   1.607   4.073   1.725
 6193TIP3    H218586   1.612   4.207   1.793
 6194TIP3   OH218587   3.745   3.601   1.239
 6194TIP3    H118588   3.654   3.571   1.241
 6194TIP3    H218589   3.796   3.521   1.221
 6195TIP3   OH218590   0.450   3.415   0.784
 6195TIP3    H118591   0.380   3.479   0.790
 6195TIP3    H218592   0.470   3.411   0.690
 6196TIP3   OH218593   5.911   4.564   2.360
 6196TIP3    H118594   5.978   4.558   2.292
 6196TIP3    H218595   5.924   4.651   2.398
 6197TIP3   OH218596   3.090   5.294   4.737
 6197TIP3    H118597   3.143   5.254   4.805
 6197TIP3    H218598   3.149   5.305   4.663
 6198TIP3   OH218599   3.556   4.602   4.307
 6198TIP3    H118600   3.604   4.539   4.253
 6198TIP3    H218601   3.591   4.590   4.395
 6199TIP3   OH218602   2.492   2.089   0.162
 6199TIP3    H118603   2.446   2.005   0.166
 6199TIP3    H218604   2.430   2.152   0.200
 6200TIP3   OH218605   4.657   3.775   3.036
 6200TIP3    H118606   4.632   3.859   2.999
 6200TIP3    H218607   4.741   3.791   3.079
 6201TIP3   OH218608   1.066   4.072   3.221
 6201TIP3    H118609   1.143   4.112   3.183
 6201TIP3    H218610   1.084   4.071   3.315
 6202TIP3   OH218611   4.454   1.409   1.372
 6202TIP3    H118612   4.407   1.492   1.358
 6202TIP3    H218613   4.465   1.373   1.284
 6203TIP3   OH218614   2.107   1.578   1.618
 6203TIP3    H118615   2.145   1.535   1.542
 6203TIP3    H218616   2.025   1.532   1.634
 6204TIP3   OH218617   1.188   5.228   3.955
 6204TIP3    H118618   1.163   5.279   3.878
 6204TIP3    H218619   1.116   5.241   4.017
 6205TIP3   OH218620   5.155   5.047   2.273
 6205TIP3    H118621   5.126   4.987   2.342
 6205TIP3    H218622   5.250   5.042   2.275
 6206TIP3   OH218623   3.708   3.954   3.031
 6206TIP3    H118624   3.767   4.010   3.082
 6206TIP3    H218625   3.722   3.866   3.066
 6207TIP3   OH218626   4.104   3.897   3.454
 6207TIP3    H118627   4.154   3.945   3.388
 6207TIP3    H218628   4.167   3.876   3.523
 6208TIP3   OH218629   2.158   5.197   3.071
 6208TIP3    H118630   2.138   5.104   3.060
 6208TIP3    H218631   2.171   5.230   2.982
 6209TIP3   OH218632   2.798   2.259   1.457
 6209TIP3    H118633   2.774   2.307   1.536
 6209TIP3    H218634   2.722   2.269   1.399
 6210TIP3   OH218635   5.667   1.680   1.771
 6210TIP3    H118636   5.739   1.669   1.709
 6210TIP3    H218637   5.662   1.597   1.817
 6211TIP3   OH218638   2.670   2.716   0.428
 6211TIP3    H118639   2.576   2.719   0.446
 6211TIP3    H218640   2.683   2.632   0.383
 6212TIP3   OH218641   3.806   0.740   4.967
 6212TIP3    H118642   3.824   0.833   4.957
 6212TIP3    H218643   3.885   0.705   5.009
 6213TIP3   OH218644   0.327   5.458   0.056
 6213TIP3    H118645   0.311   5.373   0.014
 6213TIP3    H218646   0.422   5.464   0.062
 6214TIP3   OH218647   4.852   1.161   4.802
 6214TIP3    H118648   4.835   1.068   4.795
 6214TIP3    H218649   4.897   1.184   4.721
 6215TIP3   OH218650   0.408   5.179   3.935
 6215TIP3    H118651   0.473   5.250   3.933
 6215TIP3    H218652   0.377   5.179   4.026
 6216TIP3   OH218653   1.066   5.272   4.205
 6216TIP3    H118654   1.038   5.356   4.239
 6216TIP3    H218655   1.125   5.237   4.272
 6217TIP3   OH218656   2.241   2.757   1.918
 6217TIP3    H118657   2.310   2.746   1.853
 6217TIP3    H218658   2.288   2.770   2.001
 6218TIP3   OH218659   6.283   0.322   4.867
 6218TIP3    H118660   6.347   0.256   4.894
 6218TIP3    H218661   6.324   0.366   4.793
 6219TIP3   OH218662   1.677   0.658   0.444
 6219TIP3    H118663   1.687   0.730   0.506
 6219TIP3    H218664   1.583   0.646   0.436
 6220TIP3   OH218665   0.800   2.771   2.931
 6220TIP3    H118666   0.733   2.840   2.922
 6220TIP3    H218667   0.753   2.697   2.970
 6221TIP3   OH218668   2.140   3.637   1.171
 6221TIP3    H118669   2.167   3.566   1.229
 6221TIP3    H218670   2.049   3.655   1.195
 6222TIP3   OH218671   2.328   0.265   4.214
 6222TIP3    H118672   2.423   0.251   4.219
 6222TIP3    H218673   2.294   0.222   4.293
 6223TIP3   OH218674   0.404   5.387   2.746
 6223TIP3    H118675   0.453   5.452   2.795
 6223TIP3    H218676   0.393   5.425   2.659
 6224TIP3   OH218677   1.630   2.482   4.764
 6224TIP3    H118678   1.643   2.511   4.854
 6224TIP3    H218679   1.607   2.389   4.771
 6225TIP3   OH218680   1.292   4.651   0.244
 6225TIP3    H118681   1.253   4.672   0.160
 6225TIP3    H218682   1.293   4.555   0.247
 6226TIP3   OH218683   4.825   2.678   2.709
 6226TIP3    H118684   4.815   2.602   2.652
 6226TIP3    H218685   4.754   2.736   2.683
 6227TIP3   OH218686   5.188   3.650   0.333
 6227TIP3    H118687   5.201   3.734   0.289
 6227TIP3    H218688   5.277   3.615   0.343
 6228TIP3   OH218689   1.039   1.097   2.894
 6228TIP3    H118690   0.986   1.112   2.973
 6228TIP3    H218691   1.072   1.183   2.871
 6229TIP3   OH218692   0.219   3.603   1.309
 6229TIP3    H118693   0.166   3.677   1.338
 6229TIP3    H218694   0.271   3.638   1.237
 6230TIP3   OH218695   0.895   2.622   1.503
 6230TIP3    H118696   0.930   2.543   1.463
 6230TIP3    H218697   0.914   2.691   1.440
 6231TIP3   OH218698   0.221   1.804   1.965
 6231TIP3    H118699   0.231   1.854   2.046
 6231TIP3    H218700   0.306   1.762   1.951
 6232TIP3   OH218701   5.878   3.106   1.943
 6232TIP3    H118702   5.784   3.099   1.958
 6232TIP3    H218703   5.888   3.180   1.884
 6233TIP3   OH218704   0.646   4.630   3.855
 6233TIP3    H118705   0.691   4.714   3.851
 6233TIP3    H218706   0.589   4.636   3.932
 6234TIP3   OH218707   3.237   1.238   4.861
 6234TIP3    H118708   3.290   1.292   4.803
 6234TIP3    H218709   3.260   1.148   4.838
 6235TIP3   OH218710   2.030   1.728   3.794
 6235TIP3    H118711   1.939   1.755   3.781
 6235TIP3    H218712   2.070   1.734   3.707
 6236TIP3   OH218713   5.383   0.244   0.601
 6236TIP3    H118714   5.456   0.203   0.554
 6236TIP3    H218715   5.382   0.334   0.568
 6237TIP3   OH218716   6.259   3.076   2.413
 6237TIP3    H118717   6.205   3.152   2.392
 6237TIP3    H218718   6.223   3.044   2.496
 6238TIP3   OH218719   5.413   3.882   3.260
 6238TIP3    H118720   5.453   3.797   3.274
 6238TIP3    H218721   5.484   3.945   3.271
 6239TIP3   OH218722   1.740   3.216   0.195
 6239TIP3    H118723   1.690   3.160   0.255
 6239TIP3    H218724   1.831   3.205   0.222
 6240TIP3   OH218725   4.129   3.993   1.399
 6240TIP3    H118726   4.162   4.076   1.366
 6240TIP3    H218727   4.095   3.948   1.322
 6241TIP3   OH218728   4.744   5.011   3.871
 6241TIP3    H118729   4.685   5.086   3.877
 6241TIP3    H218730   4.831   5.048   3.881
 6242TIP3   OH218731   6.009   2.263   3.296
 6242TIP3    H118732   6.080   2.216   3.339
 6242TIP3    H218733   6.027   2.254   3.202
 6243TIP3   OH218734   5.634   4.511   0.861
 6243TIP3    H118735   5.613   4.561   0.939
 6243TIP3    H218736   5.676   4.575   0.802
 6244TIP3   OH218737   2.173   4.915   2.993
 6244TIP3    H118738   2.268   4.917   3.003
 6244TIP3    H218739   2.143   4.848   3.054
 6245TIP3   OH218740   5.228   3.586   4.059
 6245TIP3    H118741   5.217   3.517   4.125
 6245TIP3    H218742   5.173   3.558   3.986
 6246TIP3   OH218743   2.412   0.245   0.956
 6246TIP3    H118744   2.480   0.311   0.942
 6246TIP3    H218745   2.345   0.289   1.007
 6247TIP3   OH218746   1.813   4.142   0.825
 6247TIP3    H118747   1.906   4.163   0.838
 6247TIP3    H218748   1.812   4.048   0.809
 6248TIP3   OH218749   5.402   3.897   2.760
 6248TIP3    H118750   5.422   3.899   2.667
 6248TIP3    H218751   5.487   3.888   2.803
 6249TIP3   OH218752   0.022   5.885   3.289
 6249TIP3    H118753   0.109   5.847   3.285
 6249TIP3    H218754   0.019   5.930   3.373
 6250TIP3   OH218755   0.083   0.599   0.442
 6250TIP3    H118756   0.031   0.523   0.414
 6250TIP3    H218757   0.052   0.671   0.387
 6251TIP3   OH218758   0.020   0.687   2.407
 6251TIP3    H118759  -0.008   0.646   2.489
 6251TIP3    H218760   0.097   0.636   2.381
 6252TIP3   OH218761   0.537   5.885   3.617
 6252TIP3    H118762   0.590   5.812   3.646
 6252TIP3    H218763   0.544   5.884   3.521
 6253TIP3   OH218764   5.228   2.603   0.820
 6253TIP3    H118765   5.301   2.656   0.791
 6253TIP3    H218766   5.150   2.654   0.797
 6254TIP3   OH218767   3.850   3.001   4.919
 6254TIP3    H118768   3.806   3.062   4.978
 6254TIP3    H218769   3.815   3.022   4.832
 6255TIP3   OH218770   0.171   0.355   3.141
 6255TIP3    H118771   0.252   0.358   3.191
 6255TIP3    H218772   0.197   0.378   3.052
 6256TIP3   OH218773   1.401   1.918   2.085
 6256TIP3    H118774   1.485   1.887   2.051
 6256TIP3    H218775   1.371   1.981   2.019
 6257TIP3   OH218776   6.030   1.522   3.883
 6257TIP3    H118777   6.089   1.549   3.953
 6257TIP3    H218778   6.083   1.462   3.829
 6258TIP3   OH218779   1.104   2.716   4.528
 6258TIP3    H118780   1.132   2.797   4.572
 6258TIP3    H218781   1.009   2.726   4.519
 6259TIP3   OH218782   3.665   5.461   4.894
 6259TIP3    H118783   3.750   5.420   4.901
 6259TIP3    H218784   3.684   5.551   4.865
 6260TIP3   OH218785   4.709   5.267   3.817
 6260TIP3    H118786   4.704   5.324   3.894
 6260TIP3    H218787   4.622   5.269   3.779
 6261TIP3   OH218788   2.401   5.014   3.169
 6261TIP3    H118789   2.434   4.975   3.250
 6261TIP3    H218790   2.440   4.962   3.099
 6262TIP3   OH218791   3.935   4.150   4.960
 6262TIP3    H118792   3.889   4.072   4.928
 6262TIP3    H218793   3.876   4.223   4.938
 6263TIP3   OH218794   1.959   1.257   2.234
 6263TIP3    H118795   2.011   1.337   2.227
 6263TIP3    H218796   1.942   1.232   2.143
 6264TIP3   OH218797   4.870   2.046   2.616
 6264TIP3    H118798   4.940   2.104   2.644
 6264TIP3    H218799   4.789   2.090   2.642
 6265TIP3   OH218800   0.081   4.843   2.524
 6265TIP3    H118801   0.124   4.898   2.589
 6265TIP3    H218802  -0.004   4.884   2.511
 6266TIP3   OH218803   1.158   2.206   0.884
 6266TIP3    H118804   1.186   2.251   0.804
 6266TIP3    H218805   1.145   2.115   0.857
 6267TIP3   OH218806   3.233   4.728   2.738
 6267TIP3    H118807   3.162   4.666   2.718
 6267TIP3    H218808   3.309   4.693   2.693
 6268TIP3   OH218809   1.748   3.213   4.552
 6268TIP3    H118810   1.687   3.149   4.514
 6268TIP3    H218811   1.783   3.170   4.630
 6269TIP3   OH218812   2.851   0.853   2.341
 6269TIP3    H118813   2.876   0.838   2.250
 6269TIP3    H218814   2.787   0.784   2.360
 6270TIP3   OH218815   1.678   4.744   1.536
 6270TIP3    H118816   1.664   4.762   1.629
 6270TIP3    H218817   1.652   4.653   1.525
 6271TIP3   OH218818   3.088   4.297   0.315
 6271TIP3    H118819   3.066   4.381   0.275
 6271TIP3    H218820   3.005   4.248   0.313
 6272TIP3   OH218821   3.011   2.559   4.228
 6272TIP3    H118822   3.036   2.575   4.137
 6272TIP3    H218823   3.049   2.474   4.248
 6273TIP3   OH218824   3.942   3.127   4.055
 6273TIP3    H118825   3.860   3.087   4.026
 6273TIP3    H218826   3.938   3.217   4.021
 6274TIP3   OH218827   4.664   0.739   4.829
 6274TIP3    H118828   4.677   0.822   4.781
 6274TIP3    H218829   4.682   0.761   4.920
 6275TIP3   OH218830   2.472   4.187   0.218
 6275TIP3    H118831   2.400   4.172   0.156
 6275TIP3    H218832   2.510   4.100   0.231
 6276TIP3   OH218833   1.007   5.524   4.305
 6276TIP3    H118834   0.913   5.506   4.303
 6276TIP3    H218835   1.026   5.544   4.396
 6277TIP3   OH218836   5.633   1.367   1.407
 6277TIP3    H118837   5.631   1.458   1.438
 6277TIP3    H218838   5.595   1.316   1.478
 6278TIP3   OH218839   1.176   4.818   2.988
 6278TIP3    H118840   1.251   4.765   2.962
 6278TIP3    H218841   1.212   4.887   3.043
 6279TIP3   OH218842   0.763   5.680   0.734
 6279TIP3    H118843   0.706   5.623   0.786
 6279TIP3    H218844   0.825   5.716   0.797
 6280TIP3   OH218845   3.611   0.554   0.184
 6280TIP3    H118846   3.692   0.585   0.224
 6280TIP3    H218847   3.545   0.619   0.207
 6281TIP3   OH218848   5.709   0.048   4.450
 6281TIP3    H118849   5.796   0.077   4.477
 6281TIP3    H218850   5.713   0.044   4.354
 6282TIP3   OH218851   0.908   0.641   4.361
 6282TIP3    H118852   0.997   0.637   4.396
 6282TIP3    H218853   0.914   0.697   4.284
 6283TIP3   OH218854   5.280   2.446   2.708
 6283TIP3    H118855   5.251   2.494   2.785
 6283TIP3    H218856   5.364   2.487   2.685
 6284TIP3   OH218857   4.200   3.178   0.340
 6284TIP3    H118858   4.168   3.266   0.361
 6284TIP3    H218859   4.285   3.193   0.298
 6285TIP3   OH218860   5.934   0.903   3.991
 6285TIP3    H118861   5.930   0.813   3.960
 6285TIP3    H218862   6.013   0.939   3.949
 6286TIP3   OH218863   4.801   5.771   2.151
 6286TIP3    H118864   4.783   5.815   2.068
 6286TIP3    H218865   4.826   5.840   2.211
 6287TIP3   OH218866   2.795   2.297   3.448
 6287TIP3    H118867   2.798   2.364   3.516
 6287TIP3    H218868   2.884   2.260   3.448
 6288TIP3   OH218869   2.956   2.161   3.773
 6288TIP3    H118870   2.972   2.209   3.692
 6288TIP3    H218871   3.003   2.210   3.840
 6289TIP3   OH218872   0.651   0.465   3.098
 6289TIP3    H118873   0.575   0.469   3.156
 6289TIP3    H218874   0.620   0.502   3.015
 6290TIP3   OH218875   3.555   0.714   1.889
 6290TIP3    H118876   3.588   0.682   1.973
 6290TIP3    H218877   3.631   0.756   1.848
 6291TIP3   OH218878   3.565   5.151   0.985
 6291TIP3    H118879   3.531   5.215   1.047
 6291TIP3    H218880   3.552   5.066   1.028
 6292TIP3   OH218881   2.327   0.572   0.878
 6292TIP3    H118882   2.418   0.562   0.906
 6292TIP3    H218883   2.292   0.643   0.931
 6293TIP3   OH218884   4.258   1.850   3.943
 6293TIP3    H118885   4.203   1.915   3.987
 6293TIP3    H218886   4.198   1.805   3.884
 6294TIP3   OH218887   4.960   2.817   4.684
 6294TIP3    H118888   4.927   2.902   4.656
 6294TIP3    H218889   4.885   2.773   4.724
 6295TIP3   OH218890   2.691   2.722   3.531
 6295TIP3    H118891   2.713   2.634   3.562
 6295TIP3    H218892   2.597   2.719   3.513
 6296TIP3   OH218893   2.617   4.177   1.766
 6296TIP3    H118894   2.558   4.250   1.746
 6296TIP3    H218895   2.703   4.218   1.778
 6297TIP3   OH218896   4.141   0.349   4.052
 6297TIP3    H118897   4.139   0.254   4.048
 6297TIP3    H218898   4.182   0.377   3.970
 6298TIP3   OH218899   0.774   3.245   2.875
 6298TIP3    H118900   0.712   3.181   2.910
 6298TIP3    H218901   0.755   3.248   2.781
 6299TIP3   OH218902   1.498   2.767   1.627
 6299TIP3    H118903   1.520   2.808   1.544
 6299TIP3    H218904   1.582   2.757   1.672
 6300TIP3   OH218905   5.092   4.593   5.168
 6300TIP3    H118906   5.083   4.556   5.080
 6300TIP3    H218907   5.101   4.517   5.226
 6301TIP3   OH218908   1.108   4.130   3.498
 6301TIP3    H118909   1.018   4.129   3.530
 6301TIP3    H218910   1.161   4.136   3.577
 6302TIP3   OH218911   3.523   4.169   0.297
 6302TIP3    H118912   3.596   4.111   0.275
 6302TIP3    H218913   3.534   4.187   0.390
 6303TIP3   OH218914   5.569   3.899   5.149
 6303TIP3    H118915   5.633   3.829   5.136
 6303TIP3    H218916   5.486   3.853   5.164
 6304TIP3   OH218917   5.229   5.805   2.797
 6304TIP3    H118918   5.268   5.730   2.754
 6304TIP3    H218919   5.140   5.810   2.761
 6305TIP3   OH218920   2.328   5.751   5.165
 6305TIP3    H118921   2.315   5.657   5.179
 6305TIP3    H218922   2.400   5.755   5.101
 6306TIP3   OH218923   3.282   4.256   0.153
 6306TIP3    H118924   3.208   4.284   0.207
 6306TIP3    H218925   3.348   4.227   0.217
 6307TIP3   OH218926   0.427   4.088   4.211
 6307TIP3    H118927   0.334   4.085   4.187
 6307TIP3    H218928   0.456   4.175   4.182
 6308TIP3   OH218929   2.607   5.511   1.387
 6308TIP3    H118930   2.688   5.463   1.406
 6308TIP3    H218931   2.600   5.509   1.292
 6309TIP3   OH218932   2.455   3.494   4.902
 6309TIP3    H118933   2.373   3.528   4.867
 6309TIP3    H218934   2.442   3.399   4.905
 6310TIP3   OH218935   4.195   1.932   0.158
 6310TIP3    H118936   4.222   1.897   0.243
 6310TIP3    H218937   4.108   1.896   0.144
 6311TIP3   OH218938   5.584   2.576   0.977
 6311TIP3    H118939   5.615   2.549   0.890
 6311TIP3    H218940   5.536   2.657   0.960
 6312TIP3   OH218941   2.461   4.682   0.924
 6312TIP3    H118942   2.521   4.635   0.866
 6312TIP3    H218943   2.375   4.671   0.884
 6313TIP3   OH218944   2.542   3.393   1.093
 6313TIP3    H118945   2.537   3.410   0.999
 6313TIP3    H218946   2.477   3.325   1.109
 6314TIP3   OH218947   4.360  -0.003   0.087
 6314TIP3    H118948   4.441  -0.043   0.118
 6314TIP3    H218949   4.360   0.085   0.125
 6315TIP3   OH218950   5.741   5.461   1.193
 6315TIP3    H118951   5.793   5.451   1.273
 6315TIP3    H218952   5.805   5.470   1.123
 6316TIP3   OH218953   0.969   0.345   4.422
 6316TIP3    H118954   0.978   0.417   4.361
 6316TIP3    H218955   0.911   0.379   4.491
 6317TIP3   OH218956   5.102   2.914   2.275
 6317TIP3    H118957   5.124   3.006   2.261
 6317TIP3    H218958   5.081   2.881   2.187
 6318TIP3   OH218959   2.832   3.227   2.938
 6318TIP3    H118960   2.769   3.296   2.918
 6318TIP3    H218961   2.808   3.198   3.026
 6319TIP3   OH218962   2.855   4.156   1.226
 6319TIP3    H118963   2.849   4.065   1.254
 6319TIP3    H218964   2.788   4.165   1.158
 6320TIP3   OH218965   4.252   3.312   3.242
 6320TIP3    H118966   4.271   3.241   3.303
 6320TIP3    H218967   4.295   3.389   3.279
 6321TIP3   OH218968   5.448   0.991   3.923
 6321TIP3    H118969   5.388   1.045   3.872
 6321TIP3    H218970   5.457   1.038   4.006
 6322TIP3   OH218971   4.329   3.068   1.536
 6322TIP3    H118972   4.318   3.002   1.467
 6322TIP3    H218973   4.255   3.053   1.595
 6323TIP3   OH218974   1.442   1.201   1.243
 6323TIP3    H118975   1.365   1.179   1.295
 6323TIP3    H218976   1.446   1.297   1.244
 6324TIP3   OH218977   5.889   2.348   1.654
 6324TIP3    H118978   5.862   2.277   1.712
 6324TIP3    H218979   5.957   2.394   1.703
 6325TIP3   OH218980   1.428   1.946   0.101
 6325TIP3    H118981   1.336   1.973   0.097
 6325TIP3    H218982   1.447   1.940   0.195
 6326TIP3   OH218983   5.710   4.772   0.436
 6326TIP3    H118984   5.639   4.769   0.371
 6326TIP3    H218985   5.740   4.863   0.433
 6327TIP3   OH218986   4.919   2.406   2.830
 6327TIP3    H118987   4.964   2.325   2.852
 6327TIP3    H218988   4.900   2.399   2.737
 6328TIP3   OH218989   2.552   1.748   4.697
 6328TIP3    H118990   2.505   1.743   4.614
 6328TIP3    H218991   2.518   1.827   4.738
 6329TIP3   OH218992   5.001   1.900   3.359
 6329TIP3    H118993   5.023   1.818   3.313
 6329TIP3    H218994   4.941   1.945   3.299
 6330TIP3   OH218995   2.243   4.126   3.251
 6330TIP3    H118996   2.260   4.077   3.171
 6330TIP3    H218997   2.330   4.145   3.287
 6331TIP3   OH218998   0.601   2.885   3.384
 6331TIP3    H118999   0.564   2.965   3.420
 6331TIP3    H219000   0.669   2.860   3.447
 6332TIP3   OH219001   2.668   5.319   5.081
 6332TIP3    H119002   2.721   5.360   5.149
 6332TIP3    H219003   2.730   5.298   5.011
 6333TIP3   OH219004   3.868   1.430   2.575
 6333TIP3    H119005   3.873   1.516   2.617
 6333TIP3    H219006   3.780   1.399   2.595
 6334TIP3   OH219007   4.842   3.353   2.352
 6334TIP3    H119008   4.808   3.408   2.423
 6334TIP3    H219009   4.891   3.414   2.296
 6335TIP3   OH219010   0.046   1.790   2.775
 6335TIP3    H119011   0.032   1.879   2.742
 6335TIP3    H219012  -0.043   1.754   2.780
 6336TIP3   OH219013   3.400   1.861   4.745
 6336TIP3    H119014   3.410   1.947   4.703
 6336TIP3    H219015   3.450   1.868   4.826
 6337TIP3   OH219016   0.549   2.628   3.716
 6337TIP3    H119017   0.628   2.677   3.692
 6337TIP3    H219018   0.493   2.693   3.758
 6338TIP3   OH219019   0.483   3.547   3.434
 6338TIP3    H119020   0.506   3.639   3.443
 6338TIP3    H219021   0.552   3.510   3.378
 6339TIP3   OH219022   2.322   2.992   0.665
 6339TIP3    H119023   2.372   2.987   0.746
 6339TIP3    H219024   2.230   2.997   0.693
 6340TIP3   OH219025   1.462   5.707   4.093
 6340TIP3    H119026   1.396   5.639   4.081
 6340TIP3    H219027   1.505   5.684   4.175
 6341TIP3   OH219028   3.478   1.871   5.093
 6341TIP3    H119029   3.420   1.947   5.092
 6341TIP3    H219030   3.548   1.893   5.031
 6342TIP3   OH219031   1.902   4.091   4.801
 6342TIP3    H119032   1.907   4.171   4.853
 6342TIP3    H219033   1.975   4.037   4.834
 6343TIP3   OH219034   0.596   0.290   0.368
 6343TIP3    H119035   0.657   0.289   0.441
 6343TIP3    H219036   0.571   0.198   0.356
 6344TIP3   OH219037   2.297   1.916   4.252
 6344TIP3    H119038   2.233   1.909   4.323
 6344TIP3    H219039   2.248   1.895   4.173
 6345TIP3   OH219040   5.943   3.141   4.944
 6345TIP3    H119041   5.970   3.049   4.944
 6345TIP3    H219042   5.981   3.177   4.863
 6346TIP3   OH219043   1.449   5.093   2.357
 6346TIP3    H119044   1.363   5.137   2.355
 6346TIP3    H219045   1.506   5.154   2.404
 6347TIP3   OH219046   0.872   1.999   1.439
 6347TIP3    H119047   0.936   1.928   1.450
 6347TIP3    H219048   0.852   2.025   1.529
 6348TIP3   OH219049   1.964   2.270   1.687
 6348TIP3    H119050   1.986   2.251   1.596
 6348TIP3    H219051   1.961   2.184   1.730
 6349TIP3   OH219052   3.324   1.746   4.509
 6349TIP3    H119053   3.339   1.780   4.597
 6349TIP3    H219054   3.229   1.750   4.498
 6350TIP3   OH219055   0.751   3.784   2.596
 6350TIP3    H119056   0.715   3.790   2.684
 6350TIP3    H219057   0.771   3.875   2.572
 6351TIP3   OH219058   4.580   2.847   4.576
 6351TIP3    H119059   4.609   2.787   4.507
 6351TIP3    H219060   4.655   2.903   4.594
 6352TIP3   OH219061   3.683   1.694   2.270
 6352TIP3    H119062   3.750   1.713   2.204
 6352TIP3    H219063   3.699   1.603   2.294
 6353TIP3   OH219064   6.238   2.220   3.901
 6353TIP3    H119065   6.293   2.246   3.974
 6353TIP3    H219066   6.152   2.257   3.920
 6354TIP3   OH219067   2.076   5.680   1.781
 6354TIP3    H119068   2.035   5.752   1.732
 6354TIP3    H219069   2.005   5.642   1.832
 6355TIP3   OH219070   1.624   0.891   0.576
 6355TIP3    H119071   1.701   0.929   0.533
 6355TIP3    H219072   1.626   0.926   0.665
 6356TIP3   OH219073   2.640   2.917   1.952
 6356TIP3    H119074   2.675   2.918   2.042
 6356TIP3    H219075   2.566   2.977   1.955
 6357TIP3   OH219076   2.272   3.930   5.163
 6357TIP3    H119077   2.347   3.876   5.189
 6357TIP3    H219078   2.304   3.983   5.091
 6358TIP3   OH219079   5.850   5.910   5.041
 6358TIP3    H119080   5.909   5.865   5.101
 6358TIP3    H219081   5.881   5.886   4.954
 6359TIP3   OH219082   3.426   2.734   4.059
 6359TIP3    H119083   3.393   2.695   4.140
 6359TIP3    H219084   3.493   2.796   4.089
 6360TIP3   OH219085   2.472   5.100   1.523
 6360TIP3    H119086   2.401   5.051   1.564
 6360TIP3    H219087   2.481   5.179   1.576
 6361TIP3   OH219088   4.577   3.329   1.941
 6361TIP3    H119089   4.562   3.356   2.031
 6361TIP3    H219090   4.585   3.412   1.892
 6362TIP3   OH219091   2.284   5.500   3.859
 6362TIP3    H119092   2.234   5.426   3.894
 6362TIP3    H219093   2.372   5.464   3.845
 6363TIP3   OH219094   4.038   2.067   3.577
 6363TIP3    H119095   4.027   2.056   3.671
 6363TIP3    H219096   4.011   2.157   3.560
 6364TIP3   OH219097   0.325   5.480   1.562
 6364TIP3    H119098   0.389   5.546   1.590
 6364TIP3    H219099   0.376   5.417   1.511
 6365TIP3   OH219100   1.239   4.102   0.024
 6365TIP3    H119101   1.193   4.057  -0.046
 6365TIP3    H219102   1.191   4.078   0.104
 6366TIP3   OH219103   6.224   3.401   0.915
 6366TIP3    H119104   6.317   3.388   0.897
 6366TIP3    H219105   6.181   3.322   0.882
 6367TIP3   OH219106   4.541   4.206   4.469
 6367TIP3    H119107   4.471   4.142   4.455
 6367TIP3    H219108   4.497   4.291   4.463
 6368TIP3   OH219109   0.221   1.553   3.538
 6368TIP3    H119110   0.157   1.553   3.466
 6368TIP3    H219111   0.300   1.591   3.500
 6369TIP3   OH219112   2.627   3.367   3.933
 6369TIP3    H119113   2.619   3.434   4.001
 6369TIP3    H219114   2.671   3.294   3.975
 6370TIP3   OH219115   1.467   2.590   4.494
 6370TIP3    H119116   1.387   2.626   4.533
 6370TIP3    H219117   1.531   2.660   4.504
 6371TIP3   OH219118   2.184   1.221   4.078
 6371TIP3    H119119   2.255   1.203   4.016
 6371TIP3    H219120   2.219   1.193   4.163
 6372TIP3   OH219121   5.773   5.657   2.167
 6372TIP3    H119122   5.743   5.735   2.121
 6372TIP3    H219123   5.853   5.630   2.121
 6373TIP3   OH219124   0.808   3.123   0.114
 6373TIP3    H119125   0.872   3.193   0.121
 6373TIP3    H219126   0.741   3.144   0.179
 6374TIP3   OH219127   1.653   1.317   1.564
 6374TIP3    H119128   1.693   1.261   1.497
 6374TIP3    H219129   1.559   1.308   1.550
 6375TIP3   OH219130   5.277   3.962   1.599
 6375TIP3    H119131   5.280   3.870   1.625
 6375TIP3    H219132   5.358   3.975   1.549
 6376TIP3   OH219133   2.592   0.641   4.756
 6376TIP3    H119134   2.587   0.603   4.668
 6376TIP3    H219135   2.628   0.728   4.741
 6377TIP3   OH219136   3.050   3.820   2.119
 6377TIP3    H119137   3.021   3.735   2.154
 6377TIP3    H219138   2.971   3.860   2.085
 6378TIP3   OH219139   1.445   0.587   3.294
 6378TIP3    H119140   1.485   0.654   3.239
 6378TIP3    H219141   1.461   0.616   3.383
 6379TIP3   OH219142   5.529   2.688   4.789
 6379TIP3    H119143   5.448   2.641   4.767
 6379TIP3    H219144   5.564   2.642   4.865
 6380TIP3   OH219145   2.469   3.076   2.105
 6380TIP3    H119146   2.380   3.110   2.090
 6380TIP3    H219147   2.508   3.137   2.168
 6381TIP3   OH219148   4.665   1.419   4.536
 6381TIP3    H119149   4.634   1.474   4.608
 6381TIP3    H219150   4.612   1.446   4.461
 6382TIP3   OH219151   6.400   3.185   4.211
 6382TIP3    H119152   6.322   3.135   4.236
 6382TIP3    H219153   6.372   3.277   4.216
 6383TIP3   OH219154   0.102   5.703   0.290
 6383TIP3    H119155   0.055   5.772   0.338
 6383TIP3    H219156   0.065   5.621   0.324
 6384TIP3   OH219157   2.834   0.588   2.562
 6384TIP3    H119158   2.819   0.563   2.653
 6384TIP3    H219159   2.909   0.647   2.565
 6385TIP3   OH219160   4.759   5.847   3.404
 6385TIP3    H119161   4.667   5.871   3.404
 6385TIP3    H219162   4.804   5.923   3.440
 6386TIP3   OH219163   1.123   3.638   3.746
 6386TIP3    H119164   1.172   3.557   3.736
 6386TIP3    H219165   1.137   3.664   3.837
 6387TIP3   OH219166   3.089   1.431   1.034
 6387TIP3    H119167   3.127   1.344   1.046
 6387TIP3    H219168   3.086   1.467   1.122
 6388TIP3   OH219169   1.624   2.020   2.366
 6388TIP3    H119170   1.571   2.095   2.340
 6388TIP3    H219171   1.683   2.054   2.434
 6389TIP3   OH219172   4.449   2.907   4.213
 6389TIP3    H119173   4.454   2.893   4.308
 6389TIP3    H219174   4.370   2.961   4.201
 6390TIP3   OH219175   4.377   4.486   5.038
 6390TIP3    H119176   4.358   4.552   4.971
 6390TIP3    H219177   4.457   4.443   5.008
 6391TIP3   OH219178   4.659   0.531   1.693
 6391TIP3    H119179   4.576   0.537   1.646
 6391TIP3    H219180   4.700   0.451   1.660
 6392TIP3   OH219181   0.614   5.932   0.715
 6392TIP3    H119182   0.632   5.839   0.724
 6392TIP3    H219183   0.562   5.955   0.792
 6393TIP3   OH219184   5.962   3.245   2.572
 6393TIP3    H119185   5.956   3.154   2.542
 6393TIP3    H219186   5.873   3.280   2.561
 6394TIP3   OH219187   2.815   5.260   4.816
 6394TIP3    H119188   2.895   5.238   4.768
 6394TIP3    H219189   2.778   5.335   4.769
 6395TIP3   OH219190   6.258   0.672   0.667
 6395TIP3    H119191   6.259   0.763   0.697
 6395TIP3    H219192   6.317   0.671   0.592
 6396TIP3   OH219193   5.458   5.508   2.113
 6396TIP3    H119194   5.508   5.431   2.139
 6396TIP3    H219195   5.434   5.550   2.196
 6397TIP3   OH219196   4.619   4.088   0.589
 6397TIP3    H119197   4.556   4.109   0.658
 6397TIP3    H219198   4.648   3.999   0.610
 6398TIP3   OH219199   0.401   2.614   0.297
 6398TIP3    H119200   0.429   2.688   0.351
 6398TIP3    H219201   0.476   2.597   0.239
 6399TIP3   OH219202   4.676   3.381   4.537
 6399TIP3    H119203   4.770   3.384   4.516
 6399TIP3    H219204   4.662   3.456   4.595
 6400TIP3   OH219205   4.941   3.733   1.144
 6400TIP3    H119206   4.960   3.639   1.145
 6400TIP3    H219207   4.851   3.739   1.112
 6401TIP3   OH219208   2.707   0.558   2.930
 6401TIP3    H119209   2.803   0.556   2.938
 6401TIP3    H219210   2.683   0.467   2.914
 6402TIP3   OH219211   0.086   4.356   2.098
 6402TIP3    H119212   0.128   4.271   2.087
 6402TIP3    H219213   0.008   4.339   2.150
 6403TIP3   OH219214   2.811   0.618   0.599
 6403TIP3    H119215   2.743   0.573   0.549
 6403TIP3    H219216   2.860   0.547   0.641
 6404TIP3   OH219217   3.863   5.079   1.388
 6404TIP3    H119218   3.788   5.064   1.445
 6404TIP3    H219219   3.837   5.151   1.331
 6405TIP3   OH219220   1.656   4.338   2.072
 6405TIP3    H119221   1.729   4.275   2.066
 6405TIP3    H219222   1.697   4.419   2.102
 6406TIP3   OH219223   0.449   4.206   2.164
 6406TIP3    H119224   0.362   4.171   2.145
 6406TIP3    H219225   0.492   4.210   2.079
 6407TIP3   OH219226   1.780   3.908   1.245
 6407TIP3    H119227   1.781   3.866   1.158
 6407TIP3    H219228   1.836   3.985   1.235
 6408TIP3   OH219229   5.095   1.585   4.698
 6408TIP3    H119230   5.019   1.533   4.669
 6408TIP3    H219231   5.142   1.526   4.757
 6409TIP3   OH219232   0.150   5.187   3.130
 6409TIP3    H119233   0.096   5.108   3.122
 6409TIP3    H219234   0.238   5.157   3.106
 6410TIP3   OH219235   0.445   3.299   2.268
 6410TIP3    H119236   0.539   3.284   2.267
 6410TIP3    H219237   0.411   3.233   2.328
 6411TIP3   OH219238   2.954   4.714   3.809
 6411TIP3    H119239   2.970   4.710   3.715
 6411TIP3    H219240   2.933   4.806   3.825
 6412TIP3   OH219241   2.277   5.024   1.756
 6412TIP3    H119242   2.250   5.116   1.758
 6412TIP3    H219243   2.217   4.979   1.816
 6413TIP3   OH219244   0.055   3.228   1.393
 6413TIP3    H119245   0.050   3.193   1.304
 6413TIP3    H219246  -0.034   3.261   1.410
 6414TIP3   OH219247   1.109   1.305   0.183
 6414TIP3    H119248   1.185   1.259   0.148
 6414TIP3    H219249   1.034   1.255   0.150
 6415TIP3   OH219250   3.467   0.370   4.932
 6415TIP3    H119251   3.453   0.392   5.024
 6415TIP3    H219252   3.455   0.454   4.886
 6416TIP3   OH219253   2.864   4.893   2.419
 6416TIP3    H119254   2.788   4.881   2.476
 6416TIP3    H219255   2.871   4.809   2.372
 6417TIP3   OH219256   3.494   3.907   2.489
 6417TIP3    H119257   3.474   3.815   2.474
 6417TIP3    H219258   3.589   3.911   2.492
 6418TIP3   OH219259   2.450   1.707   4.108
 6418TIP3    H119260   2.531   1.656   4.103
 6418TIP3    H219261   2.480   1.797   4.122
 6419TIP3   OH219262   1.611   4.007   4.841
 6419TIP3    H119263   1.638   3.950   4.913
 6419TIP3    H219264   1.649   3.968   4.763
 6420TIP3   OH219265   3.024   2.862   2.751
 6420TIP3    H119266   3.004   2.901   2.665
 6420TIP3    H219267   3.113   2.890   2.769
 6421TIP3   OH219268   2.210   2.941   1.128
 6421TIP3    H119269   2.283   2.891   1.166
 6421TIP3    H219270   2.132   2.906   1.171
 6422TIP3   OH219271   3.995   1.287   0.742
 6422TIP3    H119272   3.918   1.336   0.771
 6422TIP3    H219273   3.996   1.210   0.798
 6423TIP3   OH219274   4.287   2.297   4.618
 6423TIP3    H119275   4.346   2.356   4.572
 6423TIP3    H219276   4.246   2.351   4.686
 6424TIP3   OH219277   3.239   5.375   1.271
 6424TIP3    H119278   3.191   5.404   1.348
 6424TIP3    H219279   3.176   5.322   1.222
 6425TIP3   OH219280   1.996   0.295   2.679
 6425TIP3    H119281   2.086   0.263   2.688
 6425TIP3    H219282   1.947   0.220   2.645
 6426TIP3   OH219283   4.852   5.852   1.461
 6426TIP3    H119284   4.767   5.859   1.418
 6426TIP3    H219285   4.905   5.921   1.420
 6427TIP3   OH219286   2.244   3.831   2.376
 6427TIP3    H119287   2.208   3.900   2.433
 6427TIP3    H219288   2.316   3.793   2.427
 6428TIP3   OH219289   0.368   4.331   2.515
 6428TIP3    H119290   0.369   4.239   2.491
 6428TIP3    H219291   0.457   4.349   2.547
 6429TIP3   OH219292   4.056   5.724   3.817
 6429TIP3    H119293   4.093   5.790   3.876
 6429TIP3    H219294   4.131   5.669   3.793
 6430TIP3   OH219295   4.311   5.930   5.180
 6430TIP3    H119296   4.326   5.859   5.117
 6430TIP3    H219297   4.399   5.964   5.198
 6431TIP3   OH219298   4.038   0.834   3.420
 6431TIP3    H119299   4.099   0.889   3.468
 6431TIP3    H219300   4.012   0.888   3.345
 6432TIP3   OH219301   1.732   3.491   3.902
 6432TIP3    H119302   1.828   3.495   3.899
 6432TIP3    H219303   1.704   3.535   3.822
 6433TIP3   OH219304   5.757   2.656   0.110
 6433TIP3    H119305   5.853   2.649   0.109
 6433TIP3    H219306   5.740   2.727   0.172
 6434TIP3   OH219307   3.248   2.985   4.962
 6434TIP3    H119308   3.278   2.937   4.885
 6434TIP3    H219309   3.187   3.050   4.927
 6435TIP3   OH219310   2.949   1.338   3.739
 6435TIP3    H119311   2.960   1.430   3.716
 6435TIP3    H219312   3.025   1.294   3.699
 6436TIP3   OH219313   0.793   5.554   2.551
 6436TIP3    H119314   0.719   5.509   2.592
 6436TIP3    H219315   0.773   5.647   2.559
 6437TIP3   OH219316   2.152   5.331   0.958
 6437TIP3    H119317   2.183   5.259   1.014
 6437TIP3    H219318   2.068   5.301   0.925
 6438TIP3   OH219319   5.615   2.427   3.399
 6438TIP3    H119320   5.704   2.403   3.426
 6438TIP3    H219321   5.606   2.389   3.312
 6439TIP3   OH219322   5.033   3.729   0.860
 6439TIP3    H119323   5.085   3.765   0.931
 6439TIP3    H219324   5.050   3.635   0.863
 6440TIP3   OH219325   3.839   3.889   4.503
 6440TIP3    H119326   3.802   3.975   4.523
 6440TIP3    H219327   3.766   3.828   4.512
 6441TIP3   OH219328   3.924   5.220   2.824
 6441TIP3    H119329   3.856   5.283   2.848
 6441TIP3    H219330   3.974   5.207   2.904
 6442TIP3   OH219331   5.411   2.236   2.533
 6442TIP3    H119332   5.405   2.332   2.536
 6442TIP3    H219333   5.498   2.216   2.566
 6443TIP3   OH219334   5.348   5.984   0.557
 6443TIP3    H119335   5.382   5.950   0.640
 6443TIP3    H219336   5.271   5.931   0.538
 6444TIP3   OH219337   0.336   3.110   2.754
 6444TIP3    H119338   0.330   3.129   2.848
 6444TIP3    H219339   0.291   3.026   2.743
 6445TIP3   OH219340   0.895   5.525   1.459
 6445TIP3    H119341   0.990   5.536   1.450
 6445TIP3    H219342   0.884   5.481   1.543
 6446TIP3   OH219343   3.942   0.132   0.534
 6446TIP3    H119344   3.933   0.037   0.543
 6446TIP3    H219345   4.018   0.154   0.587
 6447TIP3   OH219346   4.035   4.402   1.331
 6447TIP3    H119347   3.986   4.468   1.281
 6447TIP3    H219348   4.120   4.443   1.347
 6448TIP3   OH219349   5.637   2.233   1.492
 6448TIP3    H119350   5.721   2.275   1.508
 6448TIP3    H219351   5.616   2.188   1.574
 6449TIP3   OH219352   3.838   3.808   1.963
 6449TIP3    H119353   3.776   3.743   1.996
 6449TIP3    H219354   3.914   3.756   1.935
 6450TIP3   OH219355   1.054   2.433   1.770
 6450TIP3    H119356   1.045   2.448   1.676
 6450TIP3    H219357   1.023   2.343   1.783
 6451TIP3   OH219358   1.117   2.331   2.089
 6451TIP3    H119359   1.067   2.283   2.023
 6451TIP3    H219360   1.051   2.361   2.152
 6452TIP3   OH219361   1.331   2.114   1.853
 6452TIP3    H119362   1.237   2.132   1.861
 6452TIP3    H219363   1.357   2.159   1.772
 6453TIP3   OH219364   0.379   5.991   2.014
 6453TIP3    H119365   0.393   5.982   1.919
 6453TIP3    H219366   0.289   5.962   2.028
 6454TIP3   OH219367   6.198   1.862   4.190
 6454TIP3    H119368   6.180   1.823   4.104
 6454TIP3    H219369   6.181   1.792   4.252
 6455TIP3   OH219370   2.750   2.408   4.846
 6455TIP3    H119371   2.817   2.440   4.905
 6455TIP3    H219372   2.726   2.321   4.880
 6456TIP3   OH219373   0.454   2.812   2.823
 6456TIP3    H119374   0.462   2.816   2.727
 6456TIP3    H219375   0.360   2.803   2.838
 6457TIP3   OH219376   2.560   1.285   3.605
 6457TIP3    H119377   2.530   1.368   3.568
 6457TIP3    H219378   2.580   1.305   3.696
 6458TIP3   OH219379   5.019   5.655   4.885
 6458TIP3    H119380   4.962   5.579   4.884
 6458TIP3    H219381   4.983   5.711   4.953
 6459TIP3   OH219382   5.050   5.385   2.856
 6459TIP3    H119383   5.141   5.374   2.831
 6459TIP3    H219384   5.003   5.319   2.806
 6460TIP3   OH219385   3.737   2.058   0.189
 6460TIP3    H119386   3.781   2.028   0.110
 6460TIP3    H219387   3.685   2.134   0.161
 6461TIP3   OH219388   6.176   4.016   4.203
 6461TIP3    H119389   6.264   3.985   4.181
 6461TIP3    H219390   6.161   3.984   4.292
 6462TIP3   OH219391   5.010   4.806   1.880
 6462TIP3    H119392   4.940   4.869   1.896
 6462TIP3    H219393   5.090   4.850   1.909
 6463TIP3   OH219394   2.720   5.850   3.350
 6463TIP3    H119395   2.645   5.908   3.356
 6463TIP3    H219396   2.784   5.887   3.410
 6464TIP3   OH219397   1.929   5.239   3.574
 6464TIP3    H119398   1.839   5.248   3.606
 6464TIP3    H219399   1.965   5.328   3.580
 6465TIP3   OH219400   5.513   0.931   4.297
 6465TIP3    H119401   5.601   0.923   4.260
 6465TIP3    H219402   5.474   1.006   4.251
 6466TIP3   OH219403   5.043   1.556   0.158
 6466TIP3    H119404   4.993   1.528   0.081
 6466TIP3    H219405   5.103   1.484   0.175
 6467TIP3   OH219406   0.278   0.584   5.106
 6467TIP3    H119407   0.188   0.598   5.078
 6467TIP3    H219408   0.304   0.502   5.066
 6468TIP3   OH219409   0.368   5.489   3.755
 6468TIP3    H119410   0.422   5.464   3.830
 6468TIP3    H219411   0.426   5.483   3.680
 6469TIP3   OH219412   1.592   4.598   0.593
 6469TIP3    H119413   1.599   4.678   0.645
 6469TIP3    H219414   1.611   4.528   0.655
 6470TIP3   OH219415   0.578   0.786   2.582
 6470TIP3    H119416   0.639   0.793   2.509
 6470TIP3    H219417   0.492   0.799   2.543
 6471TIP3   OH219418   1.994   1.293   3.878
 6471TIP3    H119419   2.076   1.311   3.833
 6471TIP3    H219420   2.019   1.237   3.952
 6472TIP3   OH219421   1.972   5.044   1.319
 6472TIP3    H119422   1.982   5.112   1.252
 6472TIP3    H219423   1.954   5.092   1.400
 6473TIP3   OH219424   1.245   2.940   2.196
 6473TIP3    H119425   1.307   2.912   2.129
 6473TIP3    H219426   1.180   2.870   2.200
 6474TIP3   OH219427   1.513   2.356   4.348
 6474TIP3    H119428   1.502   2.424   4.415
 6474TIP3    H219429   1.607   2.341   4.344
 6475TIP3   OH219430   5.034   4.778   3.206
 6475TIP3    H119431   5.021   4.773   3.111
 6475TIP3    H219432   5.009   4.868   3.228
 6476TIP3   OH219433   2.161   5.337   2.453
 6476TIP3    H119434   2.153   5.388   2.373
 6476TIP3    H219435   2.075   5.298   2.467
 6477TIP3   OH219436   1.426   3.941   3.449
 6477TIP3    H119437   1.388   3.853   3.453
 6477TIP3    H219438   1.411   3.977   3.537
 6478TIP3   OH219439   2.203   3.368   2.828
 6478TIP3    H119440   2.227   3.333   2.913
 6478TIP3    H219441   2.189   3.291   2.773
 6479TIP3   OH219442   3.212   2.612   1.142
 6479TIP3    H119443   3.283   2.652   1.092
 6479TIP3    H219444   3.254   2.542   1.192
 6480TIP3   OH219445   3.454   3.928   4.334
 6480TIP3    H119446   3.365   3.922   4.369
 6480TIP3    H219447   3.508   3.883   4.399
 6481TIP3   OH219448   6.181   4.794   2.862
 6481TIP3    H119449   6.238   4.871   2.867
 6481TIP3    H219450   6.095   4.825   2.891
 6482TIP3   OH219451   2.821   0.578   3.362
 6482TIP3    H119452   2.889   0.557   3.426
 6482TIP3    H219453   2.869   0.610   3.286
 6483TIP3   OH219454   3.746   1.608   3.115
 6483TIP3    H119455   3.708   1.588   3.200
 6483TIP3    H219456   3.672   1.637   3.062
 6484TIP3   OH219457   3.803   0.171   3.661
 6484TIP3    H119458   3.897   0.188   3.671
 6484TIP3    H219459   3.761   0.247   3.701
 6485TIP3   OH219460   2.764   3.968   2.213
 6485TIP3    H119461   2.740   4.060   2.202
 6485TIP3    H219462   2.749   3.930   2.126
 6486TIP3   OH219463   4.877   4.176   5.070
 6486TIP3    H119464   4.902   4.148   4.982
 6486TIP3    H219465   4.842   4.098   5.111
 6487TIP3   OH219466   6.263   1.975   3.004
 6487TIP3    H119467   6.217   1.892   3.019
 6487TIP3    H219468   6.354   1.955   3.024
 6488TIP3   OH219469   5.839   5.844   1.745
 6488TIP3    H119470   5.906   5.907   1.770
 6488TIP3    H219471   5.769   5.898   1.707
 6489TIP3   OH219472   1.471   5.970   3.703
 6489TIP3    H119473   1.502   5.907   3.768
 6489TIP3    H219474   1.540   6.036   3.699
 6490TIP3   OH219475   3.839   0.332   2.069
 6490TIP3    H119476   3.890   0.282   2.133
 6490TIP3    H219477   3.770   0.273   2.041
 6491TIP3   OH219478   2.074   4.768   3.410
 6491TIP3    H119479   2.080   4.857   3.378
 6491TIP3    H219480   2.016   4.723   3.348
 6492TIP3   OH219481   5.689   3.457   1.179
 6492TIP3    H119482   5.716   3.508   1.255
 6492TIP3    H219483   5.593   3.452   1.186
 6493TIP3   OH219484   2.342   2.771   4.367
 6493TIP3    H119485   2.430   2.749   4.397
 6493TIP3    H219486   2.357   2.832   4.294
 6494TIP3   OH219487   3.518   2.743   1.725
 6494TIP3    H119488   3.450   2.752   1.657
 6494TIP3    H219489   3.535   2.832   1.754
 6495TIP3   OH219490   2.744   3.329   1.556
 6495TIP3    H119491   2.677   3.368   1.500
 6495TIP3    H219492   2.734   3.374   1.640
 6496TIP3   OH219493   2.597   4.421   4.078
 6496TIP3    H119494   2.518   4.401   4.029
 6496TIP3    H219495   2.590   4.369   4.158
 6497TIP3   OH219496   5.240   2.537   0.202
 6497TIP3    H119497   5.334   2.529   0.216
 6497TIP3    H219498   5.228   2.626   0.169
 6498TIP3   OH219499   1.524   4.288   5.194
 6498TIP3    H119500   1.596   4.225   5.187
 6498TIP3    H219501   1.560   4.370   5.160
 6499TIP3   OH219502   4.801   4.975   3.565
 6499TIP3    H119503   4.786   4.964   3.659
 6499TIP3    H219504   4.761   5.060   3.544
 6500TIP3   OH219505   5.706   4.484   1.451
 6500TIP3    H119506   5.656   4.455   1.527
 6500TIP3    H219507   5.660   4.562   1.420
 6501TIP3   OH219508   3.018   5.692   3.576
 6501TIP3    H119509   2.997   5.622   3.514
 6501TIP3    H219510   3.043   5.647   3.656
 6502TIP3   OH219511   4.669   5.232   3.451
 6502TIP3    H119512   4.741   5.292   3.472
 6502TIP3    H219513   4.598   5.260   3.508
 6503TIP3   OH219514   3.903   4.354   0.244
 6503TIP3    H119515   3.885   4.307   0.162
 6503TIP3    H219516   3.830   4.331   0.301
 6504TIP3   OH219517   0.946   5.067   1.499
 6504TIP3    H119518   0.921   5.087   1.589
 6504TIP3    H219519   0.865   5.037   1.457
 6505TIP3   OH219520   3.219   4.894   3.603
 6505TIP3    H119521   3.295   4.902   3.546
 6505TIP3    H219522   3.255   4.876   3.689
 6506TIP3   OH219523   0.394   1.255   1.414
 6506TIP3    H119524   0.394   1.187   1.481
 6506TIP3    H219525   0.484   1.254   1.381
 6507TIP3   OH219526   5.193   5.878   2.162
 6507TIP3    H119527   5.205   5.958   2.213
 6507TIP3    H219528   5.282   5.847   2.144
 6508TIP3   OH219529   4.799   2.966   1.399
 6508TIP3    H119530   4.846   2.945   1.318
 6508TIP3    H219531   4.798   2.884   1.448
 6509TIP3   OH219532   6.104   4.293   3.224
 6509TIP3    H119533   6.146   4.301   3.310
 6509TIP3    H219534   6.152   4.223   3.180
 6510TIP3   OH219535   2.106   3.536   2.505
 6510TIP3    H119536   2.065   3.462   2.549
 6510TIP3    H219537   2.153   3.583   2.574
 6511TIP3   OH219538   6.163   4.697   1.113
 6511TIP3    H119539   6.082   4.650   1.096
 6511TIP3    H219540   6.223   4.669   1.044
 6512TIP3   OH219541   2.341   1.574   3.879
 6512TIP3    H119542   2.374   1.629   3.950
 6512TIP3    H219543   2.374   1.615   3.799
 6513TIP3   OH219544   3.450   2.516   0.913
 6513TIP3    H119545   3.527   2.510   0.970
 6513TIP3    H219546   3.478   2.573   0.841
 6514TIP3   OH219547   3.218   0.448   0.062
 6514TIP3    H119548   3.214   0.544   0.063
 6514TIP3    H219549   3.310   0.428   0.047
 6515TIP3   OH219550   0.618   5.391   1.932
 6515TIP3    H119551   0.606   5.321   1.995
 6515TIP3    H219552   0.531   5.408   1.896
 6516TIP3   OH219553   2.408   0.018   4.543
 6516TIP3    H119554   2.366   0.103   4.536
 6516TIP3    H219555   2.450   0.004   4.458
 6517TIP3   OH219556   1.934   3.696   4.533
 6517TIP3    H119557   1.937   3.600   4.531
 6517TIP3    H219558   2.011   3.723   4.482
 6518TIP3   OH219559   0.435   2.386   3.648
 6518TIP3    H119560   0.397   2.394   3.560
 6518TIP3    H219561   0.478   2.470   3.663
 6519TIP3   OH219562   3.383   4.120   4.085
 6519TIP3    H119563   3.473   4.129   4.117
 6519TIP3    H219564   3.350   4.041   4.127
 6520TIP3   OH219565   1.774   3.747   2.601
 6520TIP3    H119566   1.786   3.652   2.607
 6520TIP3    H219567   1.851   3.783   2.645
 6521TIP3   OH219568   4.217   3.389   4.775
 6521TIP3    H119569   4.288   3.334   4.742
 6521TIP3    H219570   4.157   3.398   4.700
 6522TIP3   OH219571   2.398   1.793   4.485
 6522TIP3    H119572   2.318   1.828   4.525
 6522TIP3    H219573   2.391   1.817   4.393
 6523TIP3   OH219574   6.249   1.985   2.127
 6523TIP3    H119575   6.176   1.955   2.180
 6523TIP3    H219576   6.324   1.935   2.160
 6524TIP3   OH219577   4.526   5.696   4.751
 6524TIP3    H119578   4.459   5.713   4.684
 6524TIP3    H219579   4.578   5.776   4.755
 6525TIP3   OH219580   5.313   4.299   3.601
 6525TIP3    H119581   5.396   4.318   3.644
 6525TIP3    H219582   5.335   4.288   3.508
 6526TIP3   OH219583   4.053   0.751   2.125
 6526TIP3    H119584   4.000   0.675   2.149
 6526TIP3    H219585   4.019   0.778   2.040
 6527TIP3   OH219586   6.349   5.030   0.555
 6527TIP3    H119587   6.352   5.088   0.479
 6527TIP3    H219588   6.354   4.942   0.518
 6528TIP3   OH219589   1.271   3.036   0.851
 6528TIP3    H119590   1.303   2.965   0.795
 6528TIP3    H219591   1.185   3.007   0.880
 6529TIP3   OH219592   0.553   3.878   3.618
 6529TIP3    H119593   0.633   3.898   3.666
 6529TIP3    H219594   0.497   3.833   3.681
 6530TIP3   OH219595   4.189   0.512   2.715
 6530TIP3    H119596   4.196   0.575   2.643
 6530TIP3    H219597   4.217   0.429   2.676
 6531TIP3   OH219598   5.466   1.181   3.703
 6531TIP3    H119599   5.557   1.152   3.693
 6531TIP3    H219600   5.465   1.230   3.785
 6532TIP3   OH219601   2.615   0.175   0.434
 6532TIP3    H119602   2.697   0.146   0.474
 6532TIP3    H219603   2.613   0.132   0.349
 6533TIP3   OH219604   1.112   2.712   2.143
 6533TIP3    H119605   1.162   2.676   2.069
 6533TIP3    H219606   1.046   2.768   2.102
 6534TIP3   OH219607   0.931   4.135   5.178
 6534TIP3    H119608   0.890   4.050   5.167
 6534TIP3    H219609   1.022   4.122   5.154
 6535TIP3   OH219610   1.630   4.706   2.587
 6535TIP3    H119611   1.574   4.632   2.564
 6535TIP3    H219612   1.702   4.668   2.637
 6536TIP3   OH219613   4.423   0.809   1.418
 6536TIP3    H119614   4.370   0.887   1.401
 6536TIP3    H219615   4.460   0.786   1.333
 6537TIP3   OH219616   6.030   2.119   0.122
 6537TIP3    H119617   6.051   2.123   0.216
 6537TIP3    H219618   5.968   2.047   0.115
 6538TIP3   OH219619   1.548   0.058   0.222
 6538TIP3    H119620   1.547   0.105   0.306
 6538TIP3    H219621   1.638   0.068   0.190
 6539TIP3   OH219622   4.730   1.589   2.114
 6539TIP3    H119623   4.756   1.662   2.058
 6539TIP3    H219624   4.687   1.631   2.189
 6540TIP3   OH219625   1.597   4.503   5.057
 6540TIP3    H119626   1.541   4.575   5.028
 6540TIP3    H219627   1.632   4.465   4.976
 6541TIP3   OH219628   1.080   3.782   5.154
 6541TIP3    H119629   1.061   3.814   5.066
 6541TIP3    H219630   1.106   3.691   5.141
 6542TIP3   OH219631   4.709   1.259   2.006
 6542TIP3    H119632   4.686   1.237   1.916
 6542TIP3    H219633   4.803   1.279   2.002
 6543TIP3   OH219634   5.890   4.883   2.941
 6543TIP3    H119635   5.846   4.921   3.017
 6543TIP3    H219636   5.835   4.809   2.916
 6544TIP3   OH219637   1.973   4.045   0.132
 6544TIP3    H119638   2.002   4.004   0.213
 6544TIP3    H219639   1.936   4.129   0.158
 6545TIP3   OH219640   4.002   4.171   1.606
 6545TIP3    H119641   3.990   4.173   1.511
 6545TIP3    H219642   3.922   4.210   1.642
 6546TIP3   OH219643   3.280   2.700   3.606
 6546TIP3    H119644   3.261   2.743   3.689
 6546TIP3    H219645   3.370   2.667   3.616
 6547TIP3   OH219646   5.411   3.946   0.443
 6547TIP3    H119647   5.481   3.962   0.379
 6547TIP3    H219648   5.447   3.878   0.500
 6548TIP3   OH219649   3.990   5.112   4.409
 6548TIP3    H119650   4.025   5.067   4.332
 6548TIP3    H219651   3.902   5.138   4.385
 6549TIP3   OH219652   0.147   2.111   2.481
 6549TIP3    H119653   0.129   2.202   2.503
 6549TIP3    H219654   0.063   2.076   2.451
 6550TIP3   OH219655   1.107   5.163   2.130
 6550TIP3    H119656   1.153   5.219   2.193
 6550TIP3    H219657   1.018   5.157   2.164
 6551TIP3   OH219658   4.338   1.381   0.165
 6551TIP3    H119659   4.311   1.468   0.195
 6551TIP3    H219660   4.274   1.357   0.098
 6552TIP3   OH219661   2.241   5.344   4.830
 6552TIP3    H119662   2.295   5.378   4.901
 6552TIP3    H219663   2.188   5.419   4.802
 6553TIP3   OH219664   1.791   2.724   0.978
 6553TIP3    H119665   1.743   2.647   1.011
 6553TIP3    H219666   1.732   2.763   0.914
 6554TIP3   OH219667   3.994   1.777   3.917
 6554TIP3    H119668   4.013   1.708   3.980
 6554TIP3    H219669   3.919   1.744   3.867
 6555TIP3   OH219670   6.039   0.228   1.278
 6555TIP3    H119671   6.008   0.294   1.340
 6555TIP3    H219672   6.055   0.276   1.197
 6556TIP3   OH219673   0.538   2.008   1.249
 6556TIP3    H119674   0.565   1.927   1.292
 6556TIP3    H219675   0.530   1.984   1.157
 6557TIP3   OH219676   5.720   2.245   3.745
 6557TIP3    H119677   5.642   2.209   3.704
 6557TIP3    H219678   5.783   2.255   3.673
 6558TIP3   OH219679   2.403   4.732   1.350
 6558TIP3    H119680   2.361   4.741   1.436
 6558TIP3    H219681   2.368   4.804   1.298
 6559TIP3   OH219682   5.758   2.062   1.260
 6559TIP3    H119683   5.762   1.985   1.318
 6559TIP3    H219684   5.689   2.116   1.298
 6560TIP3   OH219685   5.281   5.494   1.178
 6560TIP3    H119686   5.375   5.508   1.166
 6560TIP3    H219687   5.245   5.490   1.090
 6561TIP3   OH219688   2.269   2.288   3.671
 6561TIP3    H119689   2.246   2.285   3.578
 6561TIP3    H219690   2.214   2.222   3.712
 6562TIP3   OH219691   2.392   2.780   4.726
 6562TIP3    H119692   2.415   2.862   4.682
 6562TIP3    H219693   2.472   2.728   4.723
 6563TIP3   OH219694   5.543   1.827   4.875
 6563TIP3    H119695   5.471   1.858   4.820
 6563TIP3    H219696   5.564   1.740   4.842
 6564TIP3   OH219697   4.041   3.577   1.893
 6564TIP3    H119698   4.117   3.575   1.951
 6564TIP3    H219699   3.975   3.523   1.937
 6565TIP3   OH219700   2.553   3.980   4.006
 6565TIP3    H119701   2.581   4.063   3.966
 6565TIP3    H219702   2.542   4.001   4.099
 6566TIP3   OH219703   0.893   2.608   0.270
 6566TIP3    H119704   0.912   2.607   0.176
 6566TIP3    H219705   0.944   2.535   0.305
 6567TIP3   OH219706   1.953   5.222   4.105
 6567TIP3    H119707   1.985   5.245   4.018
 6567TIP3    H219708   2.007   5.275   4.165
 6568TIP3   OH219709   6.173   2.042   1.575
 6568TIP3    H119710   6.241   2.068   1.637
 6568TIP3    H219711   6.092   2.044   1.626
 6569TIP3   OH219712   5.511   5.192   2.036
 6569TIP3    H119713   5.607   5.196   2.042
 6569TIP3    H219714   5.488   5.113   2.084
 6570TIP3   OH219715   3.647   4.721   3.411
 6570TIP3    H119716   3.586   4.648   3.423
 6570TIP3    H219717   3.733   4.679   3.414
 6571TIP3   OH219718   4.784   2.715   0.216
 6571TIP3    H119719   4.743   2.682   0.136
 6571TIP3    H219720   4.832   2.793   0.188
 6572TIP3   OH219721   3.804   3.570   0.467
 6572TIP3    H119722   3.853   3.628   0.525
 6572TIP3    H219723   3.783   3.624   0.391
 6573TIP3   OH219724   2.691   4.669   0.700
 6573TIP3    H119725   2.680   4.577   0.726
 6573TIP3    H219726   2.656   4.674   0.612
 6574TIP3   OH219727   0.377   5.505   0.887
 6574TIP3    H119728   0.355   5.485   0.796
 6574TIP3    H219729   0.365   5.422   0.933
 6575TIP3   OH219730   6.061   5.846   1.497
 6575TIP3    H119731   6.083   5.799   1.578
 6575TIP3    H219732   5.967   5.831   1.486
 6576TIP3   OH219733   1.630   3.048   0.414
 6576TIP3    H119734   1.659   3.100   0.489
 6576TIP3    H219735   1.572   2.982   0.451
 6577TIP3   OH219736   6.272   5.420   4.435
 6577TIP3    H119737   6.250   5.375   4.516
 6577TIP3    H219738   6.194   5.471   4.413
 6578TIP3   OH219739   3.931   2.920   3.513
 6578TIP3    H119740   3.914   3.010   3.539
 6578TIP3    H219741   3.922   2.870   3.595
 6579TIP3   OH219742   3.513   5.704   5.067
 6579TIP3    H119743   3.429   5.707   5.113
 6579TIP3    H219744   3.545   5.615   5.083
 6580TIP3   OH219745   5.338   0.295   1.577
 6580TIP3    H119746   5.398   0.328   1.644
 6580TIP3    H219747   5.378   0.214   1.547
 6581TIP3   OH219748   1.325   2.182   1.118
 6581TIP3    H119749   1.318   2.088   1.136
 6581TIP3    H219750   1.259   2.198   1.050
 6582TIP3   OH219751   0.495   1.341   2.012
 6582TIP3    H119752   0.438   1.395   2.066
 6582TIP3    H219753   0.547   1.290   2.074
 6583TIP3   OH219754   2.603   4.435   0.231
 6583TIP3    H119755   2.549   4.479   0.165
 6583TIP3    H219756   2.545   4.368   0.268
 6584TIP3   OH219757   6.186   5.199   4.953
 6584TIP3    H119758   6.176   5.208   5.048
 6584TIP3    H219759   6.240   5.120   4.942
 6585TIP3   OH219760   6.085   5.037   1.060
 6585TIP3    H119761   6.081   4.984   0.981
 6585TIP3    H219762   5.997   5.075   1.068
 6586TIP3   OH219763   3.549   0.407   4.108
 6586TIP3    H119764   3.463   0.415   4.149
 6586TIP3    H219765   3.609   0.453   4.168
 6587TIP3   OH219766   1.348   1.125   0.242
 6587TIP3    H119767   1.288   1.102   0.313
 6587TIP3    H219768   1.315   1.077   0.166
 6588TIP3   OH219769   2.622   0.433   4.054
 6588TIP3    H119770   2.540   0.469   4.090
 6588TIP3    H219771   2.690   0.492   4.085
 6589TIP3   OH219772   0.529   4.928   3.246
 6589TIP3    H119773   0.559   4.848   3.204
 6589TIP3    H219774   0.486   4.978   3.176
 6590TIP3   OH219775   1.008   3.148   2.624
 6590TIP3    H119776   0.920   3.170   2.653
 6590TIP3    H219777   1.029   3.215   2.558
 6591TIP3   OH219778   5.786   5.776   1.464
 6591TIP3    H119779   5.803   5.716   1.536
 6591TIP3    H219780   5.693   5.766   1.445
 6592TIP3   OH219781   2.968   4.334   3.278
 6592TIP3    H119782   2.990   4.262   3.219
 6592TIP3    H219783   3.010   4.311   3.361
 6593TIP3   OH219784   4.926   2.421   0.313
 6593TIP3    H119785   4.914   2.423   0.218
 6593TIP3    H219786   4.890   2.504   0.344
 6594TIP3   OH219787   3.611   4.402   0.154
 6594TIP3    H119788   3.535   4.460   0.146
 6594TIP3    H219789   3.573   4.316   0.172
 6595TIP3   OH219790   5.645   4.700   1.831
 6595TIP3    H119791   5.595   4.735   1.904
 6595TIP3    H219792   5.602   4.617   1.811
 6596TIP3   OH219793   3.753   3.038   4.358
 6596TIP3    H119794   3.708   3.090   4.425
 6596TIP3    H219795   3.809   2.979   4.407
 6597TIP3   OH219796   1.402   1.480   1.313
 6597TIP3    H119797   1.368   1.470   1.402
 6597TIP3    H219798   1.436   1.570   1.311
 6598TIP3   OH219799   1.454   0.323   0.095
 6598TIP3    H119800   1.495   0.409   0.096
 6598TIP3    H219801   1.441   0.302   0.188
 6599TIP3   OH219802   1.131   1.442   3.713
 6599TIP3    H119803   1.186   1.403   3.645
 6599TIP3    H219804   1.186   1.508   3.754
 6600TIP3   OH219805   4.562   5.057   4.589
 6600TIP3    H119806   4.491   5.059   4.524
 6600TIP3    H219807   4.583   4.965   4.598
 6601TIP3   OH219808   3.521   3.406   4.902
 6601TIP3    H119809   3.430   3.425   4.880
 6601TIP3    H219810   3.537   3.319   4.866
 6602TIP3   OH219811   5.132   3.308   1.981
 6602TIP3    H119812   5.122   3.213   1.987
 6602TIP3    H219813   5.046   3.343   2.004
 6603TIP3   OH219814   3.152   3.075   4.123
 6603TIP3    H119815   3.182   3.075   4.032
 6603TIP3    H219816   3.133   3.167   4.142
 6604TIP3   OH219817   1.694   2.040   4.410
 6604TIP3    H119818   1.722   2.063   4.321
 6604TIP3    H219819   1.773   2.054   4.464
 6605TIP3   OH219820   4.340   2.661   0.010
 6605TIP3    H119821   4.436   2.656   0.012
 6605TIP3    H219822   4.317   2.707   0.091
 6606TIP3   OH219823   4.926   1.172   1.537
 6606TIP3    H119824   4.950   1.081   1.553
 6606TIP3    H219825   4.975   1.197   1.459
 6607TIP3   OH219826   4.278   3.004   1.005
 6607TIP3    H119827   4.251   2.931   1.061
 6607TIP3    H219828   4.281   2.965   0.917
 6608TIP3   OH219829   4.793   0.621   4.331
 6608TIP3    H119830   4.813   0.578   4.414
 6608TIP3    H219831   4.876   0.663   4.306
 6609TIP3   OH219832   1.425   3.172   2.829
 6609TIP3    H119833   1.402   3.256   2.868
 6609TIP3    H219834   1.344   3.120   2.835
 6610TIP3   OH219835   2.179   1.145   5.156
 6610TIP3    H119836   2.266   1.106   5.171
 6610TIP3    H219837   2.197   1.224   5.104
 6611TIP3   OH219838   0.719   3.569   3.250
 6611TIP3    H119839   0.713   3.665   3.243
 6611TIP3    H219840   0.740   3.540   3.161
 6612TIP3   OH219841   1.235   5.745   3.030
 6612TIP3    H119842   1.162   5.735   2.969
 6612TIP3    H219843   1.194   5.776   3.111
 6613TIP3   OH219844   2.365   2.404   4.783
 6613TIP3    H119845   2.296   2.404   4.717
 6613TIP3    H219846   2.445   2.384   4.734
 6614TIP3   OH219847   6.142   2.693   2.395
 6614TIP3    H119848   6.219   2.686   2.339
 6614TIP3    H219849   6.164   2.762   2.458
 6615TIP3   OH219850   3.140   0.130   1.285
 6615TIP3    H119851   3.088   0.053   1.308
 6615TIP3    H219852   3.137   0.134   1.189
 6616TIP3   OH219853   3.232   0.841   2.413
 6616TIP3    H119854   3.305   0.795   2.453
 6616TIP3    H219855   3.272   0.905   2.354
 6617TIP3   OH219856   0.499   0.138   2.689
 6617TIP3    H119857   0.511   0.153   2.783
 6617TIP3    H219858   0.587   0.122   2.656
 6618TIP3   OH219859   0.433   3.115   2.483
 6618TIP3    H119860   0.411   3.101   2.575
 6618TIP3    H219861   0.356   3.086   2.435
 6619TIP3   OH219862   3.828   5.947   4.648
 6619TIP3    H119863   3.895   5.912   4.589
 6619TIP3    H219864   3.877   5.996   4.713
 6620TIP3   OH219865   3.627   0.121   5.007
 6620TIP3    H119866   3.599   0.212   4.999
 6620TIP3    H219867   3.546   0.071   5.016
 6621TIP3   OH219868   5.623   0.107   1.865
 6621TIP3    H119869   5.643   0.110   1.959
 6621TIP3    H219870   5.683   0.170   1.826
 6622TIP3   OH219871   5.729   0.631   3.118
 6622TIP3    H119872   5.801   0.664   3.171
 6622TIP3    H219873   5.667   0.704   3.113
 6623TIP3   OH219874   5.695   5.259   0.410
 6623TIP3    H119875   5.758   5.277   0.480
 6623TIP3    H219876   5.735   5.187   0.360
 6624TIP3   OH219877   1.891   2.931   3.942
 6624TIP3    H119878   1.803   2.939   3.979
 6624TIP3    H219879   1.933   3.015   3.960
 6625TIP3   OH219880   1.034   3.708   2.446
 6625TIP3    H119881   1.070   3.660   2.520
 6625TIP3    H219882   0.951   3.743   2.479
 6626TIP3   OH219883   1.209   1.655   1.103
 6626TIP3    H119884   1.135   1.598   1.086
 6626TIP3    H219885   1.286   1.603   1.080
 6627TIP3   OH219886   5.103   1.304   4.929
 6627TIP3    H119887   5.158   1.381   4.946
 6627TIP3    H219888   5.164   1.231   4.928
 6628TIP3   OH219889   4.830   4.018   1.048
 6628TIP3    H119890   4.761   3.982   0.993
 6628TIP3    H219891   4.903   3.957   1.039
 6629TIP3   OH219892   0.744   4.868   2.033
 6629TIP3    H119893   0.738   4.955   2.073
 6629TIP3    H219894   0.838   4.852   2.025
 6630TIP3   OH219895   3.856   1.251   1.627
 6630TIP3    H119896   3.777   1.207   1.657
 6630TIP3    H219897   3.847   1.253   1.531
 6631TIP3   OH219898   2.640   5.160   1.276
 6631TIP3    H119899   2.589   5.131   1.352
 6631TIP3    H219900   2.701   5.088   1.261
 6632TIP3   OH219901   2.977   3.336   0.849
 6632TIP3    H119902   2.909   3.277   0.883
 6632TIP3    H219903   3.052   3.279   0.832
 6633TIP3   OH219904   5.771   4.005   3.040
 6633TIP3    H119905   5.799   3.914   3.033
 6633TIP3    H219906   5.827   4.052   2.979
 6634TIP3   OH219907   0.843   4.883   5.064
 6634TIP3    H119908   0.857   4.790   5.043
 6634TIP3    H219909   0.866   4.890   5.157
 6635TIP3   OH219910   4.364   5.158   2.296
 6635TIP3    H119911   4.419   5.232   2.321
 6635TIP3    H219912   4.275   5.189   2.309
 6636TIP3   OH219913   1.780   3.880   4.661
 6636TIP3    H119914   1.832   3.941   4.714
 6636TIP3    H219915   1.844   3.816   4.630
 6637TIP3   OH219916   0.285   3.635   0.773
 6637TIP3    H119917   0.354   3.700   0.779
 6637TIP3    H219918   0.224   3.672   0.709
 6638TIP3   OH219919   1.237   5.493   2.800
 6638TIP3    H119920   1.242   5.510   2.894
 6638TIP3    H219921   1.242   5.580   2.759
 6639TIP3   OH219922   3.875   1.039   2.537
 6639TIP3    H119923   3.779   1.041   2.537
 6639TIP3    H219924   3.899   1.026   2.445
 6640TIP3   OH219925   0.115   0.053   0.887
 6640TIP3    H119926   0.171   0.112   0.937
 6640TIP3    H219927   0.026   0.082   0.907
 6641TIP3   OH219928   6.170   2.485   5.029
 6641TIP3    H119929   6.155   2.563   4.976
 6641TIP3    H219930   6.205   2.517   5.111
 6642TIP3   OH219931   3.514   3.976   4.954
 6642TIP3    H119932   3.609   3.967   4.969
 6642TIP3    H219933   3.507   4.042   4.886
 6643TIP3   OH219934   4.758   5.414   1.427
 6643TIP3    H119935   4.739   5.430   1.334
 6643TIP3    H219936   4.735   5.322   1.441
 6644TIP3   OH219937   4.456   1.630   0.328
 6644TIP3    H119938   4.552   1.630   0.325
 6644TIP3    H219939   4.435   1.572   0.401
 6645TIP3   OH219940   1.966   3.292   4.227
 6645TIP3    H119941   1.971   3.381   4.193
 6645TIP3    H219942   2.041   3.285   4.286
   6.35557   5.99209   5.18931   0.00000   0.00000  -2.11853   0.00000  -2.11853  -2.99604
